 Gaussian 16, Revision A.03,
 Gaussian 16:  ES64L-G16RevA.03 25-Dec-2016

 ----------------------------------------------------------------------
 #P Opt(MaxCyc=100) B97D3/6-31G* 5D 7F Integral=UltraFineGrid SCF=(NoSy
 mm,XQC,MaxCyc=120) IOp(1/33=1)
 ----------------------------------------------------------------------

 TstMul:  Mul=     1
 TstMul:  ICh=     0
 TstMul:  Mul=     1
 Symbolic Z-matrix:
 Charge =  0 Multiplicity = 1

 SCF Done:  E(RB97D3) =  -78.5323633682     A.U. after    9 cycles
 SCF Done:  E(RB97D3) =  -78.5327250703     A.U. after    9 cycles
 SCF Done:  E(RB97D3) =  -78.5327278891     A.U. after    6 cycles
 Optimization completed.
    -- Stationary point found.

                         Standard orientation:
 ---------------------------------------------------------------------
 Center     Atomic      Atomic             Coordinates (Angstroms)
 Number     Number       Type             X           Y           Z
 ---------------------------------------------------------------------
      1          6           0       -0.000000   -0.000000    0.669177
      2          6           0        0.000000   -0.000000   -0.669177
      3          1           0        0.000000    0.928191    1.244564
      4          1           0       -0.000000   -0.928191    1.244564
      5          1           0        0.000000    0.928191   -1.244564
      6          1           0       -0.000000   -0.928191   -1.244564
 ---------------------------------------------------------------------

 The electronic state is 1-AG.
 Alpha  occ. eigenvalues --   -9.90483  -9.90428  -0.68121  -0.51801  -0.41167
 Alpha  occ. eigenvalues --   -0.36461  -0.30836  -0.22898
 Alpha virt. eigenvalues --   -0.01216   0.10218   0.11592   0.13373   0.22368
 Alpha virt. eigenvalues --    0.30317   0.45587   0.51727   0.53845   0.60195
 Alpha virt. eigenvalues --    0.62278   0.65185   0.80460   0.82331   0.88029

 Mulliken charges:
               1
     1  C   -0.293922
     2  C   -0.293922
     3  H    0.146961
     4  H    0.146961
     5  H    0.146961
     6  H    0.146961
 Sum of Mulliken charges =   0.00000

 Dipole moment (field-independent basis, Debye):
    X=             -0.0000    Y=              0.0000    Z=              0.0000  Tot=              0.0000
 Quadrupole moment (field-independent basis, Debye-Ang):
   XX=            -15.0008   YY=            -12.0431   ZZ=            -11.9431
   XY=              0.0000   XZ=             -0.0000   YZ=             -0.0000

 Normal termination of Gaussian 16 at Wed Oct  7 13:59:15 2020.
