 Gaussian 16, Revision A.03,
 Gaussian 16:  ES64L-G16RevA.03 25-Dec-2016

 ----------------------------------------------------------------------
 #P Opt(MaxCyc=100) B97D3/6-31G* 5D 7F Integral=UltraFineGrid SCF=(NoSy
 mm,XQC,MaxCyc=120) IOp(1/33=1)
 ----------------------------------------------------------------------

 TstMul:  Mul=     2
 TstMul:  ICh=     0
 TstMul:  Mul=     2
 Symbolic Z-matrix:
 Charge =  0 Multiplicity = 2

 SCF Done:  E(UB97D3) =  -118.389714726     A.U. after   14 cycles
 SCF Done:  E(UB97D3) =  -118.390278997     A.U. after   11 cycles
 SCF Done:  E(UB97D3) =  -118.390286739     A.U. after    9 cycles
 SCF Done:  E(UB97D3) =  -118.390287634     A.U. after    8 cycles
 Optimization completed.
    -- Stationary point found.

                         Standard orientation:
 ---------------------------------------------------------------------
 Center     Atomic      Atomic             Coordinates (Angstroms)
 Number     Number       Type             X           Y           Z
 ---------------------------------------------------------------------
      1          6           0        1.215968   -0.288200    0.000061
      2          6           0       -0.072144    0.579162   -0.000060
      3          6           0       -1.321848   -0.237630   -0.000014
      4          1           0        1.250973   -0.935108    0.888994
      5          1           0        1.251004   -0.935309   -0.888724
      6          1           0        2.115931    0.346723    0.000003
      7          1           0       -0.048307    1.237282   -0.885310
      8          1           0       -0.048366    1.237476    0.885041
      9          1           0       -1.726723   -0.635227    0.931630
     10          1           0       -1.726371   -0.635827   -0.931556
 ---------------------------------------------------------------------

 The electronic state is 2-A.
 Alpha  occ. eigenvalues --   -9.90643  -9.90171  -9.89625  -0.70474  -0.60468
 Alpha  occ. eigenvalues --   -0.51818  -0.40953  -0.37682  -0.34503  -0.32984
 Alpha  occ. eigenvalues --   -0.30419  -0.28799  -0.15582
 Alpha virt. eigenvalues --    0.08706   0.11775   0.11861   0.13636   0.15492
 Alpha virt. eigenvalues --    0.15551   0.19884   0.19989   0.24328   0.49003
 Alpha virt. eigenvalues --    0.50882   0.50915   0.52716   0.55903   0.57953

  Beta  occ. eigenvalues --   -9.90678  -9.89743  -9.89564  -0.69399  -0.58625
  Beta  occ. eigenvalues --   -0.50425  -0.40373  -0.37053  -0.33758  -0.32000
  Beta  occ. eigenvalues --   -0.29754  -0.28564
  Beta virt. eigenvalues --   -0.06936   0.08927   0.12075   0.13187   0.13710
  Beta virt. eigenvalues --    0.15678   0.15763   0.20159   0.20483   0.25341
  Beta virt. eigenvalues --    0.49339   0.50945   0.52390   0.53713   0.58104

 Mulliken charges and spin densities:
               1          2
     1  C   -0.448298   0.057580
     2  C   -0.266397  -0.058890
     3  C   -0.319092   1.081255
     4  H    0.150729  -0.002359
     5  H    0.150727  -0.002359
     6  H    0.146637   0.011612
     7  H    0.146127   0.010066
     8  H    0.146125   0.010047
     9  H    0.146723  -0.053477
    10  H    0.146719  -0.053476
 Sum of Mulliken charges =  -0.00000   1.00000

 Dipole moment (field-independent basis, Debye):
    X=              0.2689    Y=             -0.0227    Z=              0.0001  Tot=              0.2698
 Quadrupole moment (field-independent basis, Debye-Ang):
   XX=            -21.5414   YY=            -20.9837   ZZ=            -19.8122
   XY=              0.7583   XZ=             -0.0004   YZ=              0.0004

 1\1\GINC-NODE37\FOpt\UB97D3\6-31G(d)\C3H7(2)\RPEVERATI\07-Oct-2020\0\\
 #P Opt(MaxCyc=100) B97D3/6-31G* 5D 7F Integral=UltraFineGrid SCF=(NoSy
 mm,XQC,MaxCyc=120) IOp(1/33=1)\\TS search on BH76.\\0,2\C,1.2118394072
 ,-0.2903919804,0.0000607048\C,-0.0730726467,0.5817033037,-0.0000611198
 \C,-1.3257730132,-0.2304849103,-0.000014587\H,1.2444642401,-0.93742463
 92,0.8889928453\H,1.2444940596,-0.9376256917,-0.8887244964\H,2.1141327
 209,0.3412155884,0.0000025234\H,-0.0468141147,1.239730974,-0.885310512
 3\H,-0.0468720575,1.2399255052,0.8850398571\H,-1.7321084967,-0.6265890

 Normal termination of Gaussian 16 at Wed Oct  7 14:00:32 2020.
