 Gaussian 16, Revision A.03,

 ----------------------------------------------------------------------
 #P Opt(TS,MaxCyc=50,NoEigenTest,MaxStep=10,AddRedundant) B97D3/6-31G*
 5D 7F Integral=UltraFineGrid SCF=(NoSymm,XQC,MaxCyc=120) IOp(1/33=1)
 ----------------------------------------------------------------------

 TstMul:  Mul=     2
 TstMul:  ICh=     0
 TstMul:  Mul=     2
 Symbolic Z-matrix:
 Charge =  0 Multiplicity = 2

 SCF Done:  E(UB97D3) =  -79.0336665737     A.U. after   17 cycles
 SCF Done:  E(UB97D3) =  -79.0352424886     A.U. after   15 cycles
 SCF Done:  E(UB97D3) =  -79.0341130179     A.U. after   14 cycles
 SCF Done:  E(UB97D3) =  -79.0331140128     A.U. after   14 cycles
 SCF Done:  E(UB97D3) =  -79.0322912735     A.U. after   14 cycles
 SCF Done:  E(UB97D3) =  -79.0316219706     A.U. after   14 cycles
 SCF Done:  E(UB97D3) =  -79.0310844687     A.U. after   14 cycles
 SCF Done:  E(UB97D3) =  -79.0306487860     A.U. after   14 cycles
 SCF Done:  E(UB97D3) =  -79.0302906117     A.U. after   14 cycles
 SCF Done:  E(UB97D3) =  -79.0300013607     A.U. after   14 cycles
 SCF Done:  E(UB97D3) =  -79.0293685783     A.U. after   11 cycles
 SCF Done:  E(UB97D3) =  -79.0293698591     A.U. after    9 cycles
 SCF Done:  E(UB97D3) =  -79.0293698945     A.U. after   10 cycles
 SCF Done:  E(UB97D3) =  -79.0293713347     A.U. after   10 cycles
 SCF Done:  E(UB97D3) =  -79.0293740614     A.U. after   10 cycles
 SCF Done:  E(UB97D3) =  -79.0293766979     A.U. after   13 cycles
 SCF Done:  E(UB97D3) =  -79.0293783368     A.U. after   12 cycles
 SCF Done:  E(UB97D3) =  -79.0293788237     A.U. after   11 cycles
 SCF Done:  E(UB97D3) =  -79.0293789673     A.U. after    9 cycles
 Optimization completed.
    -- Stationary point found.
 Normal termination of Gaussian 16 at Wed Oct  7 14:04:47 2020.
 Gaussian 16:  ES64L-G16RevA.03 25-Dec-2016

 ----------------------------------------------------------------------
 #P Freq B97D3/6-31G* 5D 7F Integral=UltraFineGrid SCF=(NoSymm,XQC,MaxC
 yc=120) IOp(1/33=1) Geom=Check Guess=Read
 ----------------------------------------------------------------------

 TstMul:  Mul=     2
 TstMul:  ICh=     0
 TstMul:  Mul=     2
 Structure from the checkpoint file:  "MN_13_c2h5ts_BH76_B97DBJ_631Gs.chk"
 Charge =  0 Multiplicity = 2

                         Standard orientation:
 ---------------------------------------------------------------------
 Center     Atomic      Atomic             Coordinates (Angstroms)
 Number     Number       Type             X           Y           Z
 ---------------------------------------------------------------------
      1          6           0       -0.519224    0.344346    0.002351
      2          6           0        0.744171   -0.105235   -0.000438
      3          1           0       -1.804316   -1.927749   -0.015568
      4          1           0       -1.058733    0.538006    0.931269
      5          1           0       -1.055408    0.559184   -0.923831
      6          1           0        1.286307   -0.290957   -0.929739
      7          1           0        1.282469   -0.313148    0.926388
 ---------------------------------------------------------------------

 SCF Done:  E(UB97D3) =  -79.0293789673     A.U. after    1 cycles

 The electronic state is 2-A.
 Alpha  occ. eigenvalues --   -9.91048  -9.90965  -0.68652  -0.52280  -0.41576
 Alpha  occ. eigenvalues --   -0.36934  -0.31252  -0.26312  -0.21585
 Alpha virt. eigenvalues --   -0.01550   0.09984   0.11347   0.13129   0.22124
 Alpha virt. eigenvalues --    0.29923   0.45283   0.52017   0.53450   0.59372
 Alpha virt. eigenvalues --    0.61124   0.64408   0.80207   0.80897   0.81928

  Beta  occ. eigenvalues --   -9.91048  -9.90937  -0.68480  -0.52173  -0.41517
  Beta  occ. eigenvalues --   -0.36843  -0.31216  -0.23551
  Beta virt. eigenvalues --   -0.09193  -0.01020   0.10037   0.11340   0.13165
  Beta virt. eigenvalues --    0.22109   0.29906   0.45239   0.52963   0.53405
  Beta virt. eigenvalues --    0.60033   0.63389   0.65469   0.80213   0.81989

 Mulliken charges and spin densities:
               1          2
     1  C   -0.287976  -0.034573
     2  C   -0.289373   0.085609
     3  H   -0.030119   0.955446
     4  H    0.153032   0.001178
     5  H    0.153001   0.001211
     6  H    0.150712  -0.004438
     7  H    0.150723  -0.004433
 Sum of Mulliken charges =   0.00000   1.00000

 Dipole moment (field-independent basis, Debye):
    X=              0.2370    Y=              0.2913    Z=              0.0025  Tot=              0.3755
 Quadrupole moment (field-independent basis, Debye-Ang):
   XX=            -13.9092   YY=            -16.3193   ZZ=            -13.2779
   XY=             -1.4579   XZ=             -0.0159   YZ=             -0.0361

  Exact polarizability:  40.362   6.163  26.012   0.044  -0.001  20.709
 Approx polarizability:  62.002  -5.626  26.170  -0.050  -0.094  29.165

 ******    1 imaginary frequencies (negative Signs) ******

                      1                      2                      3
                      A                      A                      A
 Frequencies --   -422.6200               117.6550               152.2245
 Red. masses --      1.0573                 1.2548                 1.0284
 Frc consts  --      0.1113                 0.0102                 0.0140
 IR Inten    --    209.9402                 2.2085                 0.1316

                      4                      5                      6
                      A                      A                      A
 Frequencies --    818.6600               909.7984               944.4753
 Red. masses --      1.0425                 1.4950                 1.1528
 Frc consts  --      0.4117                 0.7291                 0.6059
 IR Inten    --      0.9230                 0.0623               108.5078

                      7                      8                      9
                      A                      A                      A
 Frequencies --   1041.1302              1222.7535              1363.4198
 Red. masses --      1.0079                 1.5236                 1.2739
 Frc consts  --      0.6437                 1.3422                 1.3952
 IR Inten    --      0.0068                 0.0000                 4.7108

                     10                     11                     12
                      A                      A                      A
 Frequencies --   1464.7451              1661.2670              3098.1425
 Red. masses --      1.1123                 2.8507                 1.0477
 Frc consts  --      1.4060                 4.6354                 5.9248
 IR Inten    --      5.3635                22.4737                21.4691

                     13                     14                     15
                      A                      A                      A
 Frequencies --   3111.6472              3170.4706              3197.6158
 Red. masses --      1.0708                 1.1145                 1.1177
 Frc consts  --      6.1087                 6.6007                 6.7335
 IR Inten    --      6.6788                 0.1476                37.3412

 - Thermochemistry -
 -------------------
 Temperature   298.150 Kelvin.  Pressure   1.00000 Atm.
 Atom     1 has atomic number  6 and mass  12.00000

 Molecular mass:    29.03913 amu.
 Principal axes and moments of inertia in atomic units:
                           1         2         3
     Eigenvalues --    33.19181  79.79942  88.20391
           X            0.99238   0.12324   0.00049
           Y           -0.12324   0.99238  -0.00147
           Z           -0.00066   0.00140   1.00000
 This molecule is an asymmetric top.
 Rotational symmetry number  1.
 Rotational temperatures (Kelvin)      2.60950     1.08540     0.98197
 Rotational constants (GHZ):          54.37310    22.61597    20.46101
    1 imaginary frequencies ignored.
 Zero-point vibrational energy     133228.1 (Joules/Mol)
                                   31.84229 (Kcal/Mol)
 Warning -- explicit consideration of   2 degrees of freedom as
           vibrations may cause significant error
 Vibrational temperatures:    169.28   219.02  1177.87  1309.00  1358.89
          (Kelvin)           1497.95  1759.27  1961.66  2107.44  2390.19
                             4457.54  4476.97  4561.60  4600.66

 Zero-point correction=                           0.050744 (Hartree/Particle)
 Thermal correction to Energy=                    0.055152
 Thermal correction to Enthalpy=                  0.056096
 Thermal correction to Gibbs Free Energy=         0.025745
 Sum of electronic and zero-point Energies=            -78.978635
 Sum of electronic and thermal Energies=               -78.974227
 Sum of electronic and thermal Enthalpies=             -78.973283
 Sum of electronic and thermal Free Energies=          -79.003634

                     E (Thermal)             CV                S
                      KCal/Mol        Cal/Mol-Kelvin    Cal/Mol-Kelvin
 Total                   34.608             12.118             63.879
 Electronic               0.000              0.000              1.377
 Translational            0.889              2.981             36.032
 Rotational               0.889              2.981             20.085
 Vibrational             32.831              6.156              6.384
 Vibration     1          0.608              1.935              3.139
 Vibration     2          0.619              1.900              2.644

                           ! Non-Optimized Parameters !

 1\1\GINC-NODE40\Freq\UB97D3\6-31G(d)\C2H5(2)\RPEVERATI\07-Oct-2020\0\\
 #P Freq B97D3/6-31G* 5D 7F Integral=UltraFineGrid SCF=(NoSymm,XQC,MaxC
 yc=120) IOp(1/33=1) Geom=Check Guess=Read\\TS search on BH76.\\0,2\C,-
 0.5175752829,0.0013507715,-0.3679411119\C,0.7688918599,0.0007800983,0.
 0106074338\H,-1.6741642939,-0.0066637945,1.9722365399\H,-1.0674176478,
 0.9293050286,-0.5353839982\H,-1.0645016774,-0.9258706026,-0.5484793852
 \H,1.3209159039,-0.9275924662,0.1699804048\H,1.3175437552,0.9286148475
 ,0.1841104951\\Version=ES64L-G16RevA.03\State=2-A\HF=-79.029379\S2=0.7

 Normal termination of Gaussian 16 at Wed Oct  7 14:05:20 2020.
