 Gaussian 16, Revision A.03,
 Gaussian 16:  ES64L-G16RevA.03 25-Dec-2016

 ----------------------------------------------------------------------
 #P Opt(MaxCyc=100) B97D3/6-31G* 5D 7F Integral=UltraFineGrid SCF=(NoSy
 mm,XQC,MaxCyc=120) IOp(1/33=1)
 ----------------------------------------------------------------------

 TstMul:  Mul=     1
 TstMul:  ICh=     0
 TstMul:  Mul=     1
 Symbolic Z-matrix:
 Charge =  0 Multiplicity = 1

 SCF Done:  E(RB97D3) =  -79.7756987782     A.U. after    9 cycles
 SCF Done:  E(RB97D3) =  -79.7761216107     A.U. after    6 cycles
 SCF Done:  E(RB97D3) =  -79.7761224764     A.U. after    6 cycles
 Optimization completed.
    -- Stationary point found.

                         Standard orientation:
 ---------------------------------------------------------------------
 Center     Atomic      Atomic             Coordinates (Angstroms)
 Number     Number       Type             X           Y           Z
 ---------------------------------------------------------------------
      1          6           0       -0.766941   -0.000000   -0.000000
      2          6           0        0.766941    0.000000    0.000000
      3          1           0        1.166633   -0.383205   -0.951063
      4          1           0       -1.166637   -1.015183   -0.144115
      5          1           0        1.166634   -0.632045    0.807395
      6          1           0        1.166637    1.015246    0.143667
      7          1           0       -1.166633    0.382785    0.951232
      8          1           0       -1.166634    0.632401   -0.807116
 ---------------------------------------------------------------------

 The electronic state is 1-A.
 Alpha  occ. eigenvalues --   -9.89282  -9.89278  -0.67503  -0.54836  -0.37900
 Alpha  occ. eigenvalues --   -0.37900  -0.31670  -0.29480  -0.29480
 Alpha virt. eigenvalues --    0.08696   0.13536   0.13844   0.13844   0.16775
 Alpha virt. eigenvalues --    0.16775   0.21034   0.48692   0.51545   0.51545
 Alpha virt. eigenvalues --    0.60675   0.60675   0.62598   0.83781   0.83781

 Mulliken charges:
               1
     1  C   -0.448466
     2  C   -0.448466
     3  H    0.149489
     4  H    0.149489
     5  H    0.149489
     6  H    0.149489
     7  H    0.149489
     8  H    0.149489
 Sum of Mulliken charges =  -0.00000

 Dipole moment (field-independent basis, Debye):
    X=              0.0000    Y=              0.0000    Z=              0.0000  Tot=              0.0000
 Quadrupole moment (field-independent basis, Debye-Ang):
   XX=            -15.1737   YY=            -14.6416   ZZ=            -14.6416
   XY=              0.0000   XZ=              0.0000   YZ=              0.0000

 Normal termination of Gaussian 16 at Wed Oct  7 13:59:54 2020.
