 Gaussian 16, Revision A.03,
 Gaussian 16:  ES64L-G16RevA.03 25-Dec-2016

 ----------------------------------------------------------------------
 #P Opt(MaxCyc=100) B97D3/6-31G* 5D 7F Integral=UltraFineGrid SCF=(NoSy
 mm,XQC,MaxCyc=120) IOp(1/33=1)
 ----------------------------------------------------------------------

 TstMul:  Mul=     1
 TstMul:  ICh=     0
 TstMul:  Mul=     1
 Symbolic Z-matrix:
 Charge =  0 Multiplicity = 1

 SCF Done:  E(RB97D3) =  -500.091546832     A.U. after   11 cycles
 SCF Done:  E(RB97D3) =  -500.091974990     A.U. after   11 cycles
 SCF Done:  E(RB97D3) =  -500.091986718     A.U. after    7 cycles
 SCF Done:  E(RB97D3) =  -500.091989992     A.U. after    8 cycles
 Optimization completed.
    -- Stationary point found.

                         Standard orientation:
 ---------------------------------------------------------------------
 Center     Atomic      Atomic             Coordinates (Angstroms)
 Number     Number       Type             X           Y           Z
 ---------------------------------------------------------------------
      1          6           0        0.000000    0.000000   -1.141255
      2         17           0        0.000000    0.000000    0.665499
      3          1           0        0.000000    1.038400   -1.488651
      4          1           0        0.899280   -0.519200   -1.488651
      5          1           0       -0.899280   -0.519200   -1.488651
 ---------------------------------------------------------------------

 The electronic state is 1-A1.
 Alpha  occ. eigenvalues -- -100.63233  -9.96517  -9.21271  -7.05231  -7.03980
 Alpha  occ. eigenvalues --   -7.03980  -0.77166  -0.61438  -0.40099  -0.40099
 Alpha  occ. eigenvalues --   -0.37072  -0.25358  -0.25358
 Alpha virt. eigenvalues --   -0.00475   0.08606   0.11958   0.11958   0.37970
 Alpha virt. eigenvalues --    0.41707   0.43258   0.43258   0.49689   0.49689
 Alpha virt. eigenvalues --    0.52372   0.78681   0.78681   0.81902   0.83969

 Mulliken charges:
               1
     1  C   -0.534565
     2  Cl  -0.085248
     3  H    0.206604
     4  H    0.206604
     5  H    0.206604
 Sum of Mulliken charges =   0.00000

 Dipole moment (field-independent basis, Debye):
    X=             -0.0000    Y=             -0.0000    Z=             -2.0606  Tot=              2.0606
 Quadrupole moment (field-independent basis, Debye-Ang):
   XX=            -19.6156   YY=            -19.6156   ZZ=            -17.8003
   XY=             -0.0000   XZ=              0.0000   YZ=              0.0000

 1\1\GINC-NODE55\FOpt\RB97D3\6-31G(d)\C1H3Cl1\RPEVERATI\07-Oct-2020\0\\
 #P Opt(MaxCyc=100) B97D3/6-31G* 5D 7F Integral=UltraFineGrid SCF=(NoSy
 mm,XQC,MaxCyc=120) IOp(1/33=1)\\TS search on BH76.\\0,1\C,0.,0.,-0.152
 9014967\Cl,0.,0.,1.6538530742\H,-0.5191997658,-0.8992803737,-0.5002967
 458\H,-0.5191997658,0.8992803737,-0.5002967458\H,1.0383995317,0.,-0.50
 02967458\\Version=ES64L-G16RevA.03\State=1-A1\HF=-500.09199\RMSD=5.073
 e-10\RMSF=2.901e-05\Dipole=0.,0.,-0.8106991\Quadrupole=-0.4498855,-0.4
 498855,0.899771,0.,0.,0.\PG=C03V [C3(C1Cl1),3SGV(H1)]\\@

 Normal termination of Gaussian 16 at Wed Oct  7 14:00:38 2020.
