 Gaussian 16, Revision A.03,
 Gaussian 16:  ES64L-G16RevA.03 25-Dec-2016

 ----------------------------------------------------------------------
 #P Opt(MaxCyc=100) B97D3/6-31G* 5D 7F Integral=UltraFineGrid SCF=(NoSy
 mm,XQC,MaxCyc=120) IOp(1/33=1)
 ----------------------------------------------------------------------

 TstMul:  Mul=     2
 TstMul:  ICh=     0
 TstMul:  Mul=     2
 Symbolic Z-matrix:
 Charge =  0 Multiplicity = 2

 SCF Done:  E(UB97D3) =  -79.1030276340     A.U. after   13 cycles
 SCF Done:  E(UB97D3) =  -79.1034303055     A.U. after    9 cycles
 SCF Done:  E(UB97D3) =  -79.1034353283     A.U. after    8 cycles
 Optimization completed.
    -- Stationary point found.

                         Standard orientation:
 ---------------------------------------------------------------------
 Center     Atomic      Atomic             Coordinates (Angstroms)
 Number     Number       Type             X           Y           Z
 ---------------------------------------------------------------------
      1          6           0        0.796296   -0.000004   -0.022255
      2          6           0       -0.695073    0.000192   -0.001161
      3          1           0       -1.111023    0.897965   -0.485330
      4          1           0        1.356418   -0.932470    0.049464
      5          1           0       -1.098591   -0.012498    1.033115
      6          1           0       -1.111489   -0.885963   -0.506363
      7          1           0        1.357348    0.931838    0.049609
 ---------------------------------------------------------------------

 The electronic state is 2-A.
 Alpha  occ. eigenvalues --   -9.90326  -9.90133  -0.68003  -0.54304  -0.39652
 Alpha  occ. eigenvalues --   -0.35903  -0.34168  -0.30978  -0.15440
 Alpha virt. eigenvalues --    0.09684   0.11761   0.12304   0.15441   0.19684
 Alpha virt. eigenvalues --    0.22875   0.48620   0.51169   0.52462   0.57804
 Alpha virt. eigenvalues --    0.58845   0.70932   0.74653   0.82062   0.82819

  Beta  occ. eigenvalues --   -9.90166  -9.89894  -0.66266  -0.51885  -0.38773
  Beta  occ. eigenvalues --   -0.34903  -0.33007  -0.30391
  Beta virt. eigenvalues --   -0.06607   0.09891   0.12575   0.13087   0.15615
  Beta virt. eigenvalues --    0.20363   0.23933   0.48860   0.51181   0.56154
  Beta virt. eigenvalues --    0.58878   0.59998   0.71257   0.75975   0.82168

 Mulliken charges and spin densities:
               1          2
     1  C   -0.317175   1.087582
     2  C   -0.460431  -0.057026
     3  H    0.159214   0.011600
     4  H    0.149709  -0.053886
     5  H    0.159525   0.053082
     6  H    0.159297   0.012574
     7  H    0.149861  -0.053925
 Sum of Mulliken charges =   0.00000   1.00000

 Dipole moment (field-independent basis, Debye):
    X=             -0.2330    Y=             -0.0004    Z=              0.1317  Tot=              0.2677
 Quadrupole moment (field-independent basis, Debye-Ang):
   XX=            -13.9029   YY=            -13.3575   ZZ=            -14.8704
   XY=              0.0012   XZ=              0.1624   YZ=              0.0002

 1\1\GINC-NODE55\FOpt\UB97D3\6-31G(d)\C2H5(2)\RPEVERATI\07-Oct-2020\0\\
 #P Opt(MaxCyc=100) B97D3/6-31G* 5D 7F Integral=UltraFineGrid SCF=(NoSy
 mm,XQC,MaxCyc=120) IOp(1/33=1)\\TS search on BH76.\\0,2\C,0.797691847,
 0.000041017,-0.0232205498\C,-0.6936638355,0.0002025687,-0.0011552298\H
 ,-1.10994082,0.8982642084,-0.4845063478\H,1.3578726704,-0.9324609026,0
 .0475662849\H,-1.0965076989,-0.0131232763,1.03337545\H,-1.1103963089,-
 0.8856500006,-0.5066260019\H,1.3587770095,0.9318469947,0.0488452961\\V
 ersion=ES64L-G16RevA.03\State=2-A\HF=-79.1034353\S2=0.755094\S2-1=0.\S

 Normal termination of Gaussian 16 at Wed Oct  7 13:59:44 2020.
