 Gaussian 16, Revision A.03,
 Gaussian 16:  ES64L-G16RevA.03 25-Dec-2016

 ----------------------------------------------------------------------
 #P Opt(MaxCyc=100) B97D3/6-31G* 5D 7F Integral=UltraFineGrid SCF=(NoSy
 mm,XQC,MaxCyc=120) IOp(1/33=1)
 ----------------------------------------------------------------------

 TstMul:  Mul=     1
 TstMul:  ICh=     0
 TstMul:  Mul=     1
 Symbolic Z-matrix:
 Charge =  0 Multiplicity = 1

 SCF Done:  E(RB97D3) =  -195.175154905     A.U. after   14 cycles
 SCF Done:  E(RB97D3) =  -195.176140180     A.U. after   12 cycles
 SCF Done:  E(RB97D3) =  -195.176161368     A.U. after   11 cycles
 SCF Done:  E(RB97D3) =  -195.176163159     A.U. after    8 cycles
 Optimization completed.
    -- Stationary point found.

                         Standard orientation:
 ---------------------------------------------------------------------
 Center     Atomic      Atomic             Coordinates (Angstroms)
 Number     Number       Type             X           Y           Z
 ---------------------------------------------------------------------
      1          6           0       -2.074669   -0.609694    0.000001
      2          6           0       -1.239922    0.639934    0.000050
      3          6           0        0.111797    0.731056    0.000034
      4          6           0        1.063876   -0.369494   -0.000035
      5          6           0        2.403852   -0.202109   -0.000044
      6          1           0       -2.735035   -0.637779    0.883232
      7          1           0       -2.735068   -0.637688   -0.883208
      8          1           0       -1.474274   -1.527906   -0.000058
      9          1           0       -1.806798    1.576182    0.000104
     10          1           0        0.555134    1.732186    0.000076
     11          1           0        0.664090   -1.386808   -0.000080
     12          1           0        3.089183   -1.050110   -0.000096
     13          1           0        2.853156    0.793766   -0.000000
 ---------------------------------------------------------------------

 The electronic state is 1-A.
 Alpha  occ. eigenvalues --   -9.91077  -9.90902  -9.90451  -9.90393  -9.89919
 Alpha  occ. eigenvalues --   -0.72854  -0.67880  -0.61310  -0.52887  -0.47179
 Alpha  occ. eigenvalues --   -0.42078  -0.39243  -0.36319  -0.35231  -0.33162
 Alpha  occ. eigenvalues --   -0.32000  -0.28723  -0.26830  -0.18592
 Alpha virt. eigenvalues --   -0.04321   0.05754   0.08385   0.08989   0.11375
 Alpha virt. eigenvalues --    0.14075   0.14894   0.15178   0.16979   0.20224
 Alpha virt. eigenvalues --    0.22673   0.30286   0.35040   0.40311   0.44812

 Mulliken charges:
               1
     1  C   -0.502545
     2  C   -0.117235
     3  C   -0.118430
     4  C   -0.061366
     5  C   -0.364003
     6  H    0.164727
     7  H    0.164727
     8  H    0.162714
     9  H    0.131212
    10  H    0.123785
    11  H    0.128046
    12  H    0.145050
    13  H    0.143318
 Sum of Mulliken charges =   0.00000

 Dipole moment (field-independent basis, Debye):
    X=             -0.5348    Y=             -0.1403    Z=              0.0000  Tot=              0.5529
 Quadrupole moment (field-independent basis, Debye-Ang):
   XX=            -28.7638   YY=            -29.3062   ZZ=            -34.0822
   XY=              0.0781   XZ=             -0.0001   YZ=              0.0002

 Normal termination of Gaussian 16 at Wed Oct  7 14:01:21 2020.
