 Gaussian 16, Revision A.03,

 ----------------------------------------------------------------------
 #P Opt(TS,MaxCyc=50,NoEigenTest,MaxStep=10,AddRedundant) B97D3/6-31G*
 5D 7F Integral=UltraFineGrid SCF=(NoSymm,XQC,MaxCyc=120) IOp(1/33=1)
 ----------------------------------------------------------------------

 TstMul:  Mul=     2
 TstMul:  ICh=     0
 TstMul:  Mul=     2
 Symbolic Z-matrix:
 Charge =  0 Multiplicity = 2

 SCF Done:  E(UB97D3) =  -118.344331415     A.U. after   16 cycles
 SCF Done:  E(UB97D3) =  -118.345816461     A.U. after   15 cycles
 SCF Done:  E(UB97D3) =  -118.344864043     A.U. after   14 cycles
 SCF Done:  E(UB97D3) =  -118.344237132     A.U. after   14 cycles
 SCF Done:  E(UB97D3) =  -118.343904917     A.U. after   15 cycles
 SCF Done:  E(UB97D3) =  -118.343808750     A.U. after   16 cycles
 SCF Done:  E(UB97D3) =  -118.343806004     A.U. after   11 cycles
 SCF Done:  E(UB97D3) =  -118.343806944     A.U. after    9 cycles
 SCF Done:  E(UB97D3) =  -118.343816170     A.U. after   13 cycles
 SCF Done:  E(UB97D3) =  -118.343820198     A.U. after   10 cycles
 SCF Done:  E(UB97D3) =  -118.343825653     A.U. after   11 cycles
 SCF Done:  E(UB97D3) =  -118.343827891     A.U. after   10 cycles
 SCF Done:  E(UB97D3) =  -118.343829037     A.U. after   10 cycles
 SCF Done:  E(UB97D3) =  -118.343829380     A.U. after   10 cycles
 SCF Done:  E(UB97D3) =  -118.343829553     A.U. after   10 cycles
 Optimization completed.
    -- Stationary point found.
 Normal termination of Gaussian 16 at Wed Oct  7 14:04:05 2020.
 Gaussian 16:  ES64L-G16RevA.03 25-Dec-2016

 ----------------------------------------------------------------------
 #P Freq B97D3/6-31G* 5D 7F Integral=UltraFineGrid SCF=(NoSymm,XQC,MaxC
 yc=120) IOp(1/33=1) Geom=Check Guess=Read
 ----------------------------------------------------------------------

 TstMul:  Mul=     2
 TstMul:  ICh=     0
 TstMul:  Mul=     2
 Structure from the checkpoint file:  "MN_17_c3h7ts_BH76_B97DBJ_631Gs.chk"
 Charge =  0 Multiplicity = 2

                         Standard orientation:
 ---------------------------------------------------------------------
 Center     Atomic      Atomic             Coordinates (Angstroms)
 Number     Number       Type             X           Y           Z
 ---------------------------------------------------------------------
      1          6           0       -0.541187    0.651026    0.000058
      2          6           0       -1.426309   -0.379500   -0.000035
      3          1           0       -0.274706    1.164325   -0.924543
      4          1           0       -0.274313    1.163835    0.924816
      5          1           0       -1.772684   -0.836712    0.928416
      6          1           0       -1.773074   -0.836162   -0.928612
      7          6           0        1.714625   -0.233060   -0.000054
      8          1           0        2.266558    0.706056   -0.015133
      9          1           0        1.668288   -0.808398   -0.922134
     10          1           0        1.677152   -0.783745    0.937379
 ---------------------------------------------------------------------

 SCF Done:  E(UB97D3) =  -118.343829553     A.U. after    1 cycles

 The electronic state is 2-A.
 Alpha  occ. eigenvalues --   -9.90762  -9.90151  -9.89780  -0.67919  -0.60702
 Alpha  occ. eigenvalues --   -0.51584  -0.40834  -0.36663  -0.35787  -0.35281
 Alpha  occ. eigenvalues --   -0.30549  -0.24689  -0.14949
 Alpha virt. eigenvalues --    0.00568   0.08308   0.11722   0.11967   0.14447
 Alpha virt. eigenvalues --    0.15964   0.16021   0.22353   0.30065   0.43629
 Alpha virt. eigenvalues --    0.50266   0.51037   0.52772   0.57206   0.57238

  Beta  occ. eigenvalues --   -9.90813  -9.89772  -9.89647  -0.67344  -0.57452
  Beta  occ. eigenvalues --   -0.51108  -0.40608  -0.36010  -0.34547  -0.34370
  Beta  occ. eigenvalues --   -0.30377  -0.22716
  Beta virt. eigenvalues --   -0.07396   0.02231   0.09048   0.12055   0.12600
  Beta virt. eigenvalues --    0.14766   0.16935   0.16971   0.22508   0.30291
  Beta virt. eigenvalues --    0.44087   0.50661   0.52387   0.54399   0.57619

 Mulliken charges and spin densities:
               1          2
     1  C   -0.273109  -0.161594
     2  C   -0.303431   0.377940
     3  H    0.152949   0.008923
     4  H    0.152969   0.008920
     5  H    0.142471  -0.019977
     6  H    0.142463  -0.019979
     7  C   -0.494769   0.933374
     8  H    0.155886  -0.041471
     9  H    0.162361  -0.043068
    10  H    0.162210  -0.043069
 Sum of Mulliken charges =  -0.00000   1.00000

 Dipole moment (field-independent basis, Debye):
    X=              0.1963    Y=              0.0628    Z=              0.0002  Tot=              0.2061
 Quadrupole moment (field-independent basis, Debye-Ang):
   XX=            -21.9378   YY=            -20.2824   ZZ=            -19.1980
   XY=              1.4236   XZ=              0.0005   YZ=             -0.0002

  Exact polarizability:  53.679   7.048  32.416  -0.001  -0.004  31.419
 Approx polarizability:  96.199  18.289  52.512   0.001  -0.004  45.747

 ******    1 imaginary frequencies (negative Signs) ******

                      1                      2                      3
                      A                      A                      A
 Frequencies --   -288.9967                84.6554               202.5026
 Red. masses --      8.9444                 1.0899                 2.4860
 Frc consts  --      0.4401                 0.0046                 0.0601
 IR Inten    --      0.5874                 0.0065                 0.8189

                      4                      5                      6
                      A                      A                      A
 Frequencies --    328.4586               439.4079               460.1182
 Red. masses --      1.0598                 1.1106                 1.0908
 Frc consts  --      0.0674                 0.1263                 0.1361
 IR Inten    --      0.2022                 1.7621                 0.9736

                      7                      8                      9
                      A                      A                      A
 Frequencies --    732.7010               812.1745               834.9687
 Red. masses --      1.0787                 1.0430                 1.4265
 Frc consts  --      0.3412                 0.4053                 0.5860
 IR Inten    --      7.1335                 0.7866                30.9873

                     10                     11                     12
                      A                      A                      A
 Frequencies --    912.6502              1008.5727              1222.5324
 Red. masses --      1.1508                 1.0183                 1.4969
 Frc consts  --      0.5647                 0.6103                 1.3182
 IR Inten    --     46.2656                 0.0799                 0.0360

                     13                     14                     15
                      A                      A                      A
 Frequencies --   1315.0947              1415.8582              1421.5076
 Red. masses --      1.5393                 1.0961                 1.0953
 Frc consts  --      1.5685                 1.2946                 1.3041
 IR Inten    --      0.7632                 1.7769                 1.4660

                     16                     17                     18
                      A                      A                      A
 Frequencies --   1460.8843              1594.8728              3077.1905
 Red. masses --      1.1132                 2.0376                 1.0117
 Frc consts  --      1.3998                 3.0537                 5.6443
 IR Inten    --      3.4517                 0.1547                 0.4182

                     19                     20                     21
                      A                      A                      A
 Frequencies --   3100.9251              3112.2856              3173.6503
 Red. masses --      1.0486                 1.0648                 1.1146
 Frc consts  --      5.9410                 6.0767                 6.6146
 IR Inten    --     20.7534                 1.7965                 1.0384

                     22                     23                     24
                      A                      A                      A
 Frequencies --   3200.8688              3235.4787              3246.6230
 Red. masses --      1.1179                 1.1158                 1.1161
 Frc consts  --      6.7484                 6.8818                 6.9311
 IR Inten    --     34.1406                13.7998                14.6757

 - Thermochemistry -
 -------------------
 Temperature   298.150 Kelvin.  Pressure   1.00000 Atm.
 Atom     1 has atomic number  6 and mass  12.00000

 Molecular mass:    43.05478 amu.
 Principal axes and moments of inertia in atomic units:
                           1         2         3
     Eigenvalues --    66.30528 305.98753 335.12528
           X            0.99983   0.01857   0.00001
           Y           -0.01857   0.99983  -0.00005
           Z           -0.00001   0.00005   1.00000
 This molecule is an asymmetric top.
 Rotational symmetry number  1.
 Rotational temperatures (Kelvin)      1.30629     0.28306     0.25845
 Rotational constants (GHZ):          27.21866     5.89809     5.38527
    1 imaginary frequencies ignored.
 Zero-point vibrational energy     217684.4 (Joules/Mol)
                                   52.02781 (Kcal/Mol)
 Warning -- explicit consideration of   5 degrees of freedom as
           vibrations may cause significant error
 Vibrational temperatures:    121.80   291.36   472.58   632.21   662.01
          (Kelvin)           1054.19  1168.54  1201.33  1313.10  1451.11
                             1758.95  1892.13  2037.10  2045.23  2101.89
                             2294.67  4427.39  4461.54  4477.88  4566.17
                             4605.34  4655.13  4671.17

 Zero-point correction=                           0.082912 (Hartree/Particle)
 Thermal correction to Energy=                    0.088359
 Thermal correction to Enthalpy=                  0.089303
 Thermal correction to Gibbs Free Energy=         0.055208
 Sum of electronic and zero-point Energies=           -118.260918
 Sum of electronic and thermal Energies=              -118.255470
 Sum of electronic and thermal Enthalpies=            -118.254526
 Sum of electronic and thermal Free Energies=         -118.288621

                     E (Thermal)             CV                S
                      KCal/Mol        Cal/Mol-Kelvin    Cal/Mol-Kelvin
 Total                   55.446             17.614             71.759
 Electronic               0.000              0.000              1.377
 Translational            0.889              2.981             37.206
 Rotational               0.889              2.981             23.435
 Vibrational             53.669             11.652              9.741
 Vibration     1          0.601              1.960              3.780
 Vibration     2          0.639              1.836              2.110
 Vibration     3          0.712              1.619              1.268
 Vibration     4          0.799              1.384              0.828
 Vibration     5          0.818              1.339              0.766

                           ! Non-Optimized Parameters !

 1\1\GINC-NODE27\Freq\UB97D3\6-31G(d)\C3H7(2)\RPEVERATI\07-Oct-2020\0\\
 #P Freq B97D3/6-31G* 5D 7F Integral=UltraFineGrid SCF=(NoSymm,XQC,MaxC
 yc=120) IOp(1/33=1) Geom=Check Guess=Read\\TS search on BH76.\\0,2\C,-
 0.5363257243,0.6600740839,0.0020659664\C,-1.4365074506,-0.3573148712,-
 0.0021554935\H,-0.2617809069,1.1726650781,-0.92056576\H,-0.2624822982,
 1.1656267459,0.9287797825\H,-1.7901147164,-0.8126643147,0.9244824065\H
 ,-1.7894057668,-0.8055387795,-0.9325310412\C,1.7062402231,-0.257091017
 8,0.0000274043\H,2.2719334074,0.6738521869,-0.0114248633\H,1.651987837

 Normal termination of Gaussian 16 at Wed Oct  7 14:04:58 2020.
