 Gaussian 16, Revision A.03,
 Gaussian 16:  ES64L-G16RevA.03 25-Dec-2016

 ----------------------------------------------------------------------
 #P Opt(MaxCyc=100) B97D3/6-31G* 5D 7F Integral=UltraFineGrid SCF=(NoSy
 mm,XQC,MaxCyc=120) IOp(1/33=1)
 ----------------------------------------------------------------------

 TstMul:  Mul=     2
 TstMul:  ICh=     0
 TstMul:  Mul=     2
 Symbolic Z-matrix:
 Charge =  0 Multiplicity = 2

 SCF Done:  E(UB97D3) =  -79.1030075265     A.U. after   13 cycles
 SCF Done:  E(UB97D3) =  -79.1034283560     A.U. after   11 cycles
 SCF Done:  E(UB97D3) =  -79.1034352868     A.U. after    9 cycles
 Optimization completed.
    -- Stationary point found.

                         Standard orientation:
 ---------------------------------------------------------------------
 Center     Atomic      Atomic             Coordinates (Angstroms)
 Number     Number       Type             X           Y           Z
 ---------------------------------------------------------------------
      1          6           0       -0.010993   -0.695050    0.000000
      2          6           0       -0.010993    0.796600   -0.000000
      3          1           0        1.017606   -1.113020    0.000000
      4          1           0       -0.511587   -1.104094    0.892070
      5          1           0       -0.511587   -1.104094   -0.892070
      6          1           0        0.068743    1.355955   -0.932266
      7          1           0        0.068743    1.355955    0.932266
 ---------------------------------------------------------------------

 The electronic state is 2-A'.
 Alpha  occ. eigenvalues --   -9.90327  -9.90133  -0.68001  -0.54302  -0.39653
 Alpha  occ. eigenvalues --   -0.35903  -0.34163  -0.30980  -0.15440
 Alpha virt. eigenvalues --    0.09682   0.11762   0.12304   0.15442   0.19683
 Alpha virt. eigenvalues --    0.22869   0.48622   0.51171   0.52462   0.57798
 Alpha virt. eigenvalues --    0.58845   0.70931   0.74647   0.82064   0.82820

  Beta  occ. eigenvalues --   -9.90167  -9.89895  -0.66264  -0.51884  -0.38773
  Beta  occ. eigenvalues --   -0.34904  -0.33002  -0.30393
  Beta virt. eigenvalues --   -0.06606   0.09890   0.12578   0.13084   0.15615
  Beta virt. eigenvalues --    0.20361   0.23926   0.48862   0.51182   0.56154
  Beta virt. eigenvalues --    0.58873   0.59997   0.71256   0.75969   0.82169

 Mulliken charges and spin densities:
               1          2
     1  C   -0.460419  -0.057026
     2  C   -0.317183   1.087629
     3  H    0.159527   0.053059
     4  H    0.159249   0.012077
     5  H    0.159249   0.012077
     6  H    0.149789  -0.053908
     7  H    0.149789  -0.053908
 Sum of Mulliken charges =  -0.00000   1.00000

 Dipole moment (field-independent basis, Debye):
    X=              0.1285    Y=             -0.2348    Z=              0.0000  Tot=              0.2676
 Quadrupole moment (field-independent basis, Debye-Ang):
   XX=            -14.8655   YY=            -13.9088   ZZ=            -13.3569
   XY=              0.1761   XZ=             -0.0000   YZ=             -0.0000

 1\1\GINC-NODE27\FOpt\UB97D3\6-31G(d)\C2H5(2)\RPEVERATI\07-Oct-2020\0\\
 #P Opt(MaxCyc=100) B97D3/6-31G* 5D 7F Integral=UltraFineGrid SCF=(NoSy
 mm,XQC,MaxCyc=120) IOp(1/33=1)\\TS search on BH76.\\0,2\C,-0.011336981
 8,-0.6934733349,0.\C,-0.011944783,0.7981771622,0.\H,1.0174328221,-1.11
 10236789,0.\H,-0.5117639733,-1.1027204437,0.8920696593\H,-0.5117639733
 ,-1.1027204437,-0.8920696593\H,0.0675633552,1.3575639634,-0.9322657172
 \H,0.0675633552,1.3575639634,0.9322657172\\Version=ES64L-G16RevA.03\St
 ate=2-A'\HF=-79.1034353\S2=0.755094\S2-1=0.\S2A=0.750017\RMSD=1.323e-0

 Normal termination of Gaussian 16 at Wed Oct  7 13:59:24 2020.
