 Gaussian 16, Revision A.03,
 Gaussian 16:  ES64L-G16RevA.03 25-Dec-2016

 ----------------------------------------------------------------------
 #P Opt(MaxCyc=100) B97D3/6-31G* 5D 7F Integral=UltraFineGrid SCF=(NoSy
 mm,XQC,MaxCyc=120) IOp(1/33=1)
 ----------------------------------------------------------------------

 TstMul:  Mul=     1
 TstMul:  ICh=     0
 TstMul:  Mul=     1
 Symbolic Z-matrix:
 Charge =  0 Multiplicity = 1

 SCF Done:  E(RB97D3) =  -139.657891618     A.U. after   11 cycles
 SCF Done:  E(RB97D3) =  -139.658400175     A.U. after   10 cycles
 SCF Done:  E(RB97D3) =  -139.658405775     A.U. after    7 cycles
 Optimization completed.
    -- Stationary point found.

                         Standard orientation:
 ---------------------------------------------------------------------
 Center     Atomic      Atomic             Coordinates (Angstroms)
 Number     Number       Type             X           Y           Z
 ---------------------------------------------------------------------
      1          6           0        0.000000    0.000000   -0.632751
      2          9           0        0.000000    0.000000    0.756095
      3          1           0        0.000000    1.037822   -1.002782
      4          1           0        0.898780   -0.518911   -1.002782
      5          1           0       -0.898780   -0.518911   -1.002782
 ---------------------------------------------------------------------

 The electronic state is 1-A1.
 Alpha  occ. eigenvalues --  -24.22445  -9.97380  -1.07198  -0.62610  -0.42051
 Alpha  occ. eigenvalues --   -0.41189  -0.41189  -0.27500  -0.27500
 Alpha virt. eigenvalues --    0.08313   0.10081   0.14067   0.14067   0.48202
 Alpha virt. eigenvalues --    0.52576   0.52576   0.79459   0.79459   0.81429
 Alpha virt. eigenvalues --    0.94266   1.19939   1.20305   1.20305   1.45662

 Mulliken charges:
               1
     1  C   -0.104473
     2  F   -0.327266
     3  H    0.143913
     4  H    0.143913
     5  H    0.143913
 Sum of Mulliken charges =  -0.00000

 Dipole moment (field-independent basis, Debye):
    X=              0.0000    Y=              0.0000    Z=             -1.6621  Tot=              1.6621
 Quadrupole moment (field-independent basis, Debye-Ang):
   XX=            -11.6638   YY=            -11.6638   ZZ=            -11.9145
   XY=             -0.0000   XZ=             -0.0000   YZ=             -0.0000

 Normal termination of Gaussian 16 at Wed Oct  7 14:00:36 2020.
