 Gaussian 16, Revision A.03,
 Gaussian 16:  ES64L-G16RevA.03 25-Dec-2016

 ----------------------------------------------------------------------
 #P Opt(MaxCyc=100) B97D3/6-31G* 5D 7F Integral=UltraFineGrid SCF=(NoSy
 mm,XQC,MaxCyc=120) IOp(1/33=1)
 ----------------------------------------------------------------------

 TstMul:  Mul=     2
 TstMul:  ICh=     0
 TstMul:  Mul=     2
 Symbolic Z-matrix:
 Charge =  0 Multiplicity = 2

 SCF Done:  E(UB97D3) =  -39.8104281489     A.U. after   11 cycles
 SCF Done:  E(UB97D3) =  -39.8106378426     A.U. after    9 cycles
 Optimization completed.
    -- Stationary point found.

                         Standard orientation:
 ---------------------------------------------------------------------
 Center     Atomic      Atomic             Coordinates (Angstroms)
 Number     Number       Type             X           Y           Z
 ---------------------------------------------------------------------
      1          6           0        0.000000    0.000000    0.000000
      2          1           0        0.000000    1.087911    0.000000
      3          1           0        0.942159   -0.543956    0.000000
      4          1           0       -0.942159   -0.543956    0.000000
 ---------------------------------------------------------------------

 The electronic state is 2-A2".
 Alpha  occ. eigenvalues --   -9.90812  -0.61538  -0.37022  -0.37022  -0.18076
 Alpha virt. eigenvalues --    0.09208   0.15661   0.15661   0.51169   0.51965
 Alpha virt. eigenvalues --    0.51965   0.64598   0.85764   0.85764   0.91115
 Alpha virt. eigenvalues --    1.57382   1.57382   1.92876   2.09741   2.09741
  Beta  occ. eigenvalues --   -9.90366  -0.57460  -0.35573  -0.35573
  Beta virt. eigenvalues --   -0.08832   0.11193   0.16626   0.16626   0.51982
  Beta virt. eigenvalues --    0.51982   0.55737   0.65557   0.86894   0.86894
  Beta virt. eigenvalues --    0.93886   1.66440   1.66440   2.05250   2.11513

 Mulliken charges and spin densities:
               1          2
     1  C   -0.511499   1.157462
     2  H    0.170500  -0.052487
     3  H    0.170500  -0.052487
     4  H    0.170500  -0.052487
 Sum of Mulliken charges =  -0.00000   1.00000

 Dipole moment (field-independent basis, Debye):
    X=             -0.0000    Y=              0.0000    Z=              0.0000  Tot=              0.0000
 Quadrupole moment (field-independent basis, Debye-Ang):
   XX=             -6.9772   YY=             -6.9772   ZZ=             -8.6196
   XY=             -0.0000   XZ=              0.0000   YZ=             -0.0000

 1\1\GINC-NODE51\FOpt\UB97D3\6-31G(d)\C1H3(2)\RPEVERATI\07-Oct-2020\0\\
 #P Opt(MaxCyc=100) B97D3/6-31G* 5D 7F Integral=UltraFineGrid SCF=(NoSy
 mm,XQC,MaxCyc=120) IOp(1/33=1)\\TS search on BH76.\\0,2\C,0.,0.,0.\H,0
 .543955573,0.9421586895,0.\H,0.543955573,-0.9421586895,0.\H,-1.0879111
 46,0.,0.\\Version=ES64L-G16RevA.03\State=2-A2"\HF=-39.8106378\S2=0.755
 298\S2-1=0.\S2A=0.750017\RMSD=9.848e-10\RMSF=1.111e-04\Dipole=0.,0.,0.
 \Quadrupole=0.4070315,0.4070315,-0.814063,0.,0.,0.\PG=D03H [O(C1),3C2(
 H1)]\\@

 Normal termination of Gaussian 16 at Wed Oct  7 14:00:30 2020.
