 Gaussian 16, Revision A.03,
 Gaussian 16:  ES64L-G16RevA.03 25-Dec-2016

 ----------------------------------------------------------------------
 #P Opt(MaxCyc=100) B97D3/6-31G* 5D 7F Integral=UltraFineGrid SCF=(NoSy
 mm,XQC,MaxCyc=120) IOp(1/33=1)
 ----------------------------------------------------------------------

 TstMul:  Mul=     1
 TstMul:  ICh=     0
 TstMul:  Mul=     1
 Symbolic Z-matrix:
 Charge =  0 Multiplicity = 1

 SCF Done:  E(RB97D3) =  -115.644037859     A.U. after   11 cycles
 SCF Done:  E(RB97D3) =  -115.644732112     A.U. after   11 cycles
 SCF Done:  E(RB97D3) =  -115.644740176     A.U. after    7 cycles
 Optimization completed.
    -- Stationary point found.

                         Standard orientation:
 ---------------------------------------------------------------------
 Center     Atomic      Atomic             Coordinates (Angstroms)
 Number     Number       Type             X           Y           Z
 ---------------------------------------------------------------------
      1          6           0       -0.047155    0.662722    0.000000
      2          8           0       -0.047155   -0.761180    0.000000
      3          1           0       -1.099751    0.975903    0.000000
      4          1           0        0.882466   -1.046875    0.000000
      5          1           0        0.438725    1.092041    0.897416
      6          1           0        0.438725    1.092041   -0.897416
 ---------------------------------------------------------------------

 The electronic state is 1-A'.
 Alpha  occ. eigenvalues --  -18.75583  -9.94402  -0.92296  -0.61103  -0.44771
 Alpha  occ. eigenvalues --   -0.37916  -0.36729  -0.28083  -0.21125
 Alpha virt. eigenvalues --    0.05588   0.10973   0.14102   0.15069   0.17261
 Alpha virt. eigenvalues --    0.49784   0.54250   0.55166   0.73609   0.80047
 Alpha virt. eigenvalues --    0.81939   0.84664   0.92824   0.95212   0.98819

 Mulliken charges:
               1
     1  C   -0.212826
     2  O   -0.606332
     3  H    0.163775
     4  H    0.392666
     5  H    0.131358
     6  H    0.131358
 Sum of Mulliken charges =  -0.00000

 Dipole moment (field-independent basis, Debye):
    X=              1.4072    Y=              0.8530    Z=              0.0000  Tot=              1.6456
 Quadrupole moment (field-independent basis, Debye-Ang):
   XX=            -11.4879   YY=            -12.9788   ZZ=            -13.5589
   XY=             -2.0919   XZ=             -0.0000   YZ=             -0.0000

 Normal termination of Gaussian 16 at Wed Oct  7 14:00:39 2020.
