 Gaussian 16, Revision A.03,
 Gaussian 16:  ES64L-G16RevA.03 25-Dec-2016

 ----------------------------------------------------------------------
 #P Opt(MaxCyc=100) B97D3/6-31G* 5D 7F Integral=UltraFineGrid SCF=(NoSy
 mm,XQC,MaxCyc=120) IOp(1/33=1)
 ----------------------------------------------------------------------

 TstMul:  Mul=     1
 TstMul:  ICh=    -1
 TstMul:  Mul=     1
 Symbolic Z-matrix:
 Charge = -1 Multiplicity = 1

 SCF Done:  E(RB97D3) =  -960.370084169     A.U. after   13 cycles
 SCF Done:  E(RB97D3) =  -960.371071375     A.U. after   11 cycles
 SCF Done:  E(RB97D3) =  -960.371363721     A.U. after   12 cycles
 SCF Done:  E(RB97D3) =  -960.371593345     A.U. after   13 cycles
 SCF Done:  E(RB97D3) =  -960.371697820     A.U. after   12 cycles
 SCF Done:  E(RB97D3) =  -960.371709264     A.U. after    9 cycles
 Optimization completed.
    -- Stationary point found.

                         Standard orientation:
 ---------------------------------------------------------------------
 Center     Atomic      Atomic             Coordinates (Angstroms)
 Number     Number       Type             X           Y           Z
 ---------------------------------------------------------------------
      1         17           0        0.000000    0.000000   -2.364663
      2          6           0        0.000000    0.000000   -0.457840
      3          1           0       -0.000000    1.039995   -0.136014
      4          1           0       -0.900662   -0.519997   -0.136014
      5          1           0        0.900662   -0.519997   -0.136014
      6         17           0        0.000000    0.000000    2.550257
 ---------------------------------------------------------------------

 The electronic state is 1-A1.
 Alpha  occ. eigenvalues -- -100.48175-100.33240  -9.80235  -9.06163  -8.90752
 Alpha  occ. eigenvalues --   -6.89960  -6.88968  -6.88968  -6.74028  -6.73891
 Alpha  occ. eigenvalues --   -6.73891  -0.60250  -0.45759  -0.40719  -0.23386
 Alpha  occ. eigenvalues --   -0.23386  -0.20308  -0.11149  -0.11149   0.00925
 Alpha  occ. eigenvalues --    0.01375   0.01375
 Alpha virt. eigenvalues --    0.13222   0.24926   0.28961   0.28961   0.50460
 Alpha virt. eigenvalues --    0.55457   0.56336   0.56336   0.58949   0.63725
 Alpha virt. eigenvalues --    0.63725   0.68089   0.68912   0.68912   0.89725

 Mulliken charges:
               1
     1  Cl  -0.276432
     2  C   -0.470458
     3  H    0.210063
     4  H    0.210063
     5  H    0.210063
     6  Cl  -0.883300
 Sum of Mulliken charges =  -1.00000

 Dipole moment (field-independent basis, Debye):
    X=              0.0000    Y=             -0.0000    Z=             -6.7453  Tot=              6.7453
 Quadrupole moment (field-independent basis, Debye-Ang):
   XX=            -35.2910   YY=            -35.2910   ZZ=            -73.1841
   XY=             -0.0000   XZ=             -0.0000   YZ=              0.0000

 Normal termination of Gaussian 16 at Wed Oct  7 14:01:54 2020.
