 Gaussian 16, Revision A.03,
 Gaussian 16:  ES64L-G16RevA.03 25-Dec-2016

 ----------------------------------------------------------------------
 #P Opt(MaxCyc=100) B97D3/6-31G* 5D 7F Integral=UltraFineGrid SCF=(NoSy
 mm,XQC,MaxCyc=120) IOp(1/33=1)
 ----------------------------------------------------------------------

 TstMul:  Mul=     1
 TstMul:  ICh=     0
 TstMul:  Mul=     1
 Symbolic Z-matrix:
 Charge =  0 Multiplicity = 1

 SCF Done:  E(RB97D3) =  -40.4912590268     A.U. after    8 cycles
 SCF Done:  E(RB97D3) =  -40.4915137212     A.U. after    5 cycles
 Optimization completed.
    -- Stationary point found.

                         Standard orientation:
 ---------------------------------------------------------------------
 Center     Atomic      Atomic             Coordinates (Angstroms)
 Number     Number       Type             X           Y           Z
 ---------------------------------------------------------------------
      1          6           0        0.000000    0.000000    0.000000
      2          1           0        0.633684    0.633684    0.633684
      3          1           0       -0.633684   -0.633684    0.633684
      4          1           0        0.633684   -0.633684   -0.633684
      5          1           0       -0.633684    0.633684   -0.633684
 ---------------------------------------------------------------------

 The electronic state is 1-A1.
 Alpha  occ. eigenvalues --   -9.88636  -0.62165  -0.34090  -0.34090  -0.34090
 Alpha virt. eigenvalues --    0.09980   0.15243   0.15243   0.15243   0.50686
 Alpha virt. eigenvalues --    0.50686   0.50686   0.84791   0.84791   0.84791
 Alpha virt. eigenvalues --    0.88358   1.06800   1.58577   1.58577   2.15883

 Mulliken charges:
               1
     1  C   -0.648528
     2  H    0.162132
     3  H    0.162132
     4  H    0.162132
     5  H    0.162132
 Sum of Mulliken charges =  -0.00000

 Dipole moment (field-independent basis, Debye):
    X=              0.0000    Y=              0.0000    Z=              0.0000  Tot=              0.0000
 Quadrupole moment (field-independent basis, Debye-Ang):
   XX=             -8.2142   YY=             -8.2142   ZZ=             -8.2142
   XY=             -0.0000   XZ=             -0.0000   YZ=             -0.0000

 Normal termination of Gaussian 16 at Wed Oct  7 14:00:50 2020.
