 Gaussian 16, Revision A.03,

 ----------------------------------------------------------------------
 #P Opt(TS,MaxCyc=50,NoEigenTest,MaxStep=10,AddRedundant) B97D3/6-31G*
 5D 7F Integral=UltraFineGrid SCF=(NoSymm,XQC,MaxCyc=120) IOp(1/33=1)
 ----------------------------------------------------------------------

 TstMul:  Mul=     1
 TstMul:  ICh=    -1
 TstMul:  Mul=     1
 Symbolic Z-matrix:
 Charge = -1 Multiplicity = 1

 SCF Done:  E(RB97D3) =  -960.364493219     A.U. after   13 cycles
 SCF Done:  E(RB97D3) =  -960.365152013     A.U. after   11 cycles
 SCF Done:  E(RB97D3) =  -960.365381095     A.U. after   12 cycles
 SCF Done:  E(RB97D3) =  -960.365462314     A.U. after   12 cycles
 SCF Done:  E(RB97D3) =  -960.365471511     A.U. after    8 cycles
 SCF Done:  E(RB97D3) =  -960.365470894     A.U. after    7 cycles
 Optimization completed.
    -- Stationary point found.
 Normal termination of Gaussian 16 at Wed Oct  7 14:02:12 2020.
 Gaussian 16:  ES64L-G16RevA.03 25-Dec-2016

 ----------------------------------------------------------------------
 #P Freq B97D3/6-31G* 5D 7F Integral=UltraFineGrid SCF=(NoSymm,XQC,MaxC
 yc=120) IOp(1/33=1) Geom=Check Guess=Read
 ----------------------------------------------------------------------

 TstMul:  Mul=     1
 TstMul:  ICh=    -1
 TstMul:  Mul=     1
 Structure from the checkpoint file:  "MN_28_clch3clts_BH76_B97DBJ_631Gs.chk"
 Charge = -1 Multiplicity = 1

                         Standard orientation:
 ---------------------------------------------------------------------
 Center     Atomic      Atomic             Coordinates (Angstroms)
 Number     Number       Type             X           Y           Z
 ---------------------------------------------------------------------
      1         17           0        2.388712    0.000002   -0.000033
      2          6           0       -0.010743   -0.000008    0.000119
      3          1           0       -0.002642    0.923436   -0.557990
      4          1           0       -0.002670   -0.945095   -0.520503
      5          1           0       -0.002632    0.021636    1.078907
      6         17           0       -2.384452    0.000002   -0.000033
 ---------------------------------------------------------------------

 SCF Done:  E(RB97D3) =  -960.365470894     A.U. after    1 cycles

 The electronic state is 1-A.
 Alpha  occ. eigenvalues -- -100.40221-100.39834  -9.80630  -8.97912  -8.97514
 Alpha  occ. eigenvalues --   -6.81448  -6.81034  -6.80896  -6.80896  -6.80506
 Alpha  occ. eigenvalues --   -6.80506  -0.50984  -0.48129  -0.43897  -0.23419
 Alpha  occ. eigenvalues --   -0.23418  -0.11509  -0.04972  -0.04972  -0.04356
 Alpha  occ. eigenvalues --   -0.04299  -0.04299
 Alpha virt. eigenvalues --    0.10635   0.23630   0.30116   0.30117   0.54328
 Alpha virt. eigenvalues --    0.54752   0.60590   0.60591   0.61227   0.61227
 Alpha virt. eigenvalues --    0.66429   0.69818   0.69818   0.69961   0.83552

 Mulliken charges:
               1
     1  Cl  -0.635109
     2  C   -0.385192
     3  H    0.213274
     4  H    0.213273
     5  H    0.213254
     6  Cl  -0.619500
 Sum of Mulliken charges =  -1.00000

 Dipole moment (field-independent basis, Debye):
    X=             -0.1702    Y=             -0.0000    Z=              0.0003  Tot=              0.1702
 Quadrupole moment (field-independent basis, Debye-Ang):
   XX=            -72.0861   YY=            -35.2273   ZZ=            -35.2275
   XY=              0.0000   XZ=              0.0000   YZ=             -0.0000

  Exact polarizability: 102.891   0.000  22.656   0.000   0.000  22.656
 Approx polarizability: 222.487   0.000  32.344   0.000   0.000  32.343

 ******    1 imaginary frequencies (negative Signs) ******

                      1                      2                      3
                      A                      A                      A
 Frequencies --   -260.0358               186.4113               186.4764
 Red. masses --     13.2164                 4.3493                 4.3495
 Frc consts  --      0.5265                 0.0890                 0.0891
 IR Inten    --    749.9787                12.5277                12.5272

                      4                      5                      6
                      A                      A                      A
 Frequencies --    191.2198               892.3389               893.2478
 Red. masses --     34.9457                 1.0123                 1.0123
 Frc consts  --      0.7529                 0.4749                 0.4759
 IR Inten    --      0.0015                 0.0024                 0.0001

                      7                      8                      9
                      A                      A                      A
 Frequencies --    978.0036              1397.7027              1397.7995
 Red. masses --      1.0440                 1.1046                 1.1046
 Frc consts  --      0.5883                 1.2714                 1.2715
 IR Inten    --     55.4196                 4.3156                 4.3160

                     10                     11                     12
                      A                      A                      A
 Frequencies --   3169.9006              3365.1546              3365.2628
 Red. masses --      1.0078                 1.1228                 1.1228
 Frc consts  --      5.9667                 7.4914                 7.4918
 IR Inten    --      0.0085                 0.0976                 0.0980

 - Thermochemistry -
 -------------------
 Temperature   298.150 Kelvin.  Pressure   1.00000 Atm.
 Atom     1 has atomic number 17 and mass  34.96885

 Molecular mass:    84.96118 amu.
 Principal axes and moments of inertia in atomic units:
                           1         2         3
     Eigenvalues --    12.570331428.822481428.82280
           X            1.00000   0.00000   0.00000
           Y           -0.00000   1.00000   0.00009
           Z           -0.00000  -0.00009   1.00000
 This molecule is an asymmetric top.
 Rotational symmetry number  1.
 Rotational temperatures (Kelvin)      6.89034     0.06062     0.06062
 Rotational constants (GHZ):         143.57148     1.26310     1.26310
    1 imaginary frequencies ignored.
 Zero-point vibrational energy      95841.9 (Joules/Mol)
                                   22.90677 (Kcal/Mol)
 Warning -- explicit consideration of   3 degrees of freedom as
           vibrations may cause significant error
 Vibrational temperatures:    268.20   268.30   275.12  1283.88  1285.18
          (Kelvin)           1407.13  2010.98  2011.12  4560.78  4841.71
                             4841.86

 Zero-point correction=                           0.036504 (Hartree/Particle)
 Thermal correction to Energy=                    0.041242
 Thermal correction to Enthalpy=                  0.042186
 Thermal correction to Gibbs Free Energy=         0.008379
 Sum of electronic and zero-point Energies=           -960.328967
 Sum of electronic and thermal Energies=              -960.324229
 Sum of electronic and thermal Enthalpies=            -960.323285
 Sum of electronic and thermal Free Energies=         -960.357092

                     E (Thermal)             CV                S
                      KCal/Mol        Cal/Mol-Kelvin    Cal/Mol-Kelvin
 Total                   25.880             13.166             71.154
 Electronic               0.000              0.000              0.000
 Translational            0.889              2.981             39.232
 Rotational               0.889              2.981             24.754
 Vibrational             24.102              7.204              7.168
 Vibration     1          0.632              1.858              2.263
 Vibration     2          0.632              1.858              2.263
 Vibration     3          0.634              1.852              2.216

                           ! Non-Optimized Parameters !
 Normal termination of Gaussian 16 at Wed Oct  7 14:02:43 2020.
