 Gaussian 16, Revision A.03,
 Gaussian 16:  ES64L-G16RevA.03 25-Dec-2016

 ----------------------------------------------------------------------
 #P Opt(MaxCyc=100) B97D3/6-31G* 5D 7F Integral=UltraFineGrid SCF=(NoSy
 mm,XQC,MaxCyc=120) IOp(1/33=1)
 ----------------------------------------------------------------------

 TstMul:  Mul=     1
 TstMul:  ICh=     0
 TstMul:  Mul=     1
 Symbolic Z-matrix:
 Charge =  0 Multiplicity = 1

 SCF Done:  E(RB97D3) =  -559.905944852     A.U. after   12 cycles
 SCF Done:  E(RB97D3) =  -559.906766200     A.U. after   12 cycles
 SCF Done:  E(RB97D3) =  -559.906886110     A.U. after    8 cycles
 Optimization completed.
    -- Stationary point found.

                         Standard orientation:
 ---------------------------------------------------------------------
 Center     Atomic      Atomic             Coordinates (Angstroms)
 Number     Number       Type             X           Y           Z
 ---------------------------------------------------------------------
      1          9           0        0.000000    0.000000   -1.094428
      2         17           0        0.000000    0.000000    0.579403
 ---------------------------------------------------------------------

 The electronic state is 1-SG.
 Alpha  occ. eigenvalues -- -100.72474 -24.30070  -9.29878  -7.14568  -7.12302
 Alpha  occ. eigenvalues --   -7.12302  -1.11621  -0.75880  -0.47768  -0.39944
 Alpha  occ. eigenvalues --   -0.39944  -0.27882  -0.27882
 Alpha virt. eigenvalues --   -0.16024   0.30333   0.35976   0.39610   0.39610
 Alpha virt. eigenvalues --    0.68574   0.68574   0.76155   0.76156   0.83647
 Alpha virt. eigenvalues --    1.18054   1.18716   1.18716   1.65840   1.75428

 Mulliken charges:
               1
     1  F   -0.284734
     2  Cl   0.284734
 Sum of Mulliken charges =  -0.00000

 Dipole moment (field-independent basis, Debye):
    X=              0.0000    Y=              0.0000    Z=              0.9384  Tot=              0.9384
 Quadrupole moment (field-independent basis, Debye-Ang):
   XX=            -16.9926   YY=            -16.9926   ZZ=            -15.3194
   XY=             -0.0000   XZ=              0.0000   YZ=              0.0000

 Normal termination of Gaussian 16 at Wed Oct  7 14:01:22 2020.
