 Gaussian 16, Revision A.03,
 Gaussian 16:  ES64L-G16RevA.03 25-Dec-2016

 ----------------------------------------------------------------------
 #P Opt(MaxCyc=100) B97D3/6-31G* 5D 7F Integral=UltraFineGrid SCF=(NoSy
 mm,XQC,MaxCyc=120) IOp(1/33=1)
 ----------------------------------------------------------------------

 TstMul:  Mul=     1
 TstMul:  ICh=     0
 TstMul:  Mul=     1
 Symbolic Z-matrix:
 Charge =  0 Multiplicity = 1

 SCF Done:  E(RB97D3) =  -199.406422731     A.U. after    9 cycles
 SCF Done:  E(RB97D3) =  -199.406778675     A.U. after    6 cycles
 SCF Done:  E(RB97D3) =  -199.406788878     A.U. after    6 cycles
 Optimization completed.
    -- Stationary point found.

                         Standard orientation:
 ---------------------------------------------------------------------
 Center     Atomic      Atomic             Coordinates (Angstroms)
 Number     Number       Type             X           Y           Z
 ---------------------------------------------------------------------
      1          9           0        0.000000    0.000000    0.709269
      2          9           0        0.000000    0.000000   -0.709269
 ---------------------------------------------------------------------

 The electronic state is 1-SGG.
 Alpha  occ. eigenvalues --  -24.35071 -24.35061  -1.22488  -0.99853  -0.54145
 Alpha  occ. eigenvalues --   -0.44470  -0.44470  -0.32344  -0.32344
 Alpha virt. eigenvalues --   -0.18886   1.00978   1.00978   1.03923   1.16700
 Alpha virt. eigenvalues --    1.18984   1.18984   1.20677   1.47563   1.47563
 Alpha virt. eigenvalues --    1.63078   1.63078   1.67036   1.85761   1.85761

 Mulliken charges:
               1
     1  F   -0.000000
     2  F   -0.000000
 Sum of Mulliken charges =  -0.00000

 Dipole moment (field-independent basis, Debye):
    X=             -0.0000    Y=             -0.0000    Z=             -0.0000  Tot=              0.0000
 Quadrupole moment (field-independent basis, Debye-Ang):
   XX=             -9.2329   YY=             -9.2329   ZZ=             -8.2365
   XY=             -0.0000   XZ=              0.0000   YZ=              0.0000

 Normal termination of Gaussian 16 at Wed Oct  7 14:01:27 2020.
