 Gaussian 16, Revision A.03,
 Gaussian 16:  ES64L-G16RevA.03 25-Dec-2016

 ----------------------------------------------------------------------
 #P Opt(MaxCyc=100) B97D3/6-31G* 5D 7F Integral=UltraFineGrid SCF=(NoSy
 mm,XQC,MaxCyc=120) IOp(1/33=1)
 ----------------------------------------------------------------------

 TstMul:  Mul=     1
 TstMul:  ICh=     0
 TstMul:  Mul=     1
 Symbolic Z-matrix:
 Charge =  0 Multiplicity = 1

 SCF Done:  E(RB97D3) =  -113.237883663     A.U. after   11 cycles
 SCF Done:  E(RB97D3) =  -113.238512028     A.U. after    7 cycles
 SCF Done:  E(RB97D3) =  -113.238529638     A.U. after    7 cycles
 Optimization completed.
    -- Stationary point found.

                         Standard orientation:
 ---------------------------------------------------------------------
 Center     Atomic      Atomic             Coordinates (Angstroms)
 Number     Number       Type             X           Y           Z
 ---------------------------------------------------------------------
      1          8           0        0.000000    0.000000    0.491489
      2          6           0        0.000000    0.000000   -0.655319
 ---------------------------------------------------------------------

 The electronic state is 1-SG.
 Alpha  occ. eigenvalues --  -18.86991 -10.02455  -1.06225  -0.50601  -0.41418
 Alpha  occ. eigenvalues --   -0.41418  -0.31923
 Alpha virt. eigenvalues --   -0.05762  -0.05762   0.24314   0.48897   0.48897
 Alpha virt. eigenvalues --    0.55700   0.68510   0.79145   0.87117   0.87117
 Alpha virt. eigenvalues --    1.41504   1.41504   1.44912   1.46208   1.46208

 Mulliken charges:
               1
     1  O   -0.150459
     2  C    0.150459
 Sum of Mulliken charges =  -0.00000

 Dipole moment (field-independent basis, Debye):
    X=              0.0000    Y=              0.0000    Z=              0.1042  Tot=              0.1042
 Quadrupole moment (field-independent basis, Debye-Ang):
   XX=             -9.8451   YY=             -9.8451   ZZ=            -11.8617
   XY=             -0.0000   XZ=              0.0000   YZ=             -0.0000

 Normal termination of Gaussian 16 at Wed Oct  7 14:01:31 2020.
