 Gaussian 16, Revision A.03,
 Gaussian 16:  ES64L-G16RevA.03 25-Dec-2016

 ----------------------------------------------------------------------
 #P B97D3/6-31G* 5D 7F Integral=UltraFineGrid SCF=(NoSymm,XQC,MaxCyc=12
 0) IOp(1/33=1) Stable=Opt
 ----------------------------------------------------------------------

 TstMul:  Mul=     2
 TstMul:  ICh=     0
 TstMul:  Mul=     2
 Symbolic Z-matrix:
 Charge =  0 Multiplicity = 2

                         Standard orientation:
 ---------------------------------------------------------------------
 Center     Atomic      Atomic             Coordinates (Angstroms)
 Number     Number       Type             X           Y           Z
 ---------------------------------------------------------------------
      1         17           0        0.000000    0.000000    0.000000
 ---------------------------------------------------------------------

 SCF Done:  E(UB97D3) =  -460.144503011     A.U. after    9 cycles

 Unable to determine electronic state:  an orbital has unidentified symmetry.
 Alpha  occ. eigenvalues -- -100.69357  -9.26953  -7.11755  -7.09586  -7.09586
 Alpha  occ. eigenvalues --   -0.77084  -0.36375  -0.30941  -0.30941
 Alpha virt. eigenvalues --    0.30730   0.38479   0.40090   0.40090   0.71514
 Alpha virt. eigenvalues --    0.72863   0.72863   0.77692   0.77692
  Beta  occ. eigenvalues -- -100.68728  -9.26645  -7.10524  -7.09168  -7.09168
  Beta  occ. eigenvalues --   -0.71825  -0.28912  -0.28912
  Beta virt. eigenvalues --   -0.28031   0.30932   0.38902   0.40440   0.40440
  Beta virt. eigenvalues --    0.79321   0.79321   0.80130   0.80130   0.82672

 Mulliken charges and spin densities:
               1          2
     1  Cl  -0.000000   1.000000
 Sum of Mulliken charges =  -0.00000   1.00000

 Dipole moment (field-independent basis, Debye):
    X=             -0.0000    Y=             -0.0000    Z=              0.0000  Tot=              0.0000
 Quadrupole moment (field-independent basis, Debye-Ang):
   XX=            -12.8348   YY=            -12.8340   ZZ=            -10.6082
   XY=              0.0000   XZ=              0.0000   YZ=              0.0432

 Normal termination of Gaussian 16 at Wed Oct  7 14:00:54 2020.
