 Gaussian 16, Revision A.03,

 ----------------------------------------------------------------------
 #P Opt(TS,MaxCyc=50,NoEigenTest,MaxStep=10,AddRedundant) B97D3/6-31G*
 5D 7F Integral=UltraFineGrid SCF=(NoSymm,XQC,MaxCyc=120) IOp(1/33=1)
 ----------------------------------------------------------------------

 TstMul:  Mul=     1
 TstMul:  ICh=    -1
 TstMul:  Mul=     1
 Symbolic Z-matrix:
 Charge = -1 Multiplicity = 1

 SCF Done:  E(RB97D3) =  -239.400823379     A.U. after   13 cycles
 SCF Done:  E(RB97D3) =  -239.401245575     A.U. after   12 cycles
 SCF Done:  E(RB97D3) =  -239.401309283     A.U. after   11 cycles
 SCF Done:  E(RB97D3) =  -239.401294168     A.U. after   12 cycles
 SCF Done:  E(RB97D3) =  -239.401307970     A.U. after   12 cycles
 SCF Done:  E(RB97D3) =  -239.401308343     A.U. after    7 cycles
 Optimization completed.
    -- Stationary point found.
 Normal termination of Gaussian 16 at Wed Oct  7 14:02:57 2020.
 Gaussian 16:  ES64L-G16RevA.03 25-Dec-2016

 ----------------------------------------------------------------------
 #P Freq B97D3/6-31G* 5D 7F Integral=UltraFineGrid SCF=(NoSymm,XQC,MaxC
 yc=120) IOp(1/33=1) Geom=Check Guess=Read
 ----------------------------------------------------------------------

 TstMul:  Mul=     1
 TstMul:  ICh=    -1
 TstMul:  Mul=     1
 Structure from the checkpoint file:  "MN_39_fch3fts_BH76_B97DBJ_631Gs.chk"
 Charge = -1 Multiplicity = 1

                         Standard orientation:
 ---------------------------------------------------------------------
 Center     Atomic      Atomic             Coordinates (Angstroms)
 Number     Number       Type             X           Y           Z
 ---------------------------------------------------------------------
      1          9           0        1.845438   -0.000003    0.000002
      2          6           0        0.000103    0.000005   -0.000006
      3          1           0       -0.000013   -0.166286    1.069362
      4          1           0        0.000012    1.009253   -0.390672
      5          1           0       -0.000032   -0.842961   -0.678687
      6          9           0       -1.845503   -0.000001    0.000002
 ---------------------------------------------------------------------

 SCF Done:  E(RB97D3) =  -239.401308343     A.U. after    1 cycles

 The electronic state is 1-A.
 Alpha  occ. eigenvalues --  -23.86108 -23.86099  -9.73357  -0.66784  -0.66244
 Alpha  occ. eigenvalues --   -0.37768  -0.16101  -0.16100  -0.05690   0.03343
 Alpha  occ. eigenvalues --    0.03343   0.03831   0.04585   0.04585
 Alpha virt. eigenvalues --    0.27340   0.29892   0.35638   0.35638   0.75386
 Alpha virt. eigenvalues --    0.75387   0.83572   0.97075   1.06168   1.06169
 Alpha virt. eigenvalues --    1.29284   1.37925   1.37925   1.50452   1.50905

 Mulliken charges:
               1
     1  F   -0.620227
     2  C   -0.109149
     3  H    0.116571
     4  H    0.116570
     5  H    0.116571
     6  F   -0.620336
 Sum of Mulliken charges =  -1.00000

 Dipole moment (field-independent basis, Debye):
    X=              0.0015    Y=              0.0000    Z=             -0.0000  Tot=              0.0015
 Quadrupole moment (field-independent basis, Debye-Ang):
   XX=            -38.1386   YY=            -17.5324   ZZ=            -17.5324
   XY=              0.0000   XZ=              0.0000   YZ=              0.0000

  Exact polarizability:  31.997   0.000  14.978   0.000  -0.000  14.977
 Approx polarizability:  70.644   0.000  20.378   0.000  -0.000  20.377

 ******    1 imaginary frequencies (negative Signs) ******

                      1                      2                      3
                      A                      A                      A
 Frequencies --   -437.0492               305.2052               305.3399
 Red. masses --      9.9967                 4.3681                 4.3685
 Frc consts  --      1.1250                 0.2397                 0.2400
 IR Inten    --    581.6208                14.5615                14.5619

                      4                      5                      6
                      A                      A                      A
 Frequencies --    329.9672               941.1259               941.2755
 Red. masses --     18.9736                 1.0209                 1.0209
 Frc consts  --      1.2171                 0.5327                 0.5329
 IR Inten    --      0.0000                 0.0000                 0.0000

                      7                      8                      9
                      A                      A                      A
 Frequencies --   1055.8095              1359.8591              1359.9464
 Red. masses --      1.0929                 1.1214                 1.1214
 Frc consts  --      0.7178                 1.2218                 1.2219
 IR Inten    --      0.8788                 1.2553                 1.2563

                     10                     11                     12
                      A                      A                      A
 Frequencies --   3079.7512              3265.6043              3265.7404
 Red. masses --      1.0079                 1.1279                 1.1279
 Frc consts  --      5.6324                 7.0868                 7.0874
 IR Inten    --      0.0000                60.3379                60.3232

 - Thermochemistry -
 -------------------
 Temperature   298.150 Kelvin.  Pressure   1.00000 Atm.
 Atom     1 has atomic number  9 and mass  18.99840

 Molecular mass:    53.02028 amu.
 Principal axes and moments of inertia in atomic units:
                           1         2         3
     Eigenvalues --    12.64548 468.44738 468.44757
           X            1.00000   0.00000   0.00000
           Y           -0.00000   1.00000   0.00000
           Z           -0.00000  -0.00000   1.00000
 This molecule is an asymmetric top.
 Rotational symmetry number  1.
 Rotational temperatures (Kelvin)      6.84940     0.18490     0.18490
 Rotational constants (GHZ):         142.71833     3.85260     3.85260
    1 imaginary frequencies ignored.
 Zero-point vibrational energy      96955.1 (Joules/Mol)
                                   23.17282 (Kcal/Mol)
 Warning -- explicit consideration of   3 degrees of freedom as
           vibrations may cause significant error
 Vibrational temperatures:    439.12   439.32   474.75  1354.07  1354.29
          (Kelvin)           1519.07  1956.53  1956.66  4431.08  4698.48
                             4698.67

 Zero-point correction=                           0.036928 (Hartree/Particle)
 Thermal correction to Energy=                    0.041112
 Thermal correction to Enthalpy=                  0.042056
 Thermal correction to Gibbs Free Energy=         0.011286
 Sum of electronic and zero-point Energies=           -239.364380
 Sum of electronic and thermal Energies=              -239.360197
 Sum of electronic and thermal Enthalpies=            -239.359253
 Sum of electronic and thermal Free Energies=         -239.390023

                     E (Thermal)             CV                S
                      KCal/Mol        Cal/Mol-Kelvin    Cal/Mol-Kelvin
 Total                   25.798             12.360             64.761
 Electronic               0.000              0.000              0.000
 Translational            0.889              2.981             37.827
 Rotational               0.889              2.981             22.544
 Vibrational             24.020              6.398              4.390
 Vibration     1          0.696              1.664              1.388
 Vibration     2          0.696              1.664              1.387
 Vibration     3          0.713              1.616              1.260

 Optimization completed.
    -- Stationary point found.
 Normal termination of Gaussian 16 at Wed Oct  7 14:03:27 2020.
