 Gaussian 16, Revision A.03,
 Gaussian 16:  ES64L-G16RevA.03 25-Dec-2016

 ----------------------------------------------------------------------
 #P Opt(MaxCyc=100) B97D3/6-31G* 5D 7F Integral=UltraFineGrid SCF=(NoSy
 mm,XQC,MaxCyc=120) IOp(1/33=1)
 ----------------------------------------------------------------------

 TstMul:  Mul=     1
 TstMul:  ICh=    -1
 TstMul:  Mul=     1
 Symbolic Z-matrix:
 Charge = -1 Multiplicity = 1

 SCF Done:  E(RB97D3) =  -599.857747067     A.U. after   18 cycles
 SCF Done:  E(RB97D3) =  -599.861909152     A.U. after   14 cycles
 SCF Done:  E(RB97D3) =  -599.865763242     A.U. after   15 cycles
 SCF Done:  E(RB97D3) =  -599.868443117     A.U. after   14 cycles
 SCF Done:  E(RB97D3) =  -599.873396879     A.U. after   13 cycles
 SCF Done:  E(RB97D3) =  -599.896244534     A.U. after   15 cycles
 SCF Done:  E(RB97D3) =  -599.921833582     A.U. after   13 cycles
 SCF Done:  E(RB97D3) =  -599.928026066     A.U. after   12 cycles
 SCF Done:  E(RB97D3) =  -599.928912503     A.U. after   11 cycles
 SCF Done:  E(RB97D3) =  -599.930660376     A.U. after   11 cycles
 SCF Done:  E(RB97D3) =  -599.931207809     A.U. after   11 cycles
 SCF Done:  E(RB97D3) =  -599.931847104     A.U. after   10 cycles
 SCF Done:  E(RB97D3) =  -599.931984582     A.U. after   10 cycles
 SCF Done:  E(RB97D3) =  -599.931992221     A.U. after    9 cycles
 SCF Done:  E(RB97D3) =  -599.931992334     A.U. after    6 cycles
 Optimization completed.
    -- Stationary point found.

                         Standard orientation:
 ---------------------------------------------------------------------
 Center     Atomic      Atomic             Coordinates (Angstroms)
 Number     Number       Type             X           Y           Z
 ---------------------------------------------------------------------
      1         17           0        0.000000    0.000000    1.988591
      2          6           0        0.000000    0.000000   -1.230061
      3          1           0        0.000000    1.030836   -0.855768
      4          1           0        0.892730   -0.515418   -0.855768
      5          1           0       -0.892730   -0.515418   -0.855768
      6          9           0        0.000000    0.000000   -2.650930
 ---------------------------------------------------------------------

 The electronic state is 1-A1.
 Alpha  occ. eigenvalues -- -100.31158 -24.07340  -9.80589  -8.88628  -6.71849
 Alpha  occ. eigenvalues --   -6.71799  -6.71799  -0.91327  -0.46185  -0.38706
 Alpha  occ. eigenvalues --   -0.26061  -0.24776  -0.24776  -0.12383  -0.12383
 Alpha  occ. eigenvalues --    0.03050   0.03301   0.03301
 Alpha virt. eigenvalues --    0.23966   0.26925   0.30833   0.30833   0.58321
 Alpha virt. eigenvalues --    0.65885   0.66651   0.66651   0.70208   0.70208
 Alpha virt. eigenvalues --    0.78392   0.97017   0.97017   1.04677   1.09668

 Mulliken charges:
               1
     1  Cl  -0.947199
     2  C   -0.119520
     3  H    0.150872
     4  H    0.150872
     5  H    0.150872
     6  F   -0.385898
 Sum of Mulliken charges =  -1.00000

 Dipole moment (field-independent basis, Debye):
    X=             -0.0000    Y=             -0.0000    Z=             -6.4268  Tot=              6.4268
 Quadrupole moment (field-independent basis, Debye-Ang):
   XX=            -27.1647   YY=            -27.1647   ZZ=            -54.0991
   XY=             -0.0000   XZ=             -0.0000   YZ=             -0.0000

 Normal termination of Gaussian 16 at Wed Oct  7 14:04:26 2020.
