 Gaussian 16, Revision A.03,
 Gaussian 16:  ES64L-G16RevA.03 25-Dec-2016

 ----------------------------------------------------------------------
 #P Opt(MaxCyc=100) B97D3/6-31G* 5D 7F Integral=UltraFineGrid SCF=(NoSy
 mm,XQC,MaxCyc=120) IOp(1/33=1)
 ----------------------------------------------------------------------

 TstMul:  Mul=     1
 TstMul:  ICh=    -1
 TstMul:  Mul=     1
 Symbolic Z-matrix:
 Charge = -1 Multiplicity = 1

 SCF Done:  E(RB97D3) =  -239.409014585     A.U. after   16 cycles
 SCF Done:  E(RB97D3) =  -239.410579388     A.U. after   12 cycles
 SCF Done:  E(RB97D3) =  -239.411229508     A.U. after   11 cycles
 SCF Done:  E(RB97D3) =  -239.411646985     A.U. after   13 cycles
 SCF Done:  E(RB97D3) =  -239.411718059     A.U. after   11 cycles
 SCF Done:  E(RB97D3) =  -239.411749369     A.U. after    9 cycles
 SCF Done:  E(RB97D3) =  -239.411750124     A.U. after    8 cycles
 Optimization completed.
    -- Stationary point found.

                         Standard orientation:
 ---------------------------------------------------------------------
 Center     Atomic      Atomic             Coordinates (Angstroms)
 Number     Number       Type             X           Y           Z
 ---------------------------------------------------------------------
      1          9           0        0.000000    0.000000   -1.823309
      2          6           0        0.000000    0.000000   -0.347455
      3          1           0       -0.000000    1.027746    0.021353
      4          1           0       -0.890054   -0.513873    0.021353
      5          1           0        0.890054   -0.513873    0.021353
      6          9           0        0.000000    0.000000    2.047829
 ---------------------------------------------------------------------

 The electronic state is 1-A1.
 Alpha  occ. eigenvalues --  -24.00467 -23.75930  -9.74396  -0.83444  -0.55770
 Alpha  occ. eigenvalues --   -0.39903  -0.18796  -0.18128  -0.18128  -0.06673
 Alpha  occ. eigenvalues --   -0.06673   0.11643   0.12679   0.12679
 Alpha virt. eigenvalues --    0.29244   0.31500   0.36038   0.36038   0.73092
 Alpha virt. eigenvalues --    0.73092   0.74268   1.02430   1.02430   1.05512
 Alpha virt. eigenvalues --    1.19310   1.39090   1.39090   1.39799   1.53893

 Mulliken charges:
               1
     1  F   -0.431829
     2  C   -0.155321
     3  H    0.120549
     4  H    0.120549
     5  H    0.120549
     6  F   -0.774496
 Sum of Mulliken charges =  -1.00000

 Dipole moment (field-independent basis, Debye):
    X=             -0.0000    Y=             -0.0000    Z=             -4.7539  Tot=              4.7539
 Quadrupole moment (field-independent basis, Debye-Ang):
   XX=            -17.8194   YY=            -17.8194   ZZ=            -39.8574
   XY=             -0.0000   XZ=              0.0000   YZ=             -0.0000

 Normal termination of Gaussian 16 at Wed Oct  7 14:02:57 2020.
