 Gaussian 16, Revision A.03,
 Gaussian 16:  ES64L-G16RevA.03 25-Dec-2016

 ----------------------------------------------------------------------
 #P Opt(MaxCyc=100) B97D3/6-31G* 5D 7F Integral=UltraFineGrid SCF=(NoSy
 mm,XQC,MaxCyc=120) IOp(1/33=1)
 ----------------------------------------------------------------------

 TstMul:  Mul=     1
 TstMul:  ICh=    -1
 TstMul:  Mul=     1
 Symbolic Z-matrix:
 Charge = -1 Multiplicity = 1

 SCF Done:  E(RB97D3) =  -599.931437545     A.U. after   12 cycles
 SCF Done:  E(RB97D3) =  -599.931967440     A.U. after   11 cycles
 SCF Done:  E(RB97D3) =  -599.931981658     A.U. after    7 cycles
 SCF Done:  E(RB97D3) =  -599.931990267     A.U. after    8 cycles
 SCF Done:  E(RB97D3) =  -599.931992004     A.U. after    7 cycles
 SCF Done:  E(RB97D3) =  -599.931992225     A.U. after    6 cycles
 Optimization completed.
    -- Stationary point found.

                         Standard orientation:
 ---------------------------------------------------------------------
 Center     Atomic      Atomic             Coordinates (Angstroms)
 Number     Number       Type             X           Y           Z
 ---------------------------------------------------------------------
      1          9           0        0.000000    0.000000   -2.651331
      2          6           0        0.000000    0.000000   -1.230839
      3          1           0       -0.000000    1.030727   -0.856175
      4          1           0       -0.892635   -0.515363   -0.856175
      5          1           0        0.892635   -0.515363   -0.856175
      6         17           0        0.000000    0.000000    1.989149
 ---------------------------------------------------------------------

 The electronic state is 1-A1.
 Alpha  occ. eigenvalues -- -100.31156 -24.07354  -9.80592  -8.88626  -6.71846
 Alpha  occ. eigenvalues --   -6.71797  -6.71797  -0.91350  -0.46189  -0.38703
 Alpha  occ. eigenvalues --   -0.26079  -0.24786  -0.24786  -0.12389  -0.12389
 Alpha  occ. eigenvalues --    0.03052   0.03304   0.03304
 Alpha virt. eigenvalues --    0.23973   0.26926   0.30831   0.30831   0.58320
 Alpha virt. eigenvalues --    0.65877   0.66651   0.66651   0.70204   0.70204
 Alpha virt. eigenvalues --    0.78385   0.97010   0.97010   1.04684   1.09682

 Mulliken charges:
               1
     1  F   -0.385665
     2  C   -0.119577
     3  H    0.150842
     4  H    0.150842
     5  H    0.150842
     6  Cl  -0.947285
 Sum of Mulliken charges =  -1.00000

 Dipole moment (field-independent basis, Debye):
    X=             -0.0000    Y=             -0.0000    Z=             -6.4323  Tot=              6.4323
 Quadrupole moment (field-independent basis, Debye-Ang):
   XX=            -27.1656   YY=            -27.1656   ZZ=            -54.1044
   XY=             -0.0000   XZ=              0.0000   YZ=              0.0000

 Normal termination of Gaussian 16 at Wed Oct  7 14:02:22 2020.
