 Gaussian 16, Revision A.03,
 Gaussian 16:  ES64L-G16RevA.03 25-Dec-2016

 ----------------------------------------------------------------------
 #P Opt(MaxCyc=100) B97D3/6-31G* 5D 7F Integral=UltraFineGrid SCF=(NoSy
 mm,XQC,MaxCyc=120) IOp(1/33=1)
 ----------------------------------------------------------------------

 TstMul:  Mul=     1
 TstMul:  ICh=     0
 TstMul:  Mul=     1
 Symbolic Z-matrix:
 Charge =  0 Multiplicity = 1

 SCF Done:  E(RB97D3) =  -399.382362176     A.U. after   10 cycles
 SCF Done:  E(RB97D3) =  -399.382620973     A.U. after   10 cycles
 SCF Done:  E(RB97D3) =  -399.382621685     A.U. after    6 cycles
 Optimization completed.
    -- Stationary point found.

                         Standard orientation:
 ---------------------------------------------------------------------
 Center     Atomic      Atomic             Coordinates (Angstroms)
 Number     Number       Type             X           Y           Z
 ---------------------------------------------------------------------
      1         16           0        0.000000    0.000000    0.104041
      2          1           0        0.000000    0.975998   -0.832325
      3          1           0       -0.000000   -0.975998   -0.832325
 ---------------------------------------------------------------------

 The electronic state is 1-A1.
 Alpha  occ. eigenvalues --  -88.03952  -7.72916  -5.76334  -5.75958  -5.75065
 Alpha  occ. eigenvalues --   -0.68009  -0.40789  -0.32726  -0.22231
 Alpha virt. eigenvalues --   -0.00743   0.03079   0.29347   0.30962   0.32125
 Alpha virt. eigenvalues --    0.33897   0.63938   0.67896   0.70419   0.71140
 Alpha virt. eigenvalues --    0.71148   0.95533   1.12266

 Mulliken charges:
               1
     1  S   -0.244787
     2  H    0.122393
     3  H    0.122393
 Sum of Mulliken charges =  -0.00000

 Dipole moment (field-independent basis, Debye):
    X=             -0.0000    Y=              0.0000    Z=             -1.4415  Tot=              1.4415
 Quadrupole moment (field-independent basis, Debye-Ang):
   XX=            -16.4692   YY=            -12.1007   ZZ=            -13.3992
   XY=              0.0000   XZ=              0.0000   YZ=              0.0000

 Normal termination of Gaussian 16 at Wed Oct  7 14:02:34 2020.
