 Gaussian 16, Revision A.03,
 Gaussian 16:  ES64L-G16RevA.03 25-Dec-2016

 ----------------------------------------------------------------------
 #P Opt(MaxCyc=100) B97D3/6-31G* 5D 7F Integral=UltraFineGrid SCF=(NoSy
 mm,XQC,MaxCyc=120) IOp(1/33=1)
 ----------------------------------------------------------------------

 TstMul:  Mul=     1
 TstMul:  ICh=     0
 TstMul:  Mul=     1
 Symbolic Z-matrix:
 Charge =  0 Multiplicity = 1

 SCF Done:  E(RB97D3) =  -93.3585159627     A.U. after   11 cycles
 SCF Done:  E(RB97D3) =  -93.3589672505     A.U. after   10 cycles
 SCF Done:  E(RB97D3) =  -93.3589683028     A.U. after    7 cycles
 Optimization completed.
    -- Stationary point found.

                         Standard orientation:
 ---------------------------------------------------------------------
 Center     Atomic      Atomic             Coordinates (Angstroms)
 Number     Number       Type             X           Y           Z
 ---------------------------------------------------------------------
      1          6           0        0.000000    0.000000   -0.506390
      2          7           0        0.000000    0.000000    0.659977
      3          1           0        0.000000    0.000000   -1.581496
 ---------------------------------------------------------------------

 The electronic state is 1-SG.
 Alpha  occ. eigenvalues --  -14.03317  -9.96424  -0.83624  -0.55155  -0.32499
 Alpha  occ. eigenvalues --   -0.31461  -0.31461
 Alpha virt. eigenvalues --   -0.01513  -0.01513   0.05683   0.25965   0.49282
 Alpha virt. eigenvalues --    0.49282   0.61346   0.65305   0.73173   0.73173
 Alpha virt. eigenvalues --    0.77724   1.01556   1.42513   1.44211   1.44211

 Mulliken charges:
               1
     1  C    0.027763
     2  N   -0.272120
     3  H    0.244357
 Sum of Mulliken charges =  -0.00000

 Dipole moment (field-independent basis, Debye):
    X=              0.0000    Y=             -0.0000    Z=             -2.8342  Tot=              2.8342
 Quadrupole moment (field-independent basis, Debye-Ang):
   XX=            -11.3573   YY=            -11.3573   ZZ=             -9.4981
   XY=              0.0000   XZ=              0.0000   YZ=             -0.0000

 Normal termination of Gaussian 16 at Wed Oct  7 14:03:03 2020.
