 Gaussian 16, Revision A.03,

 ----------------------------------------------------------------------
 #P Opt(TS,MaxCyc=50,NoEigenTest,MaxStep=10,AddRedundant) B97D3/6-31G*
 5D 7F Integral=UltraFineGrid SCF=(NoSymm,XQC,MaxCyc=120) IOp(1/33=1)
 ----------------------------------------------------------------------

 TstMul:  Mul=     1
 TstMul:  ICh=     0
 TstMul:  Mul=     1
 Symbolic Z-matrix:
 Charge =  0 Multiplicity = 1

 SCF Done:  E(RB97D3) =  -93.2804234615     A.U. after   13 cycles
 SCF Done:  E(RB97D3) =  -93.2804949184     A.U. after    9 cycles
 SCF Done:  E(RB97D3) =  -93.2804533156     A.U. after   12 cycles
 SCF Done:  E(RB97D3) =  -93.2804399480     A.U. after    9 cycles
 Optimization completed.
    -- Stationary point found.
 Normal termination of Gaussian 16 at Wed Oct  7 14:03:25 2020.
 Gaussian 16:  ES64L-G16RevA.03 25-Dec-2016

 ----------------------------------------------------------------------
 #P Freq B97D3/6-31G* 5D 7F Integral=UltraFineGrid SCF=(NoSymm,XQC,MaxC
 yc=120) IOp(1/33=1) Geom=Check Guess=Read
 ----------------------------------------------------------------------

 TstMul:  Mul=     1
 TstMul:  ICh=     0
 TstMul:  Mul=     1
 Structure from the checkpoint file:  "MN_49_hcnts_BH76_B97DBJ_631Gs.chk"
 Charge =  0 Multiplicity = 1

                         Standard orientation:
 ---------------------------------------------------------------------
 Center     Atomic      Atomic             Coordinates (Angstroms)
 Number     Number       Type             X           Y           Z
 ---------------------------------------------------------------------
      1          6           0        0.080392    0.632129    0.000000
      2          7           0        0.080392   -0.570343    0.000000
      3          1           0       -1.045090    0.199624    0.000000
 ---------------------------------------------------------------------

 SCF Done:  E(RB97D3) =  -93.2804399480     A.U. after    1 cycles

 The electronic state is 1-A'.
 Alpha  occ. eigenvalues --  -14.07834  -9.97396  -0.90621  -0.47297  -0.40189
 Alpha  occ. eigenvalues --   -0.33762  -0.28442
 Alpha virt. eigenvalues --   -0.08922  -0.02714   0.03063   0.29538   0.49714
 Alpha virt. eigenvalues --    0.49854   0.53555   0.62663   0.65920   0.69935
 Alpha virt. eigenvalues --    0.73054   0.77630   1.19986   1.40582   1.41747

 Mulliken charges:
               1
     1  C   -0.042314
     2  N   -0.222191
     3  H    0.264505
 Sum of Mulliken charges =   0.00000

 Dipole moment (field-independent basis, Debye):
    X=             -1.2105    Y=              0.0985    Z=              0.0000  Tot=              1.2145
 Quadrupole moment (field-independent basis, Debye-Ang):
   XX=             -9.4575   YY=            -14.0643   ZZ=            -11.7785
   XY=             -0.2059   XZ=              0.0000   YZ=              0.0000

  Exact polarizability:  13.207   0.369  17.812   0.000   0.000   8.719
 Approx polarizability:  23.051   1.923  43.817  -0.000  -0.000  13.700

 ******    1 imaginary frequencies (negative Signs) ******

                      1                      2                      3
                     A'                     A'                     A'
 Frequencies --  -1124.7044              1984.2285              2502.5676
 Red. masses --      1.1638                11.8514                 1.0583
 Frc consts  --      0.8674                27.4917                 3.9051
 IR Inten    --     60.2881                10.5622                94.9415

 - Thermochemistry -
 -------------------
 Temperature   298.150 Kelvin.  Pressure   1.00000 Atm.
 Atom     1 has atomic number  6 and mass  12.00000

 Molecular mass:    27.01090 amu.
 Principal axes and moments of inertia in atomic units:
                           1         2         3
     Eigenvalues --     4.36468  33.55211  37.91680
           X           -0.02874   0.99959   0.00000
           Y            0.99959   0.02874   0.00000
           Z            0.00000   0.00000   1.00000
 This molecule is an asymmetric top.
 Rotational symmetry number  1.
 Rotational temperatures (Kelvin)     19.84427     2.58147     2.28432
 Rotational constants (GHZ):         413.48740    53.78920    47.59741
    1 imaginary frequencies ignored.
 Zero-point vibrational energy      26837.0 (Joules/Mol)
                                    6.41420 (Kcal/Mol)
 Vibrational temperatures:   2854.86  3600.64
          (Kelvin)

 Zero-point correction=                           0.010222 (Hartree/Particle)
 Thermal correction to Energy=                    0.013055
 Thermal correction to Enthalpy=                  0.013999
 Thermal correction to Gibbs Free Energy=        -0.010797
 Sum of electronic and zero-point Energies=            -93.270218
 Sum of electronic and thermal Energies=               -93.267385
 Sum of electronic and thermal Enthalpies=             -93.266441
 Sum of electronic and thermal Free Energies=          -93.291237

                     E (Thermal)             CV                S
                      KCal/Mol        Cal/Mol-Kelvin    Cal/Mol-Kelvin
 Total                    8.192              5.976             52.188
 Electronic               0.000              0.000              0.000
 Translational            0.889              2.981             35.816
 Rotational               0.889              2.981             16.370
 Vibrational              6.415              0.014              0.002

 Optimization completed.
    -- Stationary point found.
 Normal termination of Gaussian 16 at Wed Oct  7 14:03:51 2020.
