 Gaussian 16, Revision A.03,
 Gaussian 16:  ES64L-G16RevA.03 25-Dec-2016

 ----------------------------------------------------------------------
 #P Opt(MaxCyc=100) B97D3/6-31G* 5D 7F Integral=UltraFineGrid SCF=(NoSy
 mm,XQC,MaxCyc=120) IOp(1/33=1)
 ----------------------------------------------------------------------

 TstMul:  Mul=     1
 TstMul:  ICh=     0
 TstMul:  Mul=     1
 Symbolic Z-matrix:
 Charge =  0 Multiplicity = 1

 SCF Done:  E(RB97D3) =  -76.3670142693     A.U. after   10 cycles
 SCF Done:  E(RB97D3) =  -76.3674257526     A.U. after    7 cycles
 SCF Done:  E(RB97D3) =  -76.3674389970     A.U. after    6 cycles
 Optimization completed.
    -- Stationary point found.

                         Standard orientation:
 ---------------------------------------------------------------------
 Center     Atomic      Atomic             Coordinates (Angstroms)
 Number     Number       Type             X           Y           Z
 ---------------------------------------------------------------------
      1          8           0       -0.000000   -0.000000    0.120817
      2          1           0        0.000000    0.761867   -0.483269
      3          1           0       -0.000000   -0.761867   -0.483269
 ---------------------------------------------------------------------

 The electronic state is 1-A1.
 Alpha  occ. eigenvalues --  -18.75118  -0.91053  -0.46183  -0.31568  -0.23110
 Alpha virt. eigenvalues --    0.04561   0.12479   0.72308   0.80018   0.84282
 Alpha virt. eigenvalues --    0.88962   1.01281   1.32209   1.65559   1.67405
 Alpha virt. eigenvalues --    1.70693   2.20423   2.48579

 Mulliken charges:
               1
     1  O   -0.782256
     2  H    0.391128
     3  H    0.391128
 Sum of Mulliken charges =  -0.00000

 Dipole moment (field-independent basis, Debye):
    X=             -0.0000    Y=             -0.0000    Z=             -2.0673  Tot=              2.0673
 Quadrupole moment (field-independent basis, Debye-Ang):
   XX=             -7.1833   YY=             -4.2668   ZZ=             -5.9287
   XY=              0.0000   XZ=              0.0000   YZ=             -0.0000

 Normal termination of Gaussian 16 at Wed Oct  7 14:02:48 2020.
