 Gaussian 16, Revision A.03,
 Gaussian 16:  ES64L-G16RevA.03 25-Dec-2016

 ----------------------------------------------------------------------
 #P Opt(MaxCyc=100) B97D3/6-31G* 5D 7F Integral=UltraFineGrid SCF=(NoSy
 mm,XQC,MaxCyc=120) IOp(1/33=1)
 ----------------------------------------------------------------------

 TstMul:  Mul=     1
 TstMul:  ICh=     0
 TstMul:  Mul=     1
 Symbolic Z-matrix:
 Charge =  0 Multiplicity = 1

 SCF Done:  E(RB97D3) =  -460.806857334     A.U. after   11 cycles
 SCF Done:  E(RB97D3) =  -460.806994562     A.U. after    7 cycles
 Optimization completed.
    -- Stationary point found.

                         Standard orientation:
 ---------------------------------------------------------------------
 Center     Atomic      Atomic             Coordinates (Angstroms)
 Number     Number       Type             X           Y           Z
 ---------------------------------------------------------------------
      1         17           0        0.000000    0.000000    0.071663
      2          1           0        0.000000    0.000000   -1.218270
 ---------------------------------------------------------------------

 The electronic state is 1-SG.
 Alpha  occ. eigenvalues -- -100.65165  -9.23377  -7.07321  -7.06067  -7.06067
 Alpha  occ. eigenvalues --   -0.77422  -0.43083  -0.28716  -0.28716
 Alpha virt. eigenvalues --   -0.01519   0.34843   0.38202   0.40944   0.40944
 Alpha virt. eigenvalues --    0.64566   0.77213   0.77213   0.80465   0.80465
 Alpha virt. eigenvalues --    1.10817

 Mulliken charges:
               1
     1  Cl  -0.228024
     2  H    0.228024
 Sum of Mulliken charges =  -0.00000

 Dipole moment (field-independent basis, Debye):
    X=              0.0000    Y=             -0.0000    Z=             -1.4682  Tot=              1.4682
 Quadrupole moment (field-independent basis, Debye-Ang):
   XX=            -13.7786   YY=            -13.7786   ZZ=            -10.2283
   XY=              0.0000   XZ=              0.0000   YZ=              0.0000

 Normal termination of Gaussian 16 at Wed Oct  7 14:02:34 2020.
