 Gaussian 16, Revision A.03,
 Gaussian 16:  ES64L-G16RevA.03 25-Dec-2016

 ----------------------------------------------------------------------
 #P B97D3/6-31G* 5D 7F Integral=UltraFineGrid SCF=(NoSymm,XQC,MaxCyc=12
 0) IOp(1/33=1) Stable=Opt
 ----------------------------------------------------------------------

 TstMul:  Mul=     2
 TstMul:  ICh=     0
 TstMul:  Mul=     2
 Symbolic Z-matrix:
 Charge =  0 Multiplicity = 2

                         Standard orientation:
 ---------------------------------------------------------------------
 Center     Atomic      Atomic             Coordinates (Angstroms)
 Number     Number       Type             X           Y           Z
 ---------------------------------------------------------------------
      1          9           0        0.000000    0.000000    0.000000
 ---------------------------------------------------------------------

 SCF Done:  E(UB97D3) =  -99.6629720598     A.U. after  108 cycles

 Unable to determine electronic state:  an orbital has unidentified symmetry.
 Alpha  occ. eigenvalues --  -24.33196  -1.10266  -0.46525  -0.37985  -0.37985
 Alpha virt. eigenvalues --    1.03840   1.08166   1.08166   1.22472   1.69491
 Alpha virt. eigenvalues --    1.70808   1.70808   1.75606   1.75606
  Beta  occ. eigenvalues --  -24.31215  -1.02065  -0.33972  -0.33972
  Beta virt. eigenvalues --   -0.30443   1.10243   1.10243   1.11928   1.26649
  Beta virt. eigenvalues --    1.76514   1.76514   1.76800   1.76800   1.77652

 Mulliken charges and spin densities:
               1          2
     1  F    0.000000   1.000000
 Sum of Mulliken charges =   0.00000   1.00000

 Dipole moment (field-independent basis, Debye):
    X=              0.0000    Y=             -0.0000    Z=              0.0000  Tot=              0.0000
 Quadrupole moment (field-independent basis, Debye-Ang):
   XX=             -4.6870   YY=             -4.6869   ZZ=             -3.8727
   XY=              0.0000   XZ=              0.0000   YZ=             -0.0072

 Normal termination of Gaussian 16 at Wed Oct  7 14:01:55 2020.
