 Gaussian 16, Revision A.03,

 ----------------------------------------------------------------------
 #P Opt(TS,MaxCyc=50,NoEigenTest,MaxStep=10,AddRedundant) B97D3/6-31G*
 5D 7F Integral=UltraFineGrid SCF=(NoSymm,XQC,MaxCyc=120) IOp(1/33=1)
 ----------------------------------------------------------------------

 TstMul:  Mul=     2
 TstMul:  ICh=     0
 TstMul:  Mul=     2
 Symbolic Z-matrix:
 Charge =  0 Multiplicity = 2

 SCF Done:  E(UB97D3) =  -461.282578129     A.U. after   10 cycles
 SCF Done:  E(UB97D3) =  -461.282782866     A.U. after    9 cycles
 SCF Done:  E(UB97D3) =  -461.282804143     A.U. after    7 cycles
 Optimization completed.
    -- Stationary point found.

 1\1\GINC-NODE51\FTS\UB97D3\6-31G(d)\Cl1H2(2)\RPEVERATI\07-Oct-2020\0\\
 #P Opt(TS,MaxCyc=50,NoEigenTest,MaxStep=10,AddRedundant) B97D3/6-31G*
 5D 7F Integral=UltraFineGrid SCF=(NoSymm,XQC,MaxCyc=120) IOp(1/33=1)\\
 TS search on BH76.\\0,2\H,0.,0.,1.5082095288\Cl,0.,0.,0.\H,0.,0.,-1.50
 82095288\\Version=ES64L-G16RevA.03\State=2-SGG\HF=-461.2828041\S2=0.75
 4579\S2-1=0.\S2A=0.750003\RMSD=2.299e-09\RMSF=4.988e-05\Dipole=0.,0.,0
 .\Quadrupole=-0.8063355,-0.8063355,1.612671,0.,0.,0.\PG=D*H [O(Cl1),C*
 (H1.H1)]\\@

 Normal termination of Gaussian 16 at Wed Oct  7 14:02:41 2020.
 Gaussian 16:  ES64L-G16RevA.03 25-Dec-2016

 ----------------------------------------------------------------------
 #P Freq B97D3/6-31G* 5D 7F Integral=UltraFineGrid SCF=(NoSymm,XQC,MaxC
 yc=120) IOp(1/33=1) Geom=Check Guess=Read
 ----------------------------------------------------------------------

 TstMul:  Mul=     2
 TstMul:  ICh=     0
 TstMul:  Mul=     2
 Structure from the checkpoint file:  "MN_45_hclhts_BH76_B97DBJ_631Gs.chk"
 Charge =  0 Multiplicity = 2

                         Standard orientation:
 ---------------------------------------------------------------------
 Center     Atomic      Atomic             Coordinates (Angstroms)
 Number     Number       Type             X           Y           Z
 ---------------------------------------------------------------------
      1          1           0        0.000000    0.000000    1.508210
      2         17           0        0.000000    0.000000    0.000000
      3          1           0        0.000000    0.000000   -1.508210
 ---------------------------------------------------------------------

 SCF Done:  E(UB97D3) =  -461.282804143     A.U. after    1 cycles

 The electronic state is 2-SGG.
 Alpha  occ. eigenvalues -- -100.67091  -9.24951  -7.09090  -7.07615  -7.07615
 Alpha  occ. eigenvalues --   -0.77542  -0.48410  -0.29910  -0.29910  -0.21609
 Alpha virt. eigenvalues --   -0.00304   0.36126   0.39857   0.39857   0.58790
 Alpha virt. eigenvalues --    0.61366   0.68344   0.76166   0.76166   0.78991
 Alpha virt. eigenvalues --    0.78991   1.01061
  Beta  occ. eigenvalues -- -100.67006  -9.24887  -7.09064  -7.07532  -7.07532
  Beta  occ. eigenvalues --   -0.76681  -0.45706  -0.29318  -0.29318
  Beta virt. eigenvalues --   -0.16777   0.00681   0.35953   0.39861   0.39861
  Beta virt. eigenvalues --    0.57648   0.60400   0.70903   0.76105   0.76105
  Beta virt. eigenvalues --    0.80180   0.80180   1.03649

 Mulliken charges and spin densities:
               1          2
     1  H    0.106194   0.501206
     2  Cl  -0.212388  -0.002412
     3  H    0.106194   0.501206
 Sum of Mulliken charges =   0.00000   1.00000

 Dipole moment (field-independent basis, Debye):
    X=              0.0000    Y=             -0.0000    Z=             -0.0000  Tot=              0.0000
 Quadrupole moment (field-independent basis, Debye-Ang):
   XX=            -15.0494   YY=            -15.0494   ZZ=            -11.7957
   XY=             -0.0000   XZ=             -0.0000   YZ=              0.0000

  Exact polarizability:   6.365  -0.000   6.365   0.000   0.000  39.228
 Approx polarizability:   8.788  -0.000   8.788   0.000   0.000  79.105

 ******    3 imaginary frequencies (negative Signs) ******

                      1                      2                      3
                     SGU                    PIU                    PIU
 Frequencies --  -1059.8202              -304.8016              -304.8016
 Red. masses --      1.0641                 1.0641                 1.0641
 Frc consts  --      0.7042                 0.0582                 0.0582
 IR Inten    --    894.1070                42.4887                42.4887

                      4
                     SGG
 Frequencies --   1746.8141
 Red. masses --      1.0078
 Frc consts  --      1.8119
 IR Inten    --      0.0000

 - Thermochemistry -
 -------------------
 Temperature   298.150 Kelvin.  Pressure   1.00000 Atm.
 Atom     1 has atomic number  1 and mass   1.00783

 Molecular mass:    36.98450 amu.
 Principal axes and moments of inertia in atomic units:
                           1         2         3
     Eigenvalues --     0.00000  16.37330  16.37330
           X           -0.00000   1.00000   0.00000
           Y            0.00000   0.00000   1.00000
           Z            1.00000   0.00000   0.00000
 This molecule is a prolate symmetric top.
 Rotational symmetry number  2.
 Rotational temperature (Kelvin)      5.28995
 Rotational constant (GHZ):         110.224643
    3 imaginary frequencies ignored.
 Zero-point vibrational energy      10448.3 (Joules/Mol)
                                    2.49720 (Kcal/Mol)
 Vibrational temperatures:   2513.28
          (Kelvin)

 Zero-point correction=                           0.003980 (Hartree/Particle)
 Thermal correction to Energy=                    0.006342
 Thermal correction to Enthalpy=                  0.007286
 Thermal correction to Gibbs Free Energy=        -0.014930
 Sum of electronic and zero-point Energies=           -461.278825
 Sum of electronic and thermal Energies=              -461.276462
 Sum of electronic and thermal Enthalpies=            -461.275518
 Sum of electronic and thermal Free Energies=         -461.297734

                     E (Thermal)             CV                S
                      KCal/Mol        Cal/Mol-Kelvin    Cal/Mol-Kelvin
 Total                    3.979              4.999             46.756
 Electronic               0.000              0.000              1.377
 Translational            0.889              2.981             36.753
 Rotational               0.592              1.987              8.622
 Vibrational              2.498              0.031              0.004

 Optimization completed.
    -- Stationary point found.
 Normal termination of Gaussian 16 at Wed Oct  7 14:03:08 2020.
