 Gaussian 16, Revision A.03,

 ----------------------------------------------------------------------
 #P Opt(TS,MaxCyc=150,NoEigenTest,MaxStep=10,AddRedundant) B97D3/6-31G*
  5D 7F Integral=UltraFineGrid SCF=(NoSymm,XQC,MaxCyc=120) IOp(1/33=1)
 ----------------------------------------------------------------------

 TstMul:  Mul=     2
 TstMul:  ICh=     0
 TstMul:  Mul=     2
 Symbolic Z-matrix:
 Charge =  0 Multiplicity = 2

 SCF Done:  E(UB97D3) =  -113.739011871     A.U. after   15 cycles
 SCF Done:  E(UB97D3) =  -113.739339298     A.U. after   14 cycles
 SCF Done:  E(UB97D3) =  -113.739161742     A.U. after   10 cycles
 SCF Done:  E(UB97D3) =  -113.738696723     A.U. after   14 cycles
 SCF Done:  E(UB97D3) =  -113.738113107     A.U. after   14 cycles
 SCF Done:  E(UB97D3) =  -113.737683791     A.U. after   13 cycles
 SCF Done:  E(UB97D3) =  -113.737516020     A.U. after   10 cycles
 SCF Done:  E(UB97D3) =  -113.737411029     A.U. after   10 cycles
 SCF Done:  E(UB97D3) =  -113.737369245     A.U. after    9 cycles
 SCF Done:  E(UB97D3) =  -113.737344669     A.U. after    9 cycles
 SCF Done:  E(UB97D3) =  -113.734798227     A.U. after   14 cycles
 SCF Done:  E(UB97D3) =  -113.734511558     A.U. after   13 cycles
 SCF Done:  E(UB97D3) =  -113.734330253     A.U. after   14 cycles
 SCF Done:  E(UB97D3) =  -113.734246102     A.U. after   14 cycles
 SCF Done:  E(UB97D3) =  -113.734233285     A.U. after   14 cycles
 SCF Done:  E(UB97D3) =  -113.734239547     A.U. after   10 cycles
 SCF Done:  E(UB97D3) =  -113.734246207     A.U. after   10 cycles
 SCF Done:  E(UB97D3) =  -113.734243045     A.U. after   13 cycles
 SCF Done:  E(UB97D3) =  -113.734243066     A.U. after    8 cycles
 Optimization completed.
    -- Stationary point found.
 Normal termination of Gaussian 16 at Wed Oct  7 14:08:34 2020.
 Gaussian 16:  ES64L-G16RevA.03 25-Dec-2016

 ----------------------------------------------------------------------
 #P Freq B97D3/6-31G* 5D 7F Integral=UltraFineGrid SCF=(NoSymm,XQC,MaxC
 yc=120) IOp(1/33=1) Geom=Check Guess=Read
 ----------------------------------------------------------------------

 TstMul:  Mul=     2
 TstMul:  ICh=     0
 TstMul:  Mul=     2
 Structure from the checkpoint file:  "MN_51_hcots_BH76_B97DBJ_631Gs.chk"
 Charge =  0 Multiplicity = 2

                         Standard orientation:
 ---------------------------------------------------------------------
 Center     Atomic      Atomic             Coordinates (Angstroms)
 Number     Number       Type             X           Y           Z
 ---------------------------------------------------------------------
      1          1           0       -1.935652    1.547734    0.000000
      2          6           0        0.138261    0.545656    0.000000
      3          8           0        0.138261   -0.602709    0.000000
 ---------------------------------------------------------------------

 SCF Done:  E(UB97D3) =  -113.734243066     A.U. after    1 cycles

 The electronic state is 2-A'.
 Alpha  occ. eigenvalues --  -18.86926 -10.02790  -1.06208  -0.50716  -0.41637
 Alpha  occ. eigenvalues --   -0.41442  -0.33687  -0.24929
 Alpha virt. eigenvalues --   -0.06068  -0.04870   0.24068   0.48746   0.50725
 Alpha virt. eigenvalues --    0.58661   0.67835   0.75200   0.79613   0.87104
 Alpha virt. eigenvalues --    0.88204   1.41406   1.41944   1.44958   1.45871

  Beta  occ. eigenvalues --  -18.86872 -10.02744  -1.06050  -0.50526  -0.41319
  Beta  occ. eigenvalues --   -0.41282  -0.32411
  Beta virt. eigenvalues --   -0.12674  -0.05878  -0.03268   0.23746   0.48556
  Beta virt. eigenvalues --    0.50772   0.60161   0.68189   0.79251   0.87112
  Beta virt. eigenvalues --    0.88270   1.02795   1.41609   1.42217   1.44838

 Mulliken charges and spin densities:
               1          2
     1  H   -0.004489   0.928571
     2  C    0.155706   0.042845
     3  O   -0.151217   0.028584
 Sum of Mulliken charges =  -0.00000   1.00000

 Dipole moment (field-independent basis, Debye):
    X=             -0.0083    Y=             -0.0610    Z=              0.0000  Tot=              0.0615
 Quadrupole moment (field-independent basis, Debye-Ang):
   XX=            -11.1766   YY=            -13.0522   ZZ=            -11.1226
   XY=             -0.0412   XZ=              0.0000   YZ=              0.0000

  Exact polarizability:  16.828  -4.669  15.644   0.000  -0.000   8.070
 Approx polarizability:  24.576  -5.765  32.325   0.000  -0.000  13.046

 ******    1 imaginary frequencies (negative Signs) ******

                      1                      2                      3
                     A'                     A'                     A'
 Frequencies --   -469.7736               202.1301              2106.5187
 Red. masses --      1.0882                 1.6120                13.3959
 Frc consts  --      0.1415                 0.0388                35.0229
 IR Inten    --      4.0426                 0.6703                92.0961

 - Thermochemistry -
 -------------------
 Temperature   298.150 Kelvin.  Pressure   1.00000 Atm.
 Atom     1 has atomic number  1 and mass   1.00783

 Molecular mass:    29.00274 amu.
 Principal axes and moments of inertia in atomic units:
                           1         2         3
     Eigenvalues --    10.40197  46.37992  56.78189
           X           -0.35522   0.93478   0.00000
           Y            0.93478   0.35522   0.00000
           Z            0.00000   0.00000   1.00000
 This molecule is an asymmetric top.
 Rotational symmetry number  1.
 Rotational temperatures (Kelvin)      8.32669     1.86749     1.52538
 Rotational constants (GHZ):         173.49998    38.91212    31.78375
    1 imaginary frequencies ignored.
 Zero-point vibrational energy      13808.8 (Joules/Mol)
                                    3.30038 (Kcal/Mol)
 Warning -- explicit consideration of   1 degrees of freedom as
           vibrations may cause significant error
 Vibrational temperatures:    290.82  3030.81
          (Kelvin)

 Zero-point correction=                           0.005259 (Hartree/Particle)
 Thermal correction to Energy=                    0.008650
 Thermal correction to Enthalpy=                  0.009594
 Thermal correction to Gibbs Free Energy=        -0.017715
 Sum of electronic and zero-point Energies=           -113.728984
 Sum of electronic and thermal Energies=              -113.725593
 Sum of electronic and thermal Enthalpies=            -113.724649
 Sum of electronic and thermal Free Energies=         -113.751958

                     E (Thermal)             CV                S
                      KCal/Mol        Cal/Mol-Kelvin    Cal/Mol-Kelvin
 Total                    5.428              7.806             57.476
 Electronic               0.000              0.000              1.377
 Translational            0.889              2.981             36.028
 Rotational               0.889              2.981             17.956
 Vibrational              3.650              1.845              2.114
 Vibration     1          0.639              1.837              2.114

 Optimization completed.
    -- Stationary point found.
 Normal termination of Gaussian 16 at Wed Oct  7 14:09:06 2020.
