 Gaussian 16, Revision A.03,
 Gaussian 16:  ES64L-G16RevA.03 25-Dec-2016

 ----------------------------------------------------------------------
 #P Opt(MaxCyc=100) B97D3/6-31G* 5D 7F Integral=UltraFineGrid SCF=(NoSy
 mm,XQC,MaxCyc=120) IOp(1/33=1)
 ----------------------------------------------------------------------

 TstMul:  Mul=     1
 TstMul:  ICh=     0
 TstMul:  Mul=     1
 Symbolic Z-matrix:
 Charge =  0 Multiplicity = 1

 SCF Done:  E(RB97D3) =  -100.373355714     A.U. after   10 cycles
 SCF Done:  E(RB97D3) =  -100.373827305     A.U. after    7 cycles
 SCF Done:  E(RB97D3) =  -100.373832381     A.U. after    6 cycles
 Optimization completed.
    -- Stationary point found.

                         Standard orientation:
 ---------------------------------------------------------------------
 Center     Atomic      Atomic             Coordinates (Angstroms)
 Number     Number       Type             X           Y           Z
 ---------------------------------------------------------------------
      1          9           0        0.000000    0.000000    0.093687
      2          1           0        0.000000    0.000000   -0.843181
 ---------------------------------------------------------------------

 The electronic state is 1-SG.
 Alpha  occ. eigenvalues --  -24.21935  -1.06619  -0.45755  -0.30673  -0.30673
 Alpha virt. eigenvalues --    0.04278   0.74808   1.12362   1.12362   1.20802
 Alpha virt. eigenvalues --    1.57766   1.73054   1.73054   1.79899   1.79899
 Alpha virt. eigenvalues --    2.52267

 Mulliken charges:
               1
     1  F   -0.478550
     2  H    0.478550
 Sum of Mulliken charges =   0.00000

 Dipole moment (field-independent basis, Debye):
    X=              0.0000    Y=              0.0000    Z=             -1.8373  Tot=              1.8373
 Quadrupole moment (field-independent basis, Debye-Ang):
   XX=             -5.3820   YY=             -5.3820   ZZ=             -3.3653
   XY=              0.0000   XZ=              0.0000   YZ=              0.0000

 Normal termination of Gaussian 16 at Wed Oct  7 14:03:12 2020.
