 Gaussian 16, Revision A.03,
 Gaussian 16:  ES64L-G16RevA.03 25-Dec-2016

 ----------------------------------------------------------------------
 #P Opt(MaxCyc=100) B97D3/6-31G* 5D 7F Integral=UltraFineGrid SCF=(NoSy
 mm,XQC,MaxCyc=120) IOp(1/33=1)
 ----------------------------------------------------------------------

 TstMul:  Mul=     2
 TstMul:  ICh=     0
 TstMul:  Mul=     2
 Symbolic Z-matrix:
 Charge =  0 Multiplicity = 2

 SCF Done:  E(UB97D3) =  -109.960317289     A.U. after   15 cycles
 SCF Done:  E(UB97D3) =  -109.960723800     A.U. after   13 cycles
 SCF Done:  E(UB97D3) =  -109.960743256     A.U. after   10 cycles
 SCF Done:  E(UB97D3) =  -109.960743852     A.U. after    9 cycles
 Optimization completed.
    -- Stationary point found.

                         Standard orientation:
 ---------------------------------------------------------------------
 Center     Atomic      Atomic             Coordinates (Angstroms)
 Number     Number       Type             X           Y           Z
 ---------------------------------------------------------------------
      1          7           0       -0.063420    0.665296    0.000000
      2          7           0       -0.063420   -0.521486    0.000000
      3          1           0        0.887885   -1.006671    0.000000
 ---------------------------------------------------------------------

 The electronic state is 2-A'.
 Alpha  occ. eigenvalues --  -14.08999 -14.07655  -0.98547  -0.61137  -0.42620
 Alpha  occ. eigenvalues --   -0.38222  -0.36199  -0.16626
 Alpha virt. eigenvalues --   -0.08692   0.06114   0.33944   0.58828   0.59383
 Alpha virt. eigenvalues --    0.61610   0.64001   0.69526   0.71103   0.77096
 Alpha virt. eigenvalues --    0.89300   1.20395   1.39984   1.41618   1.42257

  Beta  occ. eigenvalues --  -14.08820 -14.06907  -0.96594  -0.58853  -0.38959
  Beta  occ. eigenvalues --   -0.36993  -0.33113
  Beta virt. eigenvalues --   -0.10131  -0.06871   0.05812   0.35207   0.59425
  Beta virt. eigenvalues --    0.59805   0.63166   0.68008   0.71070   0.71988
  Beta virt. eigenvalues --    0.78388   0.89755   1.21795   1.41884   1.44080

 Mulliken charges and spin densities:
               1          2
     1  N   -0.082742   0.730218
     2  N   -0.223101   0.129144
     3  H    0.305842   0.140638
 Sum of Mulliken charges =   0.00000   1.00000

 Dipole moment (field-independent basis, Debye):
    X=              1.3970    Y=             -1.2598    Z=              0.0000  Tot=              1.8812
 Quadrupole moment (field-independent basis, Debye-Ang):
   XX=            -10.6469   YY=            -11.8292   ZZ=            -10.9509
   XY=             -1.3577   XZ=              0.0000   YZ=              0.0000

 1\1\GINC-NODE61\FOpt\UB97D3\6-31G(d)\H1N2(2)\RPEVERATI\07-Oct-2020\0\\
 #P Opt(MaxCyc=100) B97D3/6-31G* 5D 7F Integral=UltraFineGrid SCF=(NoSy
 mm,XQC,MaxCyc=120) IOp(1/33=1)\\TS search on BH76.\\0,2\N,-0.069098919
 1,0.6707622704,0.\N,-0.0668967658,-0.5160180743,0.\H,0.8853074404,-0.9
 994369686,0.\\Version=ES64L-G16RevA.03\State=2-A'\HF=-109.9607439\S2=0
 .754261\S2-1=0.\S2A=0.750013\RMSD=6.213e-09\RMSF=1.054e-04\Dipole=0.55
 05362,-0.4946342,0.\Quadrupole=0.3720612,-0.5144149,0.1423536,-1.00780
 7,0.,0.\PG=CS [SG(H1N2)]\\@

 Normal termination of Gaussian 16 at Wed Oct  7 14:04:11 2020.
