 Gaussian 16, Revision A.03,

 ----------------------------------------------------------------------
 #P Opt(TS,MaxCyc=50,NoEigenTest,MaxStep=10,AddRedundant) B97D3/6-31G*
 5D 7F Integral=UltraFineGrid SCF=(NoSymm,XQC,MaxCyc=120) IOp(1/33=1)
 ----------------------------------------------------------------------

 TstMul:  Mul=     2
 TstMul:  ICh=     0
 TstMul:  Mul=     2
 Symbolic Z-matrix:
 Charge =  0 Multiplicity = 2

 SCF Done:  E(UB97D3) =  -100.816236615     A.U. after   10 cycles
 SCF Done:  E(UB97D3) =  -100.817833551     A.U. after    9 cycles
 SCF Done:  E(UB97D3) =  -100.818529972     A.U. after    9 cycles
 SCF Done:  E(UB97D3) =  -100.818583453     A.U. after    7 cycles
 SCF Done:  E(UB97D3) =  -100.818584036     A.U. after    7 cycles
 Optimization completed.
    -- Stationary point found.
 Normal termination of Gaussian 16 at Wed Oct  7 14:03:35 2020.
 Gaussian 16:  ES64L-G16RevA.03 25-Dec-2016

 ----------------------------------------------------------------------
 #P Freq B97D3/6-31G* 5D 7F Integral=UltraFineGrid SCF=(NoSymm,XQC,MaxC
 yc=120) IOp(1/33=1) Geom=Check Guess=Read
 ----------------------------------------------------------------------

 TstMul:  Mul=     2
 TstMul:  ICh=     0
 TstMul:  Mul=     2
 Structure from the checkpoint file:  "MN_54_hfhts_BH76_B97DBJ_631Gs.chk"
 Charge =  0 Multiplicity = 2

                         Standard orientation:
 ---------------------------------------------------------------------
 Center     Atomic      Atomic             Coordinates (Angstroms)
 Number     Number       Type             X           Y           Z
 ---------------------------------------------------------------------
      1          1           0        0.000000    0.000000    1.198397
      2          9           0        0.000000    0.000000    0.000000
      3          1           0        0.000000    0.000000   -1.198397
 ---------------------------------------------------------------------

 SCF Done:  E(UB97D3) =  -100.818584036     A.U. after    1 cycles

 The electronic state is 2-SGG.
 Alpha  occ. eigenvalues --  -24.26507  -1.06657  -0.52330  -0.33447  -0.33447
 Alpha  occ. eigenvalues --   -0.15665
 Alpha virt. eigenvalues --   -0.01030   0.57740   0.71158   1.09495   1.09495
 Alpha virt. eigenvalues --    1.52191   1.58332   1.70603   1.70603   1.77910
 Alpha virt. eigenvalues --    1.77910   2.22267
  Beta  occ. eigenvalues --  -24.26299  -1.06155  -0.50063  -0.33121  -0.33121
  Beta virt. eigenvalues --   -0.11369   0.00254   0.61338   0.75575   1.09644
  Beta virt. eigenvalues --    1.09644   1.52127   1.60514   1.70499   1.70499
  Beta virt. eigenvalues --    1.77940   1.77940   2.24700

 Mulliken charges and spin densities:
               1          2
     1  H    0.184135   0.526355
     2  F   -0.368270  -0.052711
     3  H    0.184135   0.526355
 Sum of Mulliken charges =  -0.00000   1.00000

 Dipole moment (field-independent basis, Debye):
    X=              0.0000    Y=              0.0000    Z=              0.0000  Tot=              0.0000
 Quadrupole moment (field-independent basis, Debye-Ang):
   XX=             -6.9285   YY=             -6.9285   ZZ=             -4.6375
   XY=             -0.0000   XZ=             -0.0000   YZ=              0.0000

  Exact polarizability:   1.966  -0.000   1.966   0.000  -0.000  36.285
 Approx polarizability:   2.383  -0.000   2.383  -0.000  -0.000  75.167

 ******    3 imaginary frequencies (negative Signs) ******

                      1                      2                      3
                     SGU                    PIU                    PIU
 Frequencies --  -2200.5038              -170.5327              -170.5327
 Red. masses --      1.1085                 1.1085                 1.1085
 Frc consts  --      3.1625                 0.0190                 0.0190
 IR Inten    --   3782.9582                42.1882                42.1882

                      4
                     SGG
 Frequencies --   2021.8926
 Red. masses --      1.0078
 Frc consts  --      2.4275
 IR Inten    --      0.0000

 - Thermochemistry -
 -------------------
 Temperature   298.150 Kelvin.  Pressure   1.00000 Atm.
 Atom     1 has atomic number  1 and mass   1.00783

 Molecular mass:    21.01405 amu.
 Principal axes and moments of inertia in atomic units:
                           1         2         3
     Eigenvalues --     0.00000  10.33748  10.33748
           X           -0.00000   1.00000   0.00000
           Y            0.00000   0.00000   1.00000
           Z            1.00000   0.00000   0.00000
 This molecule is a prolate symmetric top.
 Rotational symmetry number  2.
 Rotational temperature (Kelvin)      8.37863
 Rotational constant (GHZ):         174.582368
    3 imaginary frequencies ignored.
 Zero-point vibrational energy      12093.6 (Joules/Mol)
                                    2.89044 (Kcal/Mol)
 Vibrational temperatures:   2909.05
          (Kelvin)

 Zero-point correction=                           0.004606 (Hartree/Particle)
 Thermal correction to Energy=                    0.006967
 Thermal correction to Enthalpy=                  0.007911
 Thermal correction to Gibbs Free Energy=        -0.013068
 Sum of electronic and zero-point Energies=           -100.813978
 Sum of electronic and thermal Energies=              -100.811617
 Sum of electronic and thermal Enthalpies=            -100.810673
 Sum of electronic and thermal Free Energies=         -100.831652

                     E (Thermal)             CV                S
                      KCal/Mol        Cal/Mol-Kelvin    Cal/Mol-Kelvin
 Total                    4.372              4.979             44.155
 Electronic               0.000              0.000              1.377
 Translational            0.889              2.981             35.068
 Rotational               0.592              1.987              7.708
 Vibrational              2.891              0.011              0.001

 Optimization completed.
    -- Stationary point found.

 1\1\GINC-NODE37\Freq\UB97D3\6-31G(d)\F1H2(2)\RPEVERATI\07-Oct-2020\0\\
 #P Freq B97D3/6-31G* 5D 7F Integral=UltraFineGrid SCF=(NoSymm,XQC,MaxC
 yc=120) IOp(1/33=1) Geom=Check Guess=Read\\TS search on BH76.\\0,2\H,0
 .,0.,1.1983973527\F,0.,0.,0.\H,0.,0.,-1.1983973527\\Version=ES64L-G16R
 evA.03\State=2-SGG\HF=-100.818584\S2=0.753643\S2-1=0.\S2A=0.750001\RMS
 D=1.541e-10\RMSF=4.114e-06\ZeroPoint=0.0046062\Thermal=0.0069672\Dipol
 e=0.,0.,0.\DipoleDeriv=0.140411,0.,0.,0.,0.140411,0.,0.,0.,-1.3296011,
 -0.280822,0.,0.,0.,-0.280822,0.,0.,0.,2.6592021,0.140411,0.,0.,0.,0.14

 Normal termination of Gaussian 16 at Wed Oct  7 14:03:58 2020.
