 Gaussian 16, Revision A.03,
 Gaussian 16:  ES64L-G16RevA.03 25-Dec-2016

 ----------------------------------------------------------------------
 #P Opt(MaxCyc=100) B97D3/6-31G* 5D 7F Integral=UltraFineGrid SCF=(NoSy
 mm,XQC,MaxCyc=120) IOp(1/33=1)
 ----------------------------------------------------------------------

 TstMul:  Mul=     2
 TstMul:  ICh=     0
 TstMul:  Mul=     2
 Symbolic Z-matrix:
 Charge =  0 Multiplicity = 2

 SCF Done:  E(UB97D3) =  -113.780420801     A.U. after   14 cycles
 SCF Done:  E(UB97D3) =  -113.781062872     A.U. after   13 cycles
 SCF Done:  E(UB97D3) =  -113.781077132     A.U. after   10 cycles
 Optimization completed.
    -- Stationary point found.

                         Standard orientation:
 ---------------------------------------------------------------------
 Center     Atomic      Atomic             Coordinates (Angstroms)
 Number     Number       Type             X           Y           Z
 ---------------------------------------------------------------------
      1          1           0       -0.887980    1.211474    0.000000
      2          6           0        0.063427    0.594622    0.000000
      3          8           0        0.063427   -0.597401    0.000000
 ---------------------------------------------------------------------

 The electronic state is 2-A'.
 Alpha  occ. eigenvalues --  -18.83095 -10.00905  -1.01402  -0.55354  -0.43657
 Alpha  occ. eigenvalues --   -0.38276  -0.37363  -0.17073
 Alpha virt. eigenvalues --   -0.08110   0.10898   0.21630   0.48585   0.49704
 Alpha virt. eigenvalues --    0.61059   0.64165   0.76920   0.82991   0.88818
 Alpha virt. eigenvalues --    0.93334   1.42354   1.43556   1.43881   1.45109

  Beta  occ. eigenvalues --  -18.82587 -10.00553  -0.99797  -0.53064  -0.41597
  Beta  occ. eigenvalues --   -0.37100  -0.33309
  Beta virt. eigenvalues --   -0.10895  -0.06054   0.10869   0.22011   0.48966
  Beta virt. eigenvalues --    0.52037   0.61795   0.66133   0.77519   0.83841
  Beta virt. eigenvalues --    0.89301   0.95171   1.43912   1.45875   1.46903

 Mulliken charges and spin densities:
               1          2
     1  H    0.142651   0.133460
     2  C    0.083054   0.601984
     3  O   -0.225705   0.264556
 Sum of Mulliken charges =  -0.00000   1.00000

 Dipole moment (field-independent basis, Debye):
    X=             -0.8746    Y=              1.1928    Z=              0.0000  Tot=              1.4791
 Quadrupole moment (field-independent basis, Debye-Ang):
   XX=            -11.0695   YY=            -11.2978   ZZ=            -10.5883
   XY=             -0.9431   XZ=              0.0000   YZ=              0.0000

 Normal termination of Gaussian 16 at Wed Oct  7 14:03:05 2020.
