 Gaussian 16, Revision A.03,

 ----------------------------------------------------------------------
 #P Opt(TS,MaxCyc=50,NoEigenTest,MaxStep=10,AddRedundant) B97D3/6-31G*
 5D 7F Integral=UltraFineGrid SCF=(NoSymm,XQC,MaxCyc=120) IOp(1/33=1)
 ----------------------------------------------------------------------

 TstMul:  Mul=     2
 TstMul:  ICh=     0
 TstMul:  Mul=     2
 Symbolic Z-matrix:
 Charge =  0 Multiplicity = 2

 SCF Done:  E(UB97D3) =  -199.911515583     A.U. after   18 cycles
 SCF Done:  E(UB97D3) =  -199.914105524     A.U. after   16 cycles
 SCF Done:  E(UB97D3) =  -199.911496686     A.U. after   15 cycles
 SCF Done:  E(UB97D3) =  -199.909624350     A.U. after   15 cycles
 SCF Done:  E(UB97D3) =  -199.908110618     A.U. after   15 cycles
 SCF Done:  E(UB97D3) =  -199.906907008     A.U. after   15 cycles
 SCF Done:  E(UB97D3) =  -199.905968545     A.U. after   16 cycles
 SCF Done:  E(UB97D3) =  -199.905264804     A.U. after   18 cycles
 SCF Done:  E(UB97D3) =  -199.904765242     A.U. after   20 cycles
 SCF Done:  E(UB97D3) =  -199.904488193     A.U. after   20 cycles
 SCF Done:  E(UB97D3) =  -199.904384360     A.U. after   18 cycles
 SCF Done:  E(UB97D3) =  -199.904368467     A.U. after   16 cycles
 SCF Done:  E(UB97D3) =  -199.904367393     A.U. after   12 cycles
 Optimization completed.
    -- Stationary point found.
 Normal termination of Gaussian 16 at Wed Oct  7 14:05:04 2020.
 Gaussian 16:  ES64L-G16RevA.03 25-Dec-2016

 ----------------------------------------------------------------------
 #P Freq B97D3/6-31G* 5D 7F Integral=UltraFineGrid SCF=(NoSymm,XQC,MaxC
 yc=120) IOp(1/33=1) Geom=Check Guess=Read
 ----------------------------------------------------------------------

 TstMul:  Mul=     2
 TstMul:  ICh=     0
 TstMul:  Mul=     2
 Structure from the checkpoint file:  "MN_52_hf2ts_BH76_B97DBJ_631Gs.chk"
 Charge =  0 Multiplicity = 2

                         Standard orientation:
 ---------------------------------------------------------------------
 Center     Atomic      Atomic             Coordinates (Angstroms)
 Number     Number       Type             X           Y           Z
 ---------------------------------------------------------------------
      1          1           0        0.000000    0.000000   -2.662482
      2          9           0        0.000000    0.000000   -0.580330
      3          9           0        0.000000    0.000000    0.876162
 ---------------------------------------------------------------------

 SCF Done:  E(UB97D3) =  -199.904367393     A.U. after    1 cycles

 The electronic state is 2-SG.
 Alpha  occ. eigenvalues --  -24.33060 -24.32312  -1.18741  -0.98812  -0.52008
 Alpha  occ. eigenvalues --   -0.41833  -0.41833  -0.30913  -0.30913  -0.29079
 Alpha virt. eigenvalues --   -0.18266   0.68554   1.02109   1.02109   1.09565
 Alpha virt. eigenvalues --    1.20258   1.20258   1.22966   1.24901   1.49652
 Alpha virt. eigenvalues --    1.49652   1.66028   1.66028   1.67089   1.86351

  Beta  occ. eigenvalues --  -24.33053 -24.32095  -1.18341  -0.98476  -0.51347
  Beta  occ. eigenvalues --   -0.41664  -0.41664  -0.30695  -0.30695
  Beta virt. eigenvalues --   -0.18614   0.47138   1.02147   1.02147   1.10982
  Beta virt. eigenvalues --    1.20287   1.20287   1.22255   1.25809   1.49759
  Beta virt. eigenvalues --    1.49759   1.65971   1.66046   1.66046   1.68103

 Mulliken charges and spin densities:
               1          2
     1  H    0.075188   0.919931
     2  F   -0.040764  -0.015823
     3  F   -0.034424   0.095893
 Sum of Mulliken charges =   0.00000   1.00000

 Dipole moment (field-independent basis, Debye):
    X=              0.0000    Y=              0.0000    Z=             -0.9767  Tot=              0.9767
 Quadrupole moment (field-independent basis, Debye-Ang):
   XX=            -10.4796   YY=            -10.4796   ZZ=             -7.0801
   XY=              0.0000   XZ=              0.0000   YZ=              0.0000

  Exact polarizability:   2.827  -0.000   2.827   0.000  -0.000  31.447
 Approx polarizability:   3.592  -0.000   3.592   0.000  -0.000  71.341

 ******    1 imaginary frequencies (negative Signs) ******

                      1                      2                      3
                     SG                     PI                     PI
 Frequencies --   -482.0674               173.9115               173.9115
 Red. masses --      1.1218                 1.4013                 1.4013
 Frc consts  --      0.1536                 0.0250                 0.0250
 IR Inten    --    155.6918                 4.3263                 4.3263

                      4
                     SG
 Frequencies --    833.6685
 Red. masses --      7.7438
 Frc consts  --      3.1710
 IR Inten    --    108.3632

 - Thermochemistry -
 -------------------
 Temperature   298.150 Kelvin.  Pressure   1.00000 Atm.
 Atom     1 has atomic number  1 and mass   1.00783

 Molecular mass:    39.00463 amu.
 Principal axes and moments of inertia in atomic units:
                           1         2         3
     Eigenvalues --     0.00000  99.65334  99.65334
           X            0.00000   0.00000   1.00000
           Y            0.00000   1.00000   0.00000
           Z            1.00000   0.00000   0.00000
 This molecule is a prolate symmetric top.
 Rotational symmetry number  1.
 Rotational temperature (Kelvin)      0.86915
 Rotational constant (GHZ):          18.110192
    1 imaginary frequencies ignored.
 Zero-point vibrational energy       7066.9 (Joules/Mol)
                                    1.68903 (Kcal/Mol)
 Warning -- explicit consideration of   2 degrees of freedom as
           vibrations may cause significant error
 Vibrational temperatures:    250.22   250.22  1199.46
          (Kelvin)

 Zero-point correction=                           0.002692 (Hartree/Particle)
 Thermal correction to Energy=                    0.006327
 Thermal correction to Enthalpy=                  0.007271
 Thermal correction to Gibbs Free Energy=        -0.019738
 Sum of electronic and zero-point Energies=           -199.901676
 Sum of electronic and thermal Energies=              -199.898041
 Sum of electronic and thermal Enthalpies=            -199.897096
 Sum of electronic and thermal Free Energies=         -199.924105

                     E (Thermal)             CV                S
                      KCal/Mol        Cal/Mol-Kelvin    Cal/Mol-Kelvin
 Total                    3.970              9.314             56.844
 Electronic               0.000              0.000              1.377
 Translational            0.889              2.981             36.912
 Rotational               0.592              1.987             13.588
 Vibrational              2.489              4.346              4.967
 Vibration     1          0.627              1.875              2.393
 Vibration     2          0.627              1.875              2.393

 Optimization completed.
    -- Stationary point found.

 1\1\GINC-NODE59\Freq\UB97D3\6-31G(d)\F2H1(2)\RPEVERATI\07-Oct-2020\0\\
 #P Freq B97D3/6-31G* 5D 7F Integral=UltraFineGrid SCF=(NoSymm,XQC,MaxC
 yc=120) IOp(1/33=1) Geom=Check Guess=Read\\TS search on BH76.\\0,2\H,0
 .,0.,-2.5347175004\F,0.,0.,-0.4525654077\F,0.,0.,1.003926722\\Version=
 ES64L-G16RevA.03\State=2-SG\HF=-199.9043674\S2=0.752146\S2-1=0.\S2A=0.
 75\RMSD=5.147e-10\RMSF=1.613e-05\ZeroPoint=0.0026916\Thermal=0.0063269
 \Dipole=0.,0.,-0.3842463\DipoleDeriv=0.0761965,0.,0.,0.,0.0761965,0.,0
 .,0.,-0.2835617,-0.0455169,0.,0.,0.,-0.0455169,0.,0.,0.,1.4815448,-0.0

 Normal termination of Gaussian 16 at Wed Oct  7 14:05:25 2020.
