 Gaussian 16, Revision A.03,

 ----------------------------------------------------------------------
 #P Opt(TS,MaxCyc=50,NoEigenTest,MaxStep=10,AddRedundant) B97D3/6-31G*
 5D 7F Integral=UltraFineGrid SCF=(NoSymm,XQC,MaxCyc=120) IOp(1/33=1)
 ----------------------------------------------------------------------

 TstMul:  Mul=     2
 TstMul:  ICh=     0
 TstMul:  Mul=     2
 Symbolic Z-matrix:
 Charge =  0 Multiplicity = 2

 SCF Done:  E(UB97D3) =  -140.116217603     A.U. after   14 cycles
 SCF Done:  E(UB97D3) =  -140.117822828     A.U. after   14 cycles
 SCF Done:  E(UB97D3) =  -140.116993719     A.U. after   14 cycles
 SCF Done:  E(UB97D3) =  -140.116689633     A.U. after   14 cycles
 SCF Done:  E(UB97D3) =  -140.116659087     A.U. after   14 cycles
 SCF Done:  E(UB97D3) =  -140.116686637     A.U. after    9 cycles
 SCF Done:  E(UB97D3) =  -140.116753158     A.U. after   12 cycles
 SCF Done:  E(UB97D3) =  -140.116775307     A.U. after   12 cycles
 SCF Done:  E(UB97D3) =  -140.116785268     A.U. after   11 cycles
 SCF Done:  E(UB97D3) =  -140.116785657     A.U. after    9 cycles
 Optimization completed.
    -- Stationary point found.
 Normal termination of Gaussian 16 at Wed Oct  7 14:04:54 2020.
 Gaussian 16:  ES64L-G16RevA.03 25-Dec-2016

 ----------------------------------------------------------------------
 #P Freq B97D3/6-31G* 5D 7F Integral=UltraFineGrid SCF=(NoSymm,XQC,MaxC
 yc=120) IOp(1/33=1) Geom=Check Guess=Read
 ----------------------------------------------------------------------

 TstMul:  Mul=     2
 TstMul:  ICh=     0
 TstMul:  Mul=     2
 Structure from the checkpoint file:  "MN_53_hfch3ts_BH76_B97DBJ_631Gs.chk"
 Charge =  0 Multiplicity = 2

                         Standard orientation:
 ---------------------------------------------------------------------
 Center     Atomic      Atomic             Coordinates (Angstroms)
 Number     Number       Type             X           Y           Z
 ---------------------------------------------------------------------
      1          1           0        0.001334    2.086987    0.000000
      2          9           0       -0.000072    0.766255    0.000000
      3          6           0       -0.000072   -0.911968    0.000000
      4          1           0        1.059139   -1.170310    0.000000
      5          1           0       -0.529699   -1.170584    0.917243
      6          1           0       -0.529699   -1.170584   -0.917243
 ---------------------------------------------------------------------

 SCF Done:  E(UB97D3) =  -140.116785657     A.U. after    1 cycles

 The electronic state is 2-A'.
 Alpha  occ. eigenvalues --  -24.22719  -9.95566  -1.02286  -0.64075  -0.43450
 Alpha  occ. eigenvalues --   -0.39411  -0.39409  -0.28695  -0.28695  -0.14899
 Alpha virt. eigenvalues --   -0.00543   0.08881   0.14059   0.14060   0.46505
 Alpha virt. eigenvalues --    0.51953   0.51955   0.67042   0.77742   0.82064
 Alpha virt. eigenvalues --    0.82068   0.96340   1.16030   1.16031   1.47109

  Beta  occ. eigenvalues --  -24.22610  -9.95344  -1.02016  -0.62157  -0.41638
  Beta  occ. eigenvalues --   -0.38635  -0.38632  -0.28514  -0.28514
  Beta virt. eigenvalues --   -0.09838   0.01980   0.09526   0.14677   0.14679
  Beta virt. eigenvalues --    0.48980   0.52167   0.52169   0.70339   0.78502
  Beta virt. eigenvalues --    0.82930   0.82934   0.97817   1.16486   1.16488

 Mulliken charges and spin densities:
               1          2
     1  H    0.080414   0.640147
     2  F   -0.328166  -0.060481
     3  C   -0.278804   0.488979
     4  H    0.175526  -0.022886
     5  H    0.175515  -0.022880
     6  H    0.175515  -0.022880
 Sum of Mulliken charges =   0.00000   1.00000

 Dipole moment (field-independent basis, Debye):
    X=              0.0004    Y=             -1.5523    Z=             -0.0000  Tot=              1.5523
 Quadrupole moment (field-independent basis, Debye-Ang):
   XX=            -12.7376   YY=            -12.0331   ZZ=            -12.7381
   XY=              0.0012   XZ=              0.0000   YZ=              0.0000

  Exact polarizability:  13.062   0.022  49.800  -0.000   0.000  13.062
 Approx polarizability:  17.535   0.047  99.545  -0.000  -0.000  17.534

 ******    1 imaginary frequencies (negative Signs) ******

                      1                      2                      3
                     A'                     A'                     A"
 Frequencies --  -1259.1091               141.5545               141.6103
 Red. masses --      2.0424                 1.1678                 1.1679
 Frc consts  --      1.9077                 0.0138                 0.0138
 IR Inten    --   1167.8747                 6.0356                 6.0341

                      4                      5                      6
                     A"                     A'                     A'
 Frequencies --    812.4718               812.6581               947.7722
 Red. masses --      1.1341                 1.1341                 1.5326
 Frc consts  --      0.4411                 0.4413                 0.8111
 IR Inten    --      0.6828                 0.6803               183.5111

                      7                      8                      9
                     A'                     A"                     A'
 Frequencies --   1196.3310              1450.7441              1450.8650
 Red. masses --      1.2252                 1.0859                 1.0859
 Frc consts  --      1.0332                 1.3465                 1.3467
 IR Inten    --     42.9701                 2.5061                 2.5055

                     10                     11                     12
                     A'                     A"                     A'
 Frequencies --   3063.2651              3207.0500              3207.1439
 Red. masses --      1.0172                 1.1145                 1.1145
 Frc consts  --      5.6235                 6.7538                 6.7543
 IR Inten    --      3.0921                18.0024                17.9835

 - Thermochemistry -
 -------------------
 Temperature   298.150 Kelvin.  Pressure   1.00000 Atm.
 Atom     1 has atomic number  1 and mass   1.00783

 Molecular mass:    35.02970 amu.
 Principal axes and moments of inertia in atomic units:
                           1         2         3
     Eigenvalues --    12.11285 111.51499 111.51596
           X            0.00012   1.00000   0.00000
           Y            1.00000  -0.00012   0.00000
           Z           -0.00000   0.00000   1.00000
 This molecule is an asymmetric top.
 Rotational symmetry number  1.
 Rotational temperatures (Kelvin)      7.15058     0.77670     0.77670
 Rotational constants (GHZ):         148.99393    16.18384    16.18370
    1 imaginary frequencies ignored.
 Zero-point vibrational energy      98282.0 (Joules/Mol)
                                   23.48996 (Kcal/Mol)
 Warning -- explicit consideration of   2 degrees of freedom as
           vibrations may cause significant error
 Vibrational temperatures:    203.67   203.75  1168.97  1169.23  1363.63
          (Kelvin)           1721.25  2087.30  2087.47  4407.36  4614.23
                             4614.36

 Zero-point correction=                           0.037434 (Hartree/Particle)
 Thermal correction to Energy=                    0.041806
 Thermal correction to Enthalpy=                  0.042750
 Thermal correction to Gibbs Free Energy=         0.012454
 Sum of electronic and zero-point Energies=           -140.079352
 Sum of electronic and thermal Energies=              -140.074979
 Sum of electronic and thermal Enthalpies=            -140.074035
 Sum of electronic and thermal Free Energies=         -140.104331

                     E (Thermal)             CV                S
                      KCal/Mol        Cal/Mol-Kelvin    Cal/Mol-Kelvin
 Total                   26.234             11.869             63.764
 Electronic               0.000              0.000              1.377
 Translational            0.889              2.981             36.591
 Rotational               0.889              2.981             19.649
 Vibrational             24.456              5.907              6.146
 Vibration     1          0.615              1.912              2.783
 Vibration     2          0.615              1.912              2.782

 Optimization completed.
    -- Stationary point found.
 Normal termination of Gaussian 16 at Wed Oct  7 14:05:22 2020.
