 Gaussian 16, Revision A.03,

 ----------------------------------------------------------------------
 #P Opt(TS,MaxCyc=50,NoEigenTest,MaxStep=10,AddRedundant) B97D3/6-31G*
 5D 7F Integral=UltraFineGrid SCF=(NoSymm,XQC,MaxCyc=120) IOp(1/33=1)
 ----------------------------------------------------------------------

 TstMul:  Mul=     2
 TstMul:  ICh=     0
 TstMul:  Mul=     2
 Symbolic Z-matrix:
 Charge =  0 Multiplicity = 2

 SCF Done:  E(UB97D3) =  -109.942625967     A.U. after   16 cycles
 SCF Done:  E(UB97D3) =  -109.943053985     A.U. after   14 cycles
 SCF Done:  E(UB97D3) =  -109.942819760     A.U. after   11 cycles
 SCF Done:  E(UB97D3) =  -109.942552608     A.U. after   13 cycles
 SCF Done:  E(UB97D3) =  -109.942535144     A.U. after    9 cycles
 SCF Done:  E(UB97D3) =  -109.942490740     A.U. after   10 cycles
 SCF Done:  E(UB97D3) =  -109.941528240     A.U. after   15 cycles
 SCF Done:  E(UB97D3) =  -109.940939751     A.U. after   15 cycles
 SCF Done:  E(UB97D3) =  -109.940690086     A.U. after   15 cycles
 SCF Done:  E(UB97D3) =  -109.940671596     A.U. after   11 cycles
 SCF Done:  E(UB97D3) =  -109.940671274     A.U. after   10 cycles
 Optimization completed.
    -- Stationary point found.
 Normal termination of Gaussian 16 at Wed Oct  7 14:07:03 2020.
 Gaussian 16:  ES64L-G16RevA.03 25-Dec-2016

 ----------------------------------------------------------------------
 #P Freq B97D3/6-31G* 5D 7F Integral=UltraFineGrid SCF=(NoSymm,XQC,MaxC
 yc=120) IOp(1/33=1) Geom=Check Guess=Read
 ----------------------------------------------------------------------

 TstMul:  Mul=     2
 TstMul:  ICh=     0
 TstMul:  Mul=     2
 Structure from the checkpoint file:  "MN_59_hn2ts_BH76_B97DBJ_631Gs.chk"
 Charge =  0 Multiplicity = 2

                         Standard orientation:
 ---------------------------------------------------------------------
 Center     Atomic      Atomic             Coordinates (Angstroms)
 Number     Number       Type             X           Y           Z
 ---------------------------------------------------------------------
      1          7           0        0.095837   -0.654571    0.000000
      2          7           0        0.095837    0.472639    0.000000
      3          1           0       -1.341717    1.273523    0.000000
 ---------------------------------------------------------------------

 SCF Done:  E(UB97D3) =  -109.940671274     A.U. after    1 cycles

 The electronic state is 2-A'.
 Alpha  occ. eigenvalues --  -14.11959 -14.10579  -1.02741  -0.52008  -0.43104
 Alpha  occ. eigenvalues --   -0.41235  -0.38127  -0.21471
 Alpha virt. eigenvalues --   -0.07428  -0.04726   0.37606   0.56157   0.57514
 Alpha virt. eigenvalues --    0.59572   0.62023   0.70802   0.72083   0.75167
 Alpha virt. eigenvalues --    0.86624   1.23161   1.38324   1.39465   1.45058

  Beta  occ. eigenvalues --  -14.11878 -14.10325  -1.02078  -0.50516  -0.41337
  Beta  occ. eigenvalues --   -0.40747  -0.36858
  Beta virt. eigenvalues --   -0.15140  -0.06779  -0.03316   0.37797   0.56567
  Beta virt. eigenvalues --    0.57623   0.60271   0.64932   0.71017   0.72538
  Beta virt. eigenvalues --    0.75960   0.89705   1.24014   1.39129   1.40477

 Mulliken charges and spin densities:
               1          2
     1  N    0.006964   0.238905
     2  N   -0.040567   0.014168
     3  H    0.033603   0.746927
 Sum of Mulliken charges =   0.00000   1.00000

 Dipole moment (field-independent basis, Debye):
    X=             -0.1654    Y=              0.1799    Z=              0.0000  Tot=              0.2444
 Quadrupole moment (field-independent basis, Debye-Ang):
   XX=            -11.4049   YY=            -12.7191   ZZ=            -11.2325
   XY=             -0.0773   XZ=              0.0000   YZ=              0.0000

  Exact polarizability:  15.900  -7.617  20.238   0.000  -0.000   6.138
 Approx polarizability:  26.906 -15.232  49.104   0.000  -0.000   9.602

 ******    1 imaginary frequencies (negative Signs) ******

                      1                      2                      3
                     A'                     A'                     A'
 Frequencies --   -857.2884               564.9933              2205.5033
 Red. masses --      1.0804                 1.4084                11.2091
 Frc consts  --      0.4678                 0.2649                32.1244
 IR Inten    --    123.8736                 1.1805                59.6735

 - Thermochemistry -
 -------------------
 Temperature   298.150 Kelvin.  Pressure   1.00000 Atm.
 Atom     1 has atomic number  7 and mass  14.00307

 Molecular mass:    29.01397 amu.
 Principal axes and moments of inertia in atomic units:
                           1         2         3
     Eigenvalues --     5.74987  39.66611  45.41598
           X           -0.20529   0.97870   0.00000
           Y            0.97870   0.20529   0.00000
           Z            0.00000   0.00000   1.00000
 This molecule is an asymmetric top.
 Rotational symmetry number  1.
 Rotational temperatures (Kelvin)     15.06362     2.18357     1.90712
 Rotational constants (GHZ):         313.87497    45.49832    39.73802
    1 imaginary frequencies ignored.
 Zero-point vibrational energy      16571.3 (Joules/Mol)
                                    3.96062 (Kcal/Mol)
 Warning -- explicit consideration of   1 degrees of freedom as
           vibrations may cause significant error
 Vibrational temperatures:    812.90  3173.23
          (Kelvin)

 Zero-point correction=                           0.006312 (Hartree/Particle)
 Thermal correction to Energy=                    0.009325
 Thermal correction to Enthalpy=                  0.010269
 Thermal correction to Gibbs Free Energy=        -0.015821
 Sum of electronic and zero-point Energies=           -109.934360
 Sum of electronic and thermal Energies=              -109.931347
 Sum of electronic and thermal Enthalpies=            -109.930402
 Sum of electronic and thermal Free Energies=         -109.956492

                     E (Thermal)             CV                S
                      KCal/Mol        Cal/Mol-Kelvin    Cal/Mol-Kelvin
 Total                    5.851              7.074             54.911
 Electronic               0.000              0.000              1.377
 Translational            0.889              2.981             36.030
 Rotational               0.889              2.981             16.989
 Vibrational              4.074              1.112              0.515
 Vibration     1          0.921              1.107              0.514

 Optimization completed.
    -- Stationary point found.

 1\1\GINC-NODE53\Freq\UB97D3\6-31G(d)\H1N2(2)\RPEVERATI\07-Oct-2020\0\\
 #P Freq B97D3/6-31G* 5D 7F Integral=UltraFineGrid SCF=(NoSymm,XQC,MaxC
 yc=120) IOp(1/33=1) Geom=Check Guess=Read\\TS search on BH76.\\0,2\N,0
 .1351834669,-0.6950056095,0.\N,0.1415369227,0.4321860503,0.\H,-1.29148
 01341,1.2411602698,0.\\Version=ES64L-G16RevA.03\State=2-A'\HF=-109.940
 6713\S2=0.75462\S2-1=0.\S2A=0.750005\RMSD=1.095e-09\RMSF=1.801e-05\Zer
 oPoint=0.0063117\Thermal=0.0093247\Dipole=-0.0646566,0.0711523,0.\Dipo
 leDeriv=0.0105986,0.0002377,0.,0.5761338,-0.4003394,0.,0.,0.,-0.016216

 Normal termination of Gaussian 16 at Wed Oct  7 14:07:37 2020.
