 Gaussian 16, Revision A.03,

 ----------------------------------------------------------------------
 #P Opt(TS,MaxCyc=50,NoEigenTest,MaxStep=10,AddRedundant) B97D3/6-31G*
 5D 7F Integral=UltraFineGrid SCF=(NoSymm,XQC,MaxCyc=120) IOp(1/33=1)
 ----------------------------------------------------------------------

 TstMul:  Mul=     2
 TstMul:  ICh=     0
 TstMul:  Mul=     2
 Symbolic Z-matrix:
 Charge =  0 Multiplicity = 2

 SCF Done:  E(UB97D3) =  -185.040189145     A.U. after   18 cycles
 SCF Done:  E(UB97D3) =  -185.043502320     A.U. after   17 cycles
 SCF Done:  E(UB97D3) =  -185.041663500     A.U. after   17 cycles
 SCF Done:  E(UB97D3) =  -185.041307752     A.U. after   17 cycles
 SCF Done:  E(UB97D3) =  -185.041287269     A.U. after   16 cycles
 SCF Done:  E(UB97D3) =  -185.041287670     A.U. after   11 cycles
 Optimization completed.
    -- Stationary point found.
 Normal termination of Gaussian 16 at Wed Oct  7 14:04:54 2020.
 Gaussian 16:  ES64L-G16RevA.03 25-Dec-2016

 ----------------------------------------------------------------------
 #P Freq B97D3/6-31G* 5D 7F Integral=UltraFineGrid SCF=(NoSymm,XQC,MaxC
 yc=120) IOp(1/33=1) Geom=Check Guess=Read
 ----------------------------------------------------------------------

 TstMul:  Mul=     2
 TstMul:  ICh=     0
 TstMul:  Mul=     2
 Structure from the checkpoint file:  "MN_68_n2ohts_BH76_B97DBJ_631Gs.chk"
 Charge =  0 Multiplicity = 2

                         Standard orientation:
 ---------------------------------------------------------------------
 Center     Atomic      Atomic             Coordinates (Angstroms)
 Number     Number       Type             X           Y           Z
 ---------------------------------------------------------------------
      1          1           0       -0.337332   -2.066124   -0.000000
      2          8           0       -0.856653   -0.637357    0.000000
      3          7           0       -0.000000    0.246746    0.000000
      4          7           0        1.027223    0.776823   -0.000000
 ---------------------------------------------------------------------

 SCF Done:  E(UB97D3) =  -185.041287670     A.U. after    1 cycles

 The electronic state is 2-A'.
 Alpha  occ. eigenvalues --  -18.89386 -14.20868 -14.10405  -1.13503  -0.98554
 Alpha  occ. eigenvalues --   -0.58365  -0.49437  -0.48904  -0.42684  -0.33651
 Alpha  occ. eigenvalues --   -0.30720  -0.18980
 Alpha virt. eigenvalues --   -0.07751  -0.06591   0.09588   0.41673   0.55341
 Alpha virt. eigenvalues --    0.56645   0.57071   0.66579   0.67721   0.69624
 Alpha virt. eigenvalues --    0.70579   0.73435   0.88300   0.89429   1.04874

  Beta  occ. eigenvalues --  -18.89297 -14.20772 -14.10147  -1.12917  -0.97761
  Beta  occ. eigenvalues --   -0.57518  -0.48550  -0.48525  -0.41495  -0.31817
  Beta  occ. eigenvalues --   -0.30292
  Beta virt. eigenvalues --   -0.14437  -0.05939  -0.05619   0.10129   0.41818
  Beta virt. eigenvalues --    0.56132   0.57220   0.57377   0.67463   0.68001
  Beta virt. eigenvalues --    0.70369   0.70783   0.73454   0.88261   0.89851

 Mulliken charges and spin densities:
               1          2
     1  H    0.026730   0.691236
     2  O   -0.361052  -0.034649
     3  N    0.433913   0.073232
     4  N   -0.099592   0.270181
 Sum of Mulliken charges =   0.00000   1.00000

 Dipole moment (field-independent basis, Debye):
    X=             -0.2178    Y=             -0.0839    Z=             -0.0000  Tot=              0.2334
 Quadrupole moment (field-independent basis, Debye-Ang):
   XX=            -18.5781   YY=            -17.6065   ZZ=            -16.3045
   XY=             -1.5394   XZ=              0.0000   YZ=             -0.0000

  Exact polarizability:  21.832  12.007  40.337   0.000  -0.000   7.621
 Approx polarizability:  71.243  53.759 114.803  -0.000  -0.000  11.681

 ******    1 imaginary frequencies (negative Signs) ******

                      1                      2                      3
                     A'                     A'                     A"
 Frequencies --  -1076.1159               465.4746               555.1482
 Red. masses --      1.5344                 1.3126                 5.2229
 Frc consts  --      1.0469                 0.1676                 0.9484
 IR Inten    --    405.4051                13.1582                 4.4939

                      4                      5                      6
                     A'                     A'                     A'
 Frequencies --    789.1444              1200.6787              2134.2968
 Red. masses --      2.4561                 6.0085                13.9987
 Frc consts  --      0.9012                 5.1035                37.5705
 IR Inten    --      0.4387                29.4824               225.7558

 - Thermochemistry -
 -------------------
 Temperature   298.150 Kelvin.  Pressure   1.00000 Atm.
 Atom     1 has atomic number  1 and mass   1.00783

 Molecular mass:    45.00889 amu.
 Principal axes and moments of inertia in atomic units:
                           1         2         3
     Eigenvalues --     8.78196 157.75278 166.53475
           X            0.76113  -0.64860   0.00000
           Y            0.64860   0.76113   0.00000
           Z           -0.00000   0.00000   1.00000
 This molecule is an asymmetric top.
 Rotational symmetry number  1.
 Rotational temperatures (Kelvin)      9.86270     0.54905     0.52010
 Rotational constants (GHZ):         205.50540    11.44031    10.83702
    1 imaginary frequencies ignored.
 Zero-point vibrational energy      30772.4 (Joules/Mol)
                                    7.35478 (Kcal/Mol)
 Warning -- explicit consideration of   2 degrees of freedom as
           vibrations may cause significant error
 Vibrational temperatures:    669.71   798.73  1135.40  1727.51  3070.78
          (Kelvin)

 Zero-point correction=                           0.011721 (Hartree/Particle)
 Thermal correction to Energy=                    0.015089
 Thermal correction to Enthalpy=                  0.016033
 Thermal correction to Gibbs Free Energy=        -0.012632
 Sum of electronic and zero-point Energies=           -185.029567
 Sum of electronic and thermal Energies=              -185.026199
 Sum of electronic and thermal Enthalpies=            -185.025254
 Sum of electronic and thermal Free Energies=         -185.053920

                     E (Thermal)             CV                S
                      KCal/Mol        Cal/Mol-Kelvin    Cal/Mol-Kelvin
 Total                    9.469              9.297             60.331
 Electronic               0.000              0.000              1.377
 Translational            0.889              2.981             37.338
 Rotational               0.889              2.981             20.073
 Vibrational              7.691              3.335              1.542
 Vibration     1          0.823              1.327              0.750
 Vibration     2          0.911              1.128              0.534

 Optimization completed.
    -- Stationary point found.
 Normal termination of Gaussian 16 at Wed Oct  7 14:05:21 2020.
