 Gaussian 16, Revision A.03,
 Gaussian 16:  ES64L-G16RevA.03 25-Dec-2016

 ----------------------------------------------------------------------
 #P Opt(MaxCyc=100) B97D3/6-31G* 5D 7F Integral=UltraFineGrid SCF=(NoSy
 mm,XQC,MaxCyc=120) IOp(1/33=1)
 ----------------------------------------------------------------------

 TstMul:  Mul=     3
 TstMul:  ICh=     0
 TstMul:  Mul=     3
 Symbolic Z-matrix:
 Charge =  0 Multiplicity = 3

 SCF Done:  E(UB97D3) =  -55.1828489081     A.U. after   11 cycles
 SCF Done:  E(UB97D3) =  -55.1830751750     A.U. after    8 cycles
 SCF Done:  E(UB97D3) =  -55.1830780419     A.U. after    7 cycles
 Optimization completed.
    -- Stationary point found.

                         Standard orientation:
 ---------------------------------------------------------------------
 Center     Atomic      Atomic             Coordinates (Angstroms)
 Number     Number       Type             X           Y           Z
 ---------------------------------------------------------------------
      1          7           0        0.000000    0.000000    0.131943
      2          1           0        0.000000    0.000000   -0.923598
 ---------------------------------------------------------------------

 The electronic state is 3-SG.
 Alpha  occ. eigenvalues --  -14.06475  -0.76223  -0.35010  -0.27570  -0.27570
 Alpha virt. eigenvalues --    0.06409   0.61308   0.61308   0.67569   0.69501
 Alpha virt. eigenvalues --    0.90972   1.57244   1.57244   1.57657   1.57657
 Alpha virt. eigenvalues --    2.11529
  Beta  occ. eigenvalues --  -14.04690  -0.65630  -0.29807
  Beta virt. eigenvalues --   -0.13588  -0.13588   0.08918   0.67542   0.67542
  Beta virt. eigenvalues --    0.69774   0.70691   0.96585   1.66717   1.66717
  Beta virt. eigenvalues --    1.75081   1.75081   2.18553

 Mulliken charges and spin densities:
               1          2
     1  N   -0.290492   2.078555
     2  H    0.290492  -0.078555
 Sum of Mulliken charges =  -0.00000   2.00000

 Dipole moment (field-independent basis, Debye):
    X=              0.0000    Y=              0.0000    Z=             -1.5537  Tot=              1.5537
 Quadrupole moment (field-independent basis, Debye-Ang):
   XX=             -6.1185   YY=             -6.1185   ZZ=             -5.7564
   XY=              0.0000   XZ=              0.0000   YZ=             -0.0000

 1\1\GINC-NODE55\FOpt\UB97D3\6-31G(d)\H1N1(3)\RPEVERATI\07-Oct-2020\0\\
 #P Opt(MaxCyc=100) B97D3/6-31G* 5D 7F Integral=UltraFineGrid SCF=(NoSy
 mm,XQC,MaxCyc=120) IOp(1/33=1)\\TS search on BH76.\\0,3\N,0.,0.,0.1389
 949527\H,0.,0.,-0.9165457208\\Version=ES64L-G16RevA.03\State=3-SG\HF=-
 55.183078\S2=2.008541\S2-1=0.\S2A=2.000022\RMSD=2.193e-09\RMSF=5.339e-
 07\Dipole=0.,0.,-0.6112829\Quadrupole=-0.0897335,-0.0897335,0.1794671,
 0.,0.,0.\PG=C*V [C*(H1N1)]\\@

 Normal termination of Gaussian 16 at Wed Oct  7 14:04:13 2020.
