 Gaussian 16, Revision A.03,
 Gaussian 16:  ES64L-G16RevA.03 25-Dec-2016

 ----------------------------------------------------------------------
 #P Opt(MaxCyc=100) B97D3/6-31G* 5D 7F Integral=UltraFineGrid SCF=(NoSy
 mm,XQC,MaxCyc=120) IOp(1/33=1)
 ----------------------------------------------------------------------

 TstMul:  Mul=     2
 TstMul:  ICh=     0
 TstMul:  Mul=     2
 Symbolic Z-matrix:
 Charge =  0 Multiplicity = 2

 SCF Done:  E(UB97D3) =  -398.734792962     A.U. after   11 cycles
 SCF Done:  E(UB97D3) =  -398.734940928     A.U. after    8 cycles
 Optimization completed.
    -- Stationary point found.

                         Standard orientation:
 ---------------------------------------------------------------------
 Center     Atomic      Atomic             Coordinates (Angstroms)
 Number     Number       Type             X           Y           Z
 ---------------------------------------------------------------------
      1         16           0        0.000000    0.000000    0.079892
      2          1           0        0.000000    0.000000   -1.278268
 ---------------------------------------------------------------------

 Unable to determine electronic state:  partially filled degenerate orbitals.
 Alpha  occ. eigenvalues --  -88.06529  -7.75032  -5.78887  -5.78261  -5.77139
 Alpha  occ. eigenvalues --   -0.67434  -0.37405  -0.28283  -0.23580
 Alpha virt. eigenvalues --    0.00102   0.25697   0.30667   0.32103   0.33405
 Alpha virt. eigenvalues --    0.64585   0.65074   0.67563   0.68558   0.68918
 Alpha virt. eigenvalues --    1.02296
  Beta  occ. eigenvalues --  -88.06017  -7.74809  -5.77932  -5.77928  -5.76807
  Beta  occ. eigenvalues --   -0.63322  -0.35721  -0.21750
  Beta virt. eigenvalues --   -0.20973   0.01457   0.24905   0.30725   0.32423
  Beta virt. eigenvalues --    0.33732   0.66943   0.70550   0.72072   0.74385
  Beta virt. eigenvalues --    0.76220   1.04097

 Mulliken charges and spin densities:
               1          2
     1  S   -0.113156   1.029142
     2  H    0.113156  -0.029142
 Sum of Mulliken charges =  -0.00000   1.00000

 Dipole moment (field-independent basis, Debye):
    X=              0.0000    Y=             -0.0000    Z=             -1.0711  Tot=              1.0711
 Quadrupole moment (field-independent basis, Debye-Ang):
   XX=            -15.5844   YY=            -12.6563   ZZ=            -11.9036
   XY=              0.0000   XZ=              0.0000   YZ=              0.0000

 1\1\GINC-NODE51\FOpt\UB97D3\6-31G(d)\H1S1(2)\RPEVERATI\07-Oct-2020\0\\
 #P Opt(MaxCyc=100) B97D3/6-31G* 5D 7F Integral=UltraFineGrid SCF=(NoSy
 mm,XQC,MaxCyc=120) IOp(1/33=1)\\TS search on BH76.\\0,2\S,0.,0.,0.0878
 136609\H,0.,0.,-1.2703463944\\Version=ES64L-G16RevA.03\HF=-398.7349409
 \S2=0.754074\S2-1=0.\S2A=0.750008\RMSD=2.300e-09\RMSF=5.689e-05\Dipole
 =0.,0.,-0.4213903\Quadrupole=-1.6378382,0.5391259,1.0987123,0.,0.,0.\P
 G=C*V [C*(H1S1)]\\@

 Normal termination of Gaussian 16 at Wed Oct  7 14:03:43 2020.
