 Gaussian 16, Revision A.03,
 Gaussian 16:  ES64L-G16RevA.03 25-Dec-2016

 ----------------------------------------------------------------------
 #P Opt(MaxCyc=100) B97D3/6-31G* 5D 7F Integral=UltraFineGrid SCF=(NoSy
 mm,XQC,MaxCyc=120) IOp(1/33=1)
 ----------------------------------------------------------------------

 TstMul:  Mul=     1
 TstMul:  ICh=     0
 TstMul:  Mul=     1
 Symbolic Z-matrix:
 Charge =  0 Multiplicity = 1

 SCF Done:  E(RB97D3) =  -93.3316727539     A.U. after   12 cycles
 SCF Done:  E(RB97D3) =  -93.3322657769     A.U. after   10 cycles
 SCF Done:  E(RB97D3) =  -93.3322692577     A.U. after    7 cycles
 Optimization completed.
    -- Stationary point found.

                         Standard orientation:
 ---------------------------------------------------------------------
 Center     Atomic      Atomic             Coordinates (Angstroms)
 Number     Number       Type             X           Y           Z
 ---------------------------------------------------------------------
      1          6           0        0.000000    0.000000   -0.749246
      2          7           0        0.000000    0.000000    0.436392
      3          1           0        0.000000    0.000000    1.440737
 ---------------------------------------------------------------------

 The electronic state is 1-SG.
 Alpha  occ. eigenvalues --  -14.04465  -9.95944  -0.85906  -0.60451  -0.32431
 Alpha  occ. eigenvalues --   -0.32431  -0.26469
 Alpha virt. eigenvalues --   -0.00911  -0.00911   0.04430   0.32732   0.46362
 Alpha virt. eigenvalues --    0.52524   0.52524   0.61138   0.68920   0.68920
 Alpha virt. eigenvalues --    0.86939   1.12227   1.37373   1.42941   1.42941

 Mulliken charges:
               1
     1  C    0.030438
     2  N   -0.389545
     3  H    0.359107
 Sum of Mulliken charges =  -0.00000

 Dipole moment (field-independent basis, Debye):
    X=              0.0000    Y=             -0.0000    Z=              2.9071  Tot=              2.9071
 Quadrupole moment (field-independent basis, Debye-Ang):
   XX=            -11.5067   YY=            -11.5067   ZZ=             -9.8686
   XY=             -0.0000   XZ=              0.0000   YZ=             -0.0000

 Normal termination of Gaussian 16 at Wed Oct  7 14:03:37 2020.
