 Gaussian 16, Revision A.03,
 Gaussian 16:  ES64L-G16RevA.03 25-Dec-2016

 ----------------------------------------------------------------------
 #P Opt(MaxCyc=100) B97D3/6-31G* 5D 7F Integral=UltraFineGrid SCF=(NoSy
 mm,XQC,MaxCyc=120) IOp(1/33=1)
 ----------------------------------------------------------------------

 TstMul:  Mul=     1
 TstMul:  ICh=     0
 TstMul:  Mul=     1
 Symbolic Z-matrix:
 Charge =  0 Multiplicity = 1

 SCF Done:  E(RB97D3) =  -184.561161950     A.U. after   13 cycles
 SCF Done:  E(RB97D3) =  -184.562614705     A.U. after   12 cycles
 SCF Done:  E(RB97D3) =  -184.562653730     A.U. after    9 cycles
 SCF Done:  E(RB97D3) =  -184.562653873     A.U. after    7 cycles
 Optimization completed.
    -- Stationary point found.

                         Standard orientation:
 ---------------------------------------------------------------------
 Center     Atomic      Atomic             Coordinates (Angstroms)
 Number     Number       Type             X           Y           Z
 ---------------------------------------------------------------------
      1          7           0        0.000000    0.000000   -1.215214
      2          7           0        0.000000    0.000000   -0.069790
      3          8           0        0.000000    0.000000    1.124378
 ---------------------------------------------------------------------

 The electronic state is 1-SG.
 Alpha  occ. eigenvalues --  -18.87279 -14.22568 -14.10139  -1.14849  -0.99495
 Alpha  occ. eigenvalues --   -0.54414  -0.49890  -0.49890  -0.41618  -0.29771
 Alpha  occ. eigenvalues --   -0.29771
 Alpha virt. eigenvalues --   -0.05156  -0.05156   0.08526   0.39291   0.56143
 Alpha virt. eigenvalues --    0.56733   0.56733   0.69543   0.70281   0.70768
 Alpha virt. eigenvalues --    0.70768   0.90669   0.90669   0.98564   1.28920

 Mulliken charges:
               1
     1  N   -0.107053
     2  N    0.527988
     3  O   -0.420935
 Sum of Mulliken charges =   0.00000

 Dipole moment (field-independent basis, Debye):
    X=              0.0000    Y=              0.0000    Z=              0.1454  Tot=              0.1454
 Quadrupole moment (field-independent basis, Debye-Ang):
   XX=            -14.9356   YY=            -14.9356   ZZ=            -18.5921
   XY=             -0.0000   XZ=              0.0000   YZ=             -0.0000

 Normal termination of Gaussian 16 at Wed Oct  7 14:04:15 2020.
