 Gaussian 16, Revision A.03,
 Gaussian 16:  ES64L-G16RevA.03 25-Dec-2016

 ----------------------------------------------------------------------
 #P Opt(MaxCyc=100) B97D3/6-31G* 5D 7F Integral=UltraFineGrid SCF=(NoSy
 mm,XQC,MaxCyc=120) IOp(1/33=1)
 ----------------------------------------------------------------------

 TstMul:  Mul=     1
 TstMul:  ICh=    -1
 TstMul:  Mul=     1
 Symbolic Z-matrix:
 Charge = -1 Multiplicity = 1

 SCF Done:  E(RB97D3) =  -215.363083461     A.U. after   17 cycles
 SCF Done:  E(RB97D3) =  -215.366877568     A.U. after   13 cycles
 SCF Done:  E(RB97D3) =  -215.370321812     A.U. after   15 cycles
 SCF Done:  E(RB97D3) =  -215.372062921     A.U. after   13 cycles
 SCF Done:  E(RB97D3) =  -215.372546402     A.U. after   13 cycles
 SCF Done:  E(RB97D3) =  -215.373072596     A.U. after   13 cycles
 SCF Done:  E(RB97D3) =  -215.373231188     A.U. after   12 cycles
 SCF Done:  E(RB97D3) =  -215.373348599     A.U. after   13 cycles
 SCF Done:  E(RB97D3) =  -215.373384203     A.U. after   12 cycles
 SCF Done:  E(RB97D3) =  -215.373412730     A.U. after   11 cycles
 SCF Done:  E(RB97D3) =  -215.374169407     A.U. after   14 cycles
 SCF Done:  E(RB97D3) =  -215.375406491     A.U. after   13 cycles
 SCF Done:  E(RB97D3) =  -215.374535729     A.U. after   13 cycles
 SCF Done:  E(RB97D3) =  -215.377067017     A.U. after   13 cycles
 SCF Done:  E(RB97D3) =  -215.377741399     A.U. after   13 cycles
 SCF Done:  E(RB97D3) =  -215.378103661     A.U. after   12 cycles
 SCF Done:  E(RB97D3) =  -215.378147532     A.U. after   11 cycles
 SCF Done:  E(RB97D3) =  -215.378154140     A.U. after    9 cycles
 SCF Done:  E(RB97D3) =  -215.378154048     A.U. after    9 cycles
 SCF Done:  E(RB97D3) =  -215.378155670     A.U. after    8 cycles
 Optimization completed.
    -- Stationary point found.

                         Standard orientation:
 ---------------------------------------------------------------------
 Center     Atomic      Atomic             Coordinates (Angstroms)
 Number     Number       Type             X           Y           Z
 ---------------------------------------------------------------------
      1          9           0        1.673623    0.422083   -0.013995
      2          6           0        0.562911   -0.492605    0.015281
      3          1           0       -0.520577   -0.019093   -0.093205
      4          1           0        0.736037   -1.231951   -0.796354
      5          1           0        0.636338   -1.049239    0.975071
      6          8           0       -2.139209    0.142913   -0.113078
      7          1           0       -2.178205    0.313864    0.853382
 ---------------------------------------------------------------------

 The electronic state is 1-A.
 Alpha  occ. eigenvalues --  -24.02155 -18.38179  -9.74206  -0.85644  -0.49743
 Alpha  occ. eigenvalues --   -0.40102  -0.20721  -0.19618  -0.17296  -0.07630
 Alpha  occ. eigenvalues --   -0.06825  -0.02581   0.12016   0.12633
 Alpha virt. eigenvalues --    0.27504   0.28774   0.32348   0.34366   0.47801
 Alpha virt. eigenvalues --    0.69173   0.72943   0.75667   0.98772   1.00146
 Alpha virt. eigenvalues --    1.05482   1.08779   1.13517   1.20765   1.29495

 Mulliken charges:
               1
     1  F   -0.402920
     2  C   -0.193609
     3  H    0.243697
     4  H    0.049238
     5  H    0.045622
     6  O   -0.967607
     7  H    0.225580
 Sum of Mulliken charges =  -1.00000

 Dipole moment (field-independent basis, Debye):
    X=              5.2143    Y=             -0.8801    Z=              1.2987  Tot=              5.4451
 Quadrupole moment (field-independent basis, Debye-Ang):
   XX=            -41.4992   YY=            -20.9112   ZZ=            -19.1873
   XY=              0.0192   XZ=             -2.9254   YZ=              0.5108

 Normal termination of Gaussian 16 at Wed Oct  7 14:10:15 2020.
