 Gaussian 16, Revision A.03,
 Gaussian 16:  ES64L-G16RevA.03 25-Dec-2016

 ----------------------------------------------------------------------
 #P Opt(MaxCyc=100) B97D3/6-31G* 5D 7F Integral=UltraFineGrid SCF=(NoSy
 mm,XQC,MaxCyc=120) IOp(1/33=1)
 ----------------------------------------------------------------------

 TstMul:  Mul=     1
 TstMul:  ICh=    -1
 TstMul:  Mul=     1
 Symbolic Z-matrix:
 Charge = -1 Multiplicity = 1

 SCF Done:  E(RB97D3) =  -215.438712912     A.U. after   14 cycles
 SCF Done:  E(RB97D3) =  -215.439761704     A.U. after   12 cycles
 SCF Done:  E(RB97D3) =  -215.441608699     A.U. after   12 cycles
 SCF Done:  E(RB97D3) =  -215.443157695     A.U. after   12 cycles
 SCF Done:  E(RB97D3) =  -215.442450195     A.U. after   12 cycles
 SCF Done:  E(RB97D3) =  -215.445396401     A.U. after   12 cycles
 SCF Done:  E(RB97D3) =  -215.445856974     A.U. after   12 cycles
 SCF Done:  E(RB97D3) =  -215.446071667     A.U. after   10 cycles
 SCF Done:  E(RB97D3) =  -215.446096158     A.U. after   11 cycles
 SCF Done:  E(RB97D3) =  -215.446104804     A.U. after    9 cycles
 SCF Done:  E(RB97D3) =  -215.446106005     A.U. after    8 cycles
 SCF Done:  E(RB97D3) =  -215.446106155     A.U. after    7 cycles
 Optimization completed.
    -- Stationary point found.

                         Standard orientation:
 ---------------------------------------------------------------------
 Center     Atomic      Atomic             Coordinates (Angstroms)
 Number     Number       Type             X           Y           Z
 ---------------------------------------------------------------------
      1          6           0       -1.269165   -0.372521   -0.000063
      2          8           0       -0.490687    0.738981    0.000066
      3          1           0       -2.374658   -0.135578   -0.009986
      4          1           0       -1.133205   -1.073249   -0.885268
      5          1           0       -1.147781   -1.063978    0.894884
      6          1           0        0.719556    0.281039    0.000375
      7          9           0        1.719619   -0.187217   -0.000017
 ---------------------------------------------------------------------

 The electronic state is 1-A.
 Alpha  occ. eigenvalues --  -23.88470 -18.46137  -9.73191  -0.71314  -0.62776
 Alpha  occ. eigenvalues --   -0.35929  -0.18066  -0.14834  -0.12973  -0.07484
 Alpha  occ. eigenvalues --    0.00721   0.00746   0.04651   0.05946
 Alpha virt. eigenvalues --    0.27828   0.33537   0.34506   0.38151   0.50518
 Alpha virt. eigenvalues --    0.74674   0.76441   0.78603   0.89957   0.98252
 Alpha virt. eigenvalues --    0.99091   1.04035   1.17903   1.18844   1.19690

 Mulliken charges:
               1
     1  C   -0.091531
     2  O   -0.706725
     3  H    0.007376
     4  H    0.008334
     5  H    0.007425
     6  H    0.461157
     7  F   -0.686036
 Sum of Mulliken charges =  -1.00000

 Dipole moment (field-independent basis, Debye):
    X=             -1.5743    Y=             -0.8502    Z=             -0.0029  Tot=              1.7892
 Quadrupole moment (field-independent basis, Debye-Ang):
   XX=            -30.5229   YY=            -22.8282   ZZ=            -20.7526
   XY=              1.6286   XZ=              0.0054   YZ=              0.0043

 Normal termination of Gaussian 16 at Wed Oct  7 14:06:06 2020.
