 Gaussian 16, Revision A.03,

 ----------------------------------------------------------------------
 #P Opt(TS,MaxCyc=50,NoEigenTest,MaxStep=10,AddRedundant) B97D3/6-31G*
 5D 7F Integral=UltraFineGrid SCF=(NoSymm,XQC,MaxCyc=120) IOp(1/33=1)
 ----------------------------------------------------------------------

 TstMul:  Mul=     1
 TstMul:  ICh=    -1
 TstMul:  Mul=     1
 Symbolic Z-matrix:
 Charge = -1 Multiplicity = 1

 SCF Done:  E(RB97D3) =  -215.365130132     A.U. after   15 cycles
 SCF Done:  E(RB97D3) =  -215.366351218     A.U. after   13 cycles
 SCF Done:  E(RB97D3) =  -215.366548558     A.U. after   12 cycles
 SCF Done:  E(RB97D3) =  -215.366646972     A.U. after   13 cycles
 SCF Done:  E(RB97D3) =  -215.366655147     A.U. after    9 cycles
 SCF Done:  E(RB97D3) =  -215.366658252     A.U. after    8 cycles
 SCF Done:  E(RB97D3) =  -215.366661123     A.U. after    8 cycles
 SCF Done:  E(RB97D3) =  -215.366716467     A.U. after   13 cycles
 SCF Done:  E(RB97D3) =  -215.366659297     A.U. after   13 cycles
 SCF Done:  E(RB97D3) =  -215.366659680     A.U. after    9 cycles
 SCF Done:  E(RB97D3) =  -215.366659951     A.U. after    8 cycles
 SCF Done:  E(RB97D3) =  -215.366660036     A.U. after    8 cycles
 Optimization completed.
    -- Stationary point found.
 Normal termination of Gaussian 16 at Wed Oct  7 14:06:02 2020.
 Gaussian 16:  ES64L-G16RevA.03 25-Dec-2016

 ----------------------------------------------------------------------
 #P Freq B97D3/6-31G* 5D 7F Integral=UltraFineGrid SCF=(NoSymm,XQC,MaxC
 yc=120) IOp(1/33=1) Geom=Check Guess=Read
 ----------------------------------------------------------------------

 TstMul:  Mul=     1
 TstMul:  ICh=    -1
 TstMul:  Mul=     1
 Structure from the checkpoint file:  "MN_63_hoch3fts_BH76_B97DBJ_631Gs.chk"
 Charge = -1 Multiplicity = 1

                         Standard orientation:
 ---------------------------------------------------------------------
 Center     Atomic      Atomic             Coordinates (Angstroms)
 Number     Number       Type             X           Y           Z
 ---------------------------------------------------------------------
      1          9           0        1.885986   -0.021373   -0.000008
      2          6           0        0.081530    0.030819    0.000014
      3          1           0        0.034364    1.111973   -0.000339
      4          1           0        0.017582   -0.500294   -0.940824
      5          1           0        0.017575   -0.499622    0.941228
      6          8           0       -1.932161    0.096034   -0.000016
      7          1           0       -2.075286   -0.872888    0.000051
 ---------------------------------------------------------------------

 SCF Done:  E(RB97D3) =  -215.366660036     A.U. after    1 cycles

 The electronic state is 1-A.
 Alpha  occ. eigenvalues --  -23.87513 -18.44032  -9.73116  -0.67948  -0.55661
 Alpha  occ. eigenvalues --   -0.37853  -0.16247  -0.16236  -0.08093  -0.04457
 Alpha  occ. eigenvalues --    0.02729   0.02815   0.06419   0.07951
 Alpha virt. eigenvalues --    0.26026   0.28213   0.33987   0.35369   0.35620
 Alpha virt. eigenvalues --    0.74848   0.75495   0.86991   0.96191   1.02922
 Alpha virt. eigenvalues --    1.05397   1.07282   1.14387   1.17636   1.28043

 Mulliken charges:
               1
     1  F   -0.595116
     2  C   -0.153094
     3  H    0.128202
     4  H    0.115514
     5  H    0.115524
     6  O   -0.873677
     7  H    0.262648
 Sum of Mulliken charges =  -1.00000

 Dipole moment (field-independent basis, Debye):
    X=              0.4289    Y=             -1.1929    Z=              0.0002  Tot=              1.2677
 Quadrupole moment (field-independent basis, Debye-Ang):
   XX=            -40.9184   YY=            -18.0693   ZZ=            -19.5513
   XY=              2.9781   XZ=             -0.0002   YZ=             -0.0001

  Exact polarizability:  41.821   2.171  20.434  -0.000  -0.000  16.062
 Approx polarizability:  93.036   0.023  30.478   0.000  -0.000  21.902

 ******    1 imaginary frequencies (negative Signs) ******

                      1                      2                      3
                      A                      A                      A
 Frequencies --   -419.7368               203.3261               280.2536
 Red. masses --     10.2890                 1.0529                 3.4826
 Frc consts  --      1.0680                 0.0256                 0.1612
 IR Inten    --    664.2822                46.4643                12.7311

                      4                      5                      6
                      A                      A                      A
 Frequencies --    296.7200               310.4369               772.6777
 Red. masses --      4.4452                12.2716                 1.1195
 Frc consts  --      0.2306                 0.6968                 0.3938
 IR Inten    --     18.8367                 3.2799                29.0901

                      7                      8                      9
                      A                      A                      A
 Frequencies --    942.9901               982.5513              1064.3792
 Red. masses --      1.0213                 1.0523                 1.0590
 Frc consts  --      0.5351                 0.5985                 0.7069
 IR Inten    --      0.0453                 2.8024                 1.6192

                     10                     11                     12
                      A                      A                      A
 Frequencies --   1360.0556              1365.0004              3083.9486
 Red. masses --      1.1233                 1.1145                 1.0086
 Frc consts  --      1.2243                 1.2235                 5.6515
 IR Inten    --      0.8685                 1.3483                 0.2293

                     13                     14                     15
                      A                      A                      A
 Frequencies --   3265.8300              3270.2819              3540.5346
 Red. masses --      1.1279                 1.1258                 1.0676
 Frc consts  --      7.0879                 7.0937                 7.8851
 IR Inten    --     55.6985                46.8908                79.4063

 - Thermochemistry -
 -------------------
 Temperature   298.150 Kelvin.  Pressure   1.00000 Atm.
 Atom     1 has atomic number  9 and mass  18.99840

 Molecular mass:    51.02462 amu.
 Principal axes and moments of inertia in atomic units:
                           1         2         3
     Eigenvalues --    15.82498 475.76982 478.84668
           X            0.99989   0.01485  -0.00000
           Y           -0.01485   0.99989   0.00001
           Z            0.00000  -0.00001   1.00000
 This molecule is an asymmetric top.
 Rotational symmetry number  1.
 Rotational temperatures (Kelvin)      5.47324     0.18205     0.18088
 Rotational constants (GHZ):         114.04385     3.79331     3.76893
    1 imaginary frequencies ignored.
 Zero-point vibrational energy     124046.7 (Joules/Mol)
                                   29.64787 (Kcal/Mol)
 Warning -- explicit consideration of   4 degrees of freedom as
           vibrations may cause significant error
 Vibrational temperatures:    292.54   403.22   426.91   446.65  1111.71
          (Kelvin)           1356.75  1413.67  1531.40  1956.82  1963.93
                             4437.11  4698.80  4705.21  5094.04

 Zero-point correction=                           0.047247 (Hartree/Particle)
 Thermal correction to Energy=                    0.052130
 Thermal correction to Enthalpy=                  0.053074
 Thermal correction to Gibbs Free Energy=         0.020998
 Sum of electronic and zero-point Energies=           -215.319413
 Sum of electronic and thermal Energies=              -215.314530
 Sum of electronic and thermal Enthalpies=            -215.313586
 Sum of electronic and thermal Free Energies=         -215.345662

                     E (Thermal)             CV                S
                      KCal/Mol        Cal/Mol-Kelvin    Cal/Mol-Kelvin
 Total                   32.712             14.931             67.510
 Electronic               0.000              0.000              0.000
 Translational            0.889              2.981             37.712
 Rotational               0.889              2.981             22.804
 Vibrational             30.935              8.969              6.993
 Vibration     1          0.639              1.835              2.103
 Vibration     2          0.680              1.710              1.532
 Vibration     3          0.690              1.680              1.435
 Vibration     4          0.699              1.654              1.360

 Optimization completed.
    -- Stationary point found.
 Normal termination of Gaussian 16 at Wed Oct  7 14:06:34 2020.
