 Gaussian 16, Revision A.03,
 Gaussian 16:  ES64L-G16RevA.03 25-Dec-2016

 ----------------------------------------------------------------------
 #P Opt(MaxCyc=100) B97D3/6-31G* 5D 7F Integral=UltraFineGrid SCF=(NoSy
 mm,XQC,MaxCyc=120) IOp(1/33=1)
 ----------------------------------------------------------------------

 TstMul:  Mul=     1
 TstMul:  ICh=     0
 TstMul:  Mul=     1
 Symbolic Z-matrix:
 Charge =  0 Multiplicity = 1

 SCF Done:  E(RB97D3) =  -109.452869274     A.U. after    8 cycles
 SCF Done:  E(RB97D3) =  -109.453566530     A.U. after    6 cycles
 SCF Done:  E(RB97D3) =  -109.453575950     A.U. after    5 cycles
 Optimization completed.
    -- Stationary point found.

                         Standard orientation:
 ---------------------------------------------------------------------
 Center     Atomic      Atomic             Coordinates (Angstroms)
 Number     Number       Type             X           Y           Z
 ---------------------------------------------------------------------
      1          7           0        0.000000    0.000000    0.556529
      2          7           0        0.000000    0.000000   -0.556529
 ---------------------------------------------------------------------

 The electronic state is 1-SGG.
 Alpha  occ. eigenvalues --  -14.10983 -14.10893  -1.03083  -0.49249  -0.41255
 Alpha  occ. eigenvalues --   -0.41255  -0.36523
 Alpha virt. eigenvalues --   -0.06239  -0.06239   0.38499   0.57319   0.57697
 Alpha virt. eigenvalues --    0.57697   0.68470   0.71662   0.71662   0.75038
 Alpha virt. eigenvalues --    1.23230   1.38437   1.38437   1.46723   1.46723

 Mulliken charges:
               1
     1  N   -0.000000
     2  N   -0.000000
 Sum of Mulliken charges =  -0.00000

 Dipole moment (field-independent basis, Debye):
    X=             -0.0000    Y=              0.0000    Z=              0.0000  Tot=              0.0000
 Quadrupole moment (field-independent basis, Debye-Ang):
   XX=             -9.9729   YY=             -9.9729   ZZ=            -11.5495
   XY=             -0.0000   XZ=              0.0000   YZ=             -0.0000

 Normal termination of Gaussian 16 at Wed Oct  7 14:03:57 2020.
