 Gaussian 16, Revision A.03,
 Gaussian 16:  ES64L-G16RevA.03 25-Dec-2016

 ----------------------------------------------------------------------
 #P B97D3/6-31G* 5D 7F Integral=UltraFineGrid SCF=(NoSymm,XQC,MaxCyc=12
 0) IOp(1/33=1) Stable=Opt
 ----------------------------------------------------------------------

 TstMul:  Mul=     3
 TstMul:  ICh=     0
 TstMul:  Mul=     3
 Symbolic Z-matrix:
 Charge =  0 Multiplicity = 3

                         Standard orientation:
 ---------------------------------------------------------------------
 Center     Atomic      Atomic             Coordinates (Angstroms)
 Number     Number       Type             X           Y           Z
 ---------------------------------------------------------------------
      1          8           0        0.000000    0.000000    0.000000
 ---------------------------------------------------------------------

 SCF Done:  E(UB97D3) =  -75.0153716844     A.U. after   10 cycles

 Unable to determine electronic state:  partially filled degenerate orbitals.
 Alpha  occ. eigenvalues --  -18.88871  -0.91494  -0.38417  -0.38417  -0.31224
 Alpha virt. eigenvalues --    0.76485   0.76485   0.79638   0.87569   1.59674
 Alpha virt. eigenvalues --    1.59674   1.64565   1.64565   1.66474
  Beta  occ. eigenvalues --  -18.85991  -0.76858  -0.24739
  Beta virt. eigenvalues --   -0.21090  -0.21090   0.82716   0.84009   0.84009
  Beta virt. eigenvalues --    0.93657   1.72591   1.72591   1.73605   1.74919
  Beta virt. eigenvalues --    1.74919

 Mulliken charges and spin densities:
               1          2
     1  O    0.000000   2.000000
 Sum of Mulliken charges =   0.00000   2.00000

 Dipole moment (field-independent basis, Debye):
    X=             -0.0000    Y=             -0.0000    Z=              0.0000  Tot=              0.0000
 Quadrupole moment (field-independent basis, Debye-Ang):
   XX=             -5.6442   YY=             -4.5127   ZZ=             -4.5127
   XY=             -0.0000   XZ=              0.0000   YZ=             -0.0000

 Normal termination of Gaussian 16 at Wed Oct  7 14:04:03 2020.
