 Gaussian 16, Revision A.03,

 ----------------------------------------------------------------------
 #P Opt(TS,MaxCyc=50,NoEigenTest,MaxStep=10,AddRedundant) B97D3/6-31G*
 5D 7F Integral=UltraFineGrid SCF=(NoSymm,XQC,MaxCyc=120) IOp(1/33=1)
 ----------------------------------------------------------------------

 TstMul:  Mul=     2
 TstMul:  ICh=     0
 TstMul:  Mul=     2
 Symbolic Z-matrix:
 Charge =  0 Multiplicity = 2

 SCF Done:  E(UB97D3) =  -461.313984496     A.U. after   12 cycles
 SCF Done:  E(UB97D3) =  -461.316460040     A.U. after   11 cycles
 SCF Done:  E(UB97D3) =  -461.318160268     A.U. after   12 cycles
 SCF Done:  E(UB97D3) =  -461.319427321     A.U. after   11 cycles
 SCF Done:  E(UB97D3) =  -461.320440230     A.U. after   11 cycles
 SCF Done:  E(UB97D3) =  -461.321287341     A.U. after   11 cycles
 SCF Done:  E(UB97D3) =  -461.322010622     A.U. after   11 cycles
 SCF Done:  E(UB97D3) =  -461.322632418     A.U. after   11 cycles
 SCF Done:  E(UB97D3) =  -461.323165745     A.U. after   11 cycles
 SCF Done:  E(UB97D3) =  -461.323621257     A.U. after   11 cycles
 SCF Done:  E(UB97D3) =  -461.325679869     A.U. after   10 cycles
 SCF Done:  E(UB97D3) =  -461.325721198     A.U. after   10 cycles
 SCF Done:  E(UB97D3) =  -461.325751065     A.U. after   10 cycles
 SCF Done:  E(UB97D3) =  -461.325770342     A.U. after   10 cycles
 SCF Done:  E(UB97D3) =  -461.325771856     A.U. after    7 cycles
 SCF Done:  E(UB97D3) =  -461.325749730     A.U. after   10 cycles
 SCF Done:  E(UB97D3) =  -461.325766491     A.U. after   10 cycles
 SCF Done:  E(UB97D3) =  -461.325773719     A.U. after   10 cycles
 SCF Done:  E(UB97D3) =  -461.325774317     A.U. after    7 cycles
 Optimization completed.
    -- Stationary point found.

 1\1\GINC-NODE55\FTS\UB97D3\6-31G(d)\Cl1H2(2)\RPEVERATI\07-Oct-2020\0\\
 #P Opt(TS,MaxCyc=50,NoEigenTest,MaxStep=10,AddRedundant) B97D3/6-31G*
 5D 7F Integral=UltraFineGrid SCF=(NoSymm,XQC,MaxCyc=120) IOp(1/33=1)\\
 TS search on BH76.\\0,2\H,0.,0.,-1.6368745734\Cl,0.,0.,0.7718693074\H,
 0.,0.,-2.3870315867\\Version=ES64L-G16RevA.03\State=2-SG\HF=-461.32577
 43\S2=0.752692\S2-1=0.\S2A=0.750004\RMSD=2.090e-09\RMSF=2.628e-05\Dipo
 le=0.,0.,-0.1845203\Quadrupole=-0.9704973,-0.9704973,1.9409945,0.,0.,0
 .\PG=C*V [C*(H1H1Cl1)]\\@

 Normal termination of Gaussian 16 at Wed Oct  7 14:14:20 2020.
 Gaussian 16:  ES64L-G16RevA.03 25-Dec-2016

 ----------------------------------------------------------------------
 #P Freq B97D3/6-31G* 5D 7F Integral=UltraFineGrid SCF=(NoSymm,XQC,MaxC
 yc=120) IOp(1/33=1) Geom=Check Guess=Read
 ----------------------------------------------------------------------

 TstMul:  Mul=     2
 TstMul:  ICh=     0
 TstMul:  Mul=     2
 Structure from the checkpoint file:  "MN_78_RKT01_BH76_B97DBJ_631Gs.chk"
 Charge =  0 Multiplicity = 2

                         Standard orientation:
 ---------------------------------------------------------------------
 Center     Atomic      Atomic             Coordinates (Angstroms)
 Number     Number       Type             X           Y           Z
 ---------------------------------------------------------------------
      1          1           0        0.000000    0.000000   -2.115710
      2         17           0        0.000000    0.000000    0.293034
      3          1           0        0.000000    0.000000   -2.865867
 ---------------------------------------------------------------------

 SCF Done:  E(UB97D3) =  -461.325774317     A.U. after    1 cycles

 The electronic state is 2-SG.
 Alpha  occ. eigenvalues -- -100.68765  -9.26328  -7.11093  -7.08972  -7.08972
 Alpha  occ. eigenvalues --   -0.76515  -0.41636  -0.34816  -0.30431  -0.30431
 Alpha virt. eigenvalues --    0.07682   0.32679   0.40295   0.40295   0.42791
 Alpha virt. eigenvalues --    0.60249   0.73560   0.73560   0.77275   0.78279
 Alpha virt. eigenvalues --    0.78280   1.13314
  Beta  occ. eigenvalues -- -100.68164  -9.26035  -7.09910  -7.08575  -7.08575
  Beta  occ. eigenvalues --   -0.71464  -0.40671  -0.28468  -0.28468
  Beta virt. eigenvalues --   -0.27032   0.07763   0.33175   0.40796   0.40796
  Beta virt. eigenvalues --    0.44338   0.63073   0.79826   0.79827   0.80476
  Beta virt. eigenvalues --    0.80476   0.84517   1.14231

 Mulliken charges and spin densities:
               1          2
     1  H   -0.017178  -0.005730
     2  Cl  -0.027626   0.950154
     3  H    0.044804   0.055576
 Sum of Mulliken charges =  -0.00000   1.00000

 Dipole moment (field-independent basis, Debye):
    X=              0.0000    Y=              0.0000    Z=             -0.4690  Tot=              0.4690
 Quadrupole moment (field-independent basis, Debye-Ang):
   XX=            -14.8545   YY=            -14.8545   ZZ=            -10.9384
   XY=              0.0000   XZ=              0.0000   YZ=              0.0000

  Exact polarizability:   5.626  -0.000   5.626   0.000   0.000  25.176
 Approx polarizability:   7.162   0.000   7.162   0.000   0.000  36.679

 ******    2 imaginary frequencies (negative Signs) ******

                      1                      2                      3
                     PI                     PI                     SG
 Frequencies --   -188.5084              -188.5084               148.0741
 Red. masses --      1.0088                 1.0088                 1.0641
 Frc consts  --      0.0211                 0.0211                 0.0137
 IR Inten    --      0.8780                 0.8780                15.8252

                      4
                     SG
 Frequencies --   4231.6370
 Red. masses --      1.0078
 Frc consts  --     10.6329
 IR Inten    --    166.4314

 - Thermochemistry -
 -------------------
 Temperature   298.150 Kelvin.  Pressure   1.00000 Atm.
 Atom     1 has atomic number  1 and mass   1.00783

 Molecular mass:    36.98450 amu.
 Principal axes and moments of inertia in atomic units:
                           1         2         3
     Eigenvalues --     0.00000  53.75476  53.75476
           X            0.00000   0.00000   1.00000
           Y            0.00000   1.00000   0.00000
           Z            1.00000   0.00000   0.00000
 This molecule is a prolate symmetric top.
 Rotational symmetry number  1.
 Rotational temperature (Kelvin)      1.61128
 Rotational constant (GHZ):          33.573609
    2 imaginary frequencies ignored.
 Zero-point vibrational energy      26196.5 (Joules/Mol)
                                    6.26111 (Kcal/Mol)
 Warning -- explicit consideration of   1 degrees of freedom as
           vibrations may cause significant error
 Vibrational temperatures:    213.05  6088.38
          (Kelvin)

 Zero-point correction=                           0.009978 (Hartree/Particle)
 Thermal correction to Energy=                    0.012985
 Thermal correction to Enthalpy=                  0.013929
 Thermal correction to Gibbs Free Energy=        -0.011343
 Sum of electronic and zero-point Energies=           -461.315797
 Sum of electronic and thermal Energies=              -461.312789
 Sum of electronic and thermal Enthalpies=            -461.311845
 Sum of electronic and thermal Free Energies=         -461.337117

                     E (Thermal)             CV                S
                      KCal/Mol        Cal/Mol-Kelvin    Cal/Mol-Kelvin
 Total                    8.148              6.873             53.189
 Electronic               0.000              0.000              1.377
 Translational            0.889              2.981             36.753
 Rotational               0.592              1.987             12.362
 Vibrational              6.667              1.905              2.697
 Vibration     1          0.617              1.905              2.697

                           ! Non-Optimized Parameters !
 Normal termination of Gaussian 16 at Wed Oct  7 14:14:51 2020.
