 Gaussian 16, Revision A.03,
 Gaussian 16:  ES64L-G16RevA.03 25-Dec-2016

 ----------------------------------------------------------------------
 #P Opt(MaxCyc=100) B97D3/6-31G* 5D 7F Integral=UltraFineGrid SCF=(NoSy
 mm,XQC,MaxCyc=120) IOp(1/33=1)
 ----------------------------------------------------------------------

 TstMul:  Mul=     1
 TstMul:  ICh=     0
 TstMul:  Mul=     1
 Symbolic Z-matrix:
 Charge =  0 Multiplicity = 1

 SCF Done:  E(RB97D3) =  -343.124796484     A.U. after   11 cycles
 SCF Done:  E(RB97D3) =  -343.125235416     A.U. after   10 cycles
 SCF Done:  E(RB97D3) =  -343.125243085     A.U. after    6 cycles
 Optimization completed.
    -- Stationary point found.

                         Standard orientation:
 ---------------------------------------------------------------------
 Center     Atomic      Atomic             Coordinates (Angstroms)
 Number     Number       Type             X           Y           Z
 ---------------------------------------------------------------------
      1         15           0        0.000000    0.000000    0.130702
      2          1           0        0.000000    1.197520   -0.653512
      3          1           0        1.037083   -0.598760   -0.653512
      4          1           0       -1.037083   -0.598760   -0.653512
 ---------------------------------------------------------------------

 The electronic state is 1-A1.
 Alpha  occ. eigenvalues --  -76.29430  -6.35319  -4.57862  -4.57862  -4.57363
 Alpha  occ. eigenvalues --   -0.58546  -0.34481  -0.34481  -0.24026
 Alpha virt. eigenvalues --    0.00711   0.00711   0.08867   0.25965   0.25965
 Alpha virt. eigenvalues --    0.27962   0.36741   0.61437   0.61437   0.63334
 Alpha virt. eigenvalues --    0.64218   0.64218   0.88495   1.07702   1.07702

 Mulliken charges:
               1
     1  P   -0.114736
     2  H    0.038245
     3  H    0.038245
     4  H    0.038245
 Sum of Mulliken charges =  -0.00000

 Dipole moment (field-independent basis, Debye):
    X=              0.0000    Y=             -0.0000    Z=             -0.9948  Tot=              0.9948
 Quadrupole moment (field-independent basis, Debye-Ang):
   XX=            -14.5415   YY=            -14.5415   ZZ=            -16.8512
   XY=             -0.0000   XZ=              0.0000   YZ=              0.0000

 Normal termination of Gaussian 16 at Wed Oct  7 14:04:42 2020.
