 Gaussian 16, Revision A.03,
 Gaussian 16:  ES64L-G16RevA.03 25-Dec-2016

 ----------------------------------------------------------------------
 #P Opt(MaxCyc=100) B97D3/6-31G* 5D 7F Integral=UltraFineGrid SCF=(NoSy
 mm,XQC,MaxCyc=120) IOp(1/33=1)
 ----------------------------------------------------------------------

 TstMul:  Mul=     2
 TstMul:  ICh=     0
 TstMul:  Mul=     2
 Symbolic Z-matrix:
 Charge =  0 Multiplicity = 2

 SCF Done:  E(UB97D3) =  -55.8355725133     A.U. after   11 cycles
 SCF Done:  E(UB97D3) =  -55.8359413061     A.U. after    7 cycles
 SCF Done:  E(UB97D3) =  -55.8359560153     A.U. after    7 cycles
 Optimization completed.
    -- Stationary point found.

                         Standard orientation:
 ---------------------------------------------------------------------
 Center     Atomic      Atomic             Coordinates (Angstroms)
 Number     Number       Type             X           Y           Z
 ---------------------------------------------------------------------
      1          7           0       -0.000000    0.000000    0.146262
      2          1           0        0.000000    0.805763   -0.511916
      3          1           0       -0.000000   -0.805763   -0.511916
 ---------------------------------------------------------------------

 The electronic state is 2-B1.
 Alpha  occ. eigenvalues --  -14.02648  -0.77636  -0.41809  -0.27313  -0.25550
 Alpha virt. eigenvalues --    0.05654   0.12095   0.62243   0.64372   0.67510
 Alpha virt. eigenvalues --    0.77584   0.82568   1.03286   1.57677   1.59732
 Alpha virt. eigenvalues --    1.60264   1.99471   2.27537
  Beta  occ. eigenvalues --  -14.01745  -0.72449  -0.39920  -0.24392
  Beta virt. eigenvalues --   -0.14204   0.06999   0.13257   0.64094   0.68009
  Beta virt. eigenvalues --    0.69209   0.79499   0.84475   1.06735   1.62612
  Beta virt. eigenvalues --    1.65854   1.68214   2.08372   2.29117

 Mulliken charges and spin densities:
               1          2
     1  N   -0.585401   1.085741
     2  H    0.292701  -0.042870
     3  H    0.292701  -0.042870
 Sum of Mulliken charges =   0.00000   1.00000

 Dipole moment (field-independent basis, Debye):
    X=             -0.0000    Y=              0.0000    Z=             -1.9780  Tot=              1.9780
 Quadrupole moment (field-independent basis, Debye-Ang):
   XX=             -6.9191   YY=             -5.5414   ZZ=             -7.2866
   XY=              0.0000   XZ=              0.0000   YZ=             -0.0000

 1\1\GINC-NODE06\FOpt\UB97D3\6-31G(d)\H2N1(2)\RPEVERATI\07-Oct-2020\0\\
 #P Opt(MaxCyc=100) B97D3/6-31G* 5D 7F Integral=UltraFineGrid SCF=(NoSy
 mm,XQC,MaxCyc=120) IOp(1/33=1)\\TS search on BH76.\\0,2\N,0.,0.,0.1559
 54047\H,0.,0.8057625136,-0.5022236852\H,0.,-0.8057625136,-0.5022236852
 \\Version=ES64L-G16RevA.03\State=2-B1\HF=-55.835956\S2=0.754308\S2-1=0
 .\S2A=0.750013\RMSD=3.245e-09\RMSF=7.999e-05\Dipole=0.,0.,-0.7782168\Q
 uadrupole=-0.2503607,0.7739242,-0.5235635,0.,0.,0.\PG=C02V [C2(N1),SGV
 (H2)]\\@

 Normal termination of Gaussian 16 at Wed Oct  7 14:04:18 2020.
