 Gaussian 16, Revision A.03,
 Gaussian 16:  ES64L-G16RevA.03 25-Dec-2016

 ----------------------------------------------------------------------
 #P Opt(MaxCyc=100) B97D3/6-31G* 5D 7F Integral=UltraFineGrid SCF=(NoSy
 mm,XQC,MaxCyc=120) IOp(1/33=1)
 ----------------------------------------------------------------------

 TstMul:  Mul=     2
 TstMul:  ICh=     0
 TstMul:  Mul=     2
 Symbolic Z-matrix:
 Charge =  0 Multiplicity = 2

 SCF Done:  E(UB97D3) =  -342.487550996     A.U. after   12 cycles
 SCF Done:  E(UB97D3) =  -342.487880602     A.U. after   11 cycles
 SCF Done:  E(UB97D3) =  -342.487881149     A.U. after    6 cycles
 Optimization completed.
    -- Stationary point found.

                         Standard orientation:
 ---------------------------------------------------------------------
 Center     Atomic      Atomic             Coordinates (Angstroms)
 Number     Number       Type             X           Y           Z
 ---------------------------------------------------------------------
      1         15           0        0.000000    0.000000    0.118339
      2          1           0        0.000000    1.026834   -0.887543
      3          1           0       -0.000000   -1.026834   -0.887543
 ---------------------------------------------------------------------

 The electronic state is 2-B1.
 Alpha  occ. eigenvalues --  -76.30890  -6.36451  -4.59263  -4.58996  -4.58644
 Alpha  occ. eigenvalues --   -0.57991  -0.34953  -0.27487  -0.21526
 Alpha virt. eigenvalues --    0.00156   0.04965   0.22961   0.25966   0.27959
 Alpha virt. eigenvalues --    0.28597   0.58687   0.59371   0.60444   0.63702
 Alpha virt. eigenvalues --    0.68885   0.90051   1.05951
  Beta  occ. eigenvalues --  -76.30495  -6.36305  -4.58754  -4.58569  -4.58410
  Beta  occ. eigenvalues --   -0.54729  -0.34071  -0.25766
  Beta virt. eigenvalues --   -0.15339   0.00688   0.07228   0.20985   0.25752
  Beta virt. eigenvalues --    0.27917   0.29048   0.62179   0.63879   0.65888
  Beta virt. eigenvalues --    0.66362   0.74416   0.92240   1.06751

 Mulliken charges and spin densities:
               1          2
     1  P   -0.033596   1.062343
     2  H    0.016798  -0.031171
     3  H    0.016798  -0.031171
 Sum of Mulliken charges =   0.00000   1.00000

 Dipole moment (field-independent basis, Debye):
    X=              0.0000    Y=              0.0000    Z=             -0.8951  Tot=              0.8951
 Quadrupole moment (field-independent basis, Debye-Ang):
   XX=            -14.7460   YY=            -13.8791   ZZ=            -15.3128
   XY=             -0.0000   XZ=             -0.0000   YZ=             -0.0000

 1\1\GINC-NODE37\FOpt\UB97D3\6-31G(d)\H2P1(2)\RPEVERATI\07-Oct-2020\0\\
 #P Opt(MaxCyc=100) B97D3/6-31G* 5D 7F Integral=UltraFineGrid SCF=(NoSy
 mm,XQC,MaxCyc=120) IOp(1/33=1)\\TS search on BH76.\\0,2\P,0.,0.,0.1308
 554176\H,0.,1.0268339228,-0.8750265071\H,0.,-1.0268339228,-0.875026507
 1\\Version=ES64L-G16RevA.03\State=2-B1\HF=-342.4878811\S2=0.755599\S2-
 1=0.\S2A=0.750015\RMSD=9.023e-09\RMSF=8.530e-06\Dipole=0.,0.,-0.352149
 4\Quadrupole=-0.0743651,0.5701399,-0.4957748,0.,0.,0.\PG=C02V [C2(P1),
 SGV(H2)]\\@

 Normal termination of Gaussian 16 at Wed Oct  7 14:04:40 2020.
