 Gaussian 16, Revision A.03,
 Gaussian 16:  ES64L-G16RevA.03 25-Dec-2016

 ----------------------------------------------------------------------
 #P Opt(MaxCyc=100) B97D3/6-31G* 5D 7F Integral=UltraFineGrid SCF=(NoSy
 mm,XQC,MaxCyc=120) IOp(1/33=1)
 ----------------------------------------------------------------------

 TstMul:  Mul=     1
 TstMul:  ICh=     0
 TstMul:  Mul=     1
 Symbolic Z-matrix:
 Charge =  0 Multiplicity = 1

 SCF Done:  E(RB97D3) =  -56.5133459195     A.U. after    9 cycles
 SCF Done:  E(RB97D3) =  -56.5137163820     A.U. after    9 cycles
 SCF Done:  E(RB97D3) =  -56.5137750171     A.U. after    8 cycles
 Optimization completed.
    -- Stationary point found.

                         Standard orientation:
 ---------------------------------------------------------------------
 Center     Atomic      Atomic             Coordinates (Angstroms)
 Number     Number       Type             X           Y           Z
 ---------------------------------------------------------------------
      1          7           0        0.000000    0.000000    0.122304
      2          1           0        0.000000    0.939178   -0.285375
      3          1           0        0.813352   -0.469589   -0.285375
      4          1           0       -0.813352   -0.469589   -0.285375
 ---------------------------------------------------------------------

 The electronic state is 1-A1.
 Alpha  occ. eigenvalues --  -13.97457  -0.76927  -0.40057  -0.40057  -0.20317
 Alpha virt. eigenvalues --    0.06157   0.14357   0.14357   0.64597   0.64597
 Alpha virt. eigenvalues --    0.68132   0.86072   0.86072   0.87108   1.19399
 Alpha virt. eigenvalues --    1.60227   1.60227   1.85810   2.31419   2.31419

 Mulliken charges:
               1
     1  N   -0.888880
     2  H    0.296293
     3  H    0.296293
     4  H    0.296293
 Sum of Mulliken charges =   0.00000

 Dipole moment (field-independent basis, Debye):
    X=             -0.0000    Y=             -0.0000    Z=             -1.9113  Tot=              1.9113
 Quadrupole moment (field-independent basis, Debye-Ang):
   XX=             -6.1498   YY=             -6.1498   ZZ=             -8.7372
   XY=             -0.0000   XZ=              0.0000   YZ=              0.0000

 Normal termination of Gaussian 16 at Wed Oct  7 14:04:34 2020.
