 Gaussian 16, Revision A.03,

 ----------------------------------------------------------------------
 #P Opt(TS,MaxCyc=50,NoEigenTest,MaxStep=10,AddRedundant) B97D3/6-31G*
 5D 7F Integral=UltraFineGrid SCF=(NoSymm,XQC,MaxCyc=120) IOp(1/33=1)
 ----------------------------------------------------------------------

 TstMul:  Mul=     2
 TstMul:  ICh=     0
 TstMul:  Mul=     2
 Symbolic Z-matrix:
 Charge =  0 Multiplicity = 2

 SCF Done:  E(UB97D3) =  -76.8551273139     A.U. after   14 cycles
 SCF Done:  E(UB97D3) =  -76.8554466978     A.U. after   14 cycles
 SCF Done:  E(UB97D3) =  -76.8555810334     A.U. after   14 cycles
 SCF Done:  E(UB97D3) =  -76.8556580605     A.U. after   11 cycles
 SCF Done:  E(UB97D3) =  -76.8556907046     A.U. after   13 cycles
 SCF Done:  E(UB97D3) =  -76.8557065132     A.U. after   10 cycles
 SCF Done:  E(UB97D3) =  -76.8557287948     A.U. after   14 cycles
 SCF Done:  E(UB97D3) =  -76.8557827788     A.U. after   15 cycles
 SCF Done:  E(UB97D3) =  -76.8557052128     A.U. after   15 cycles
 SCF Done:  E(UB97D3) =  -76.8556411615     A.U. after   14 cycles
 SCF Done:  E(UB97D3) =  -76.8556363235     A.U. after   11 cycles
 Optimization completed.
    -- Stationary point found.
 Normal termination of Gaussian 16 at Wed Oct  7 14:06:17 2020.
 Gaussian 16:  ES64L-G16RevA.03 25-Dec-2016

 ----------------------------------------------------------------------
 #P Freq B97D3/6-31G* 5D 7F Integral=UltraFineGrid SCF=(NoSymm,XQC,MaxC
 yc=120) IOp(1/33=1) Geom=Check Guess=Read
 ----------------------------------------------------------------------

 TstMul:  Mul=     2
 TstMul:  ICh=     0
 TstMul:  Mul=     2
 Structure from the checkpoint file:  "MN_79_RKT02_BH76_B97DBJ_631Gs.chk"
 Charge =  0 Multiplicity = 2

                         Standard orientation:
 ---------------------------------------------------------------------
 Center     Atomic      Atomic             Coordinates (Angstroms)
 Number     Number       Type             X           Y           Z
 ---------------------------------------------------------------------
      1          8           0       -0.294129   -0.111871   -0.000050
      2          1           0       -0.489554    0.852457    0.000098
      3          1           0        1.004230   -0.091033    0.000749
      4          1           0        1.838354    0.133547   -0.000447
 ---------------------------------------------------------------------

 SCF Done:  E(UB97D3) =  -76.8556363235     A.U. after    1 cycles

 The electronic state is 2-A.
 Alpha  occ. eigenvalues --  -18.79900  -0.91389  -0.47245  -0.38694  -0.26571
 Alpha  occ. eigenvalues --   -0.25870
 Alpha virt. eigenvalues --    0.05817   0.16379   0.62052   0.73349   0.77746
 Alpha virt. eigenvalues --    0.82013   0.94127   1.01653   1.35765   1.63351
 Alpha virt. eigenvalues --    1.66855   1.68219   1.94803   2.32998
  Beta  occ. eigenvalues --  -18.78898  -0.87088  -0.44154  -0.35647  -0.23555
  Beta virt. eigenvalues --   -0.19193   0.06774   0.16895   0.62390   0.73876
  Beta virt. eigenvalues --    0.81089   0.83418   0.95326   1.04441   1.38668
  Beta virt. eigenvalues --    1.67820   1.68025   1.72327   1.98756   2.35101

 Mulliken charges and spin densities:
               1          2
     1  O   -0.556642   0.677410
     2  H    0.394399  -0.023883
     3  H    0.177497  -0.037497
     4  H   -0.015254   0.383970
 Sum of Mulliken charges =  -0.00000   1.00000

 Dipole moment (field-independent basis, Debye):
    X=              0.3699    Y=              1.6067    Z=              0.0009  Tot=              1.6487
 Quadrupole moment (field-independent basis, Debye-Ang):
   XX=             -6.8349   YY=             -6.5428   ZZ=             -8.4570
   XY=             -0.8534   XZ=             -0.0002   YZ=              0.0000

  Exact polarizability:  22.044   0.700   6.984  -0.009  -0.003   2.654
 Approx polarizability:  40.605   3.494  10.389  -0.014  -0.004   3.038

 ******    1 imaginary frequencies (negative Signs) ******

                      1                      2                      3
                      A                      A                      A
 Frequencies --   -710.8029               325.2003               682.6410
 Red. masses --      1.1060                 1.0201                 1.0212
 Frc consts  --      0.3292                 0.0636                 0.2804
 IR Inten    --     27.5683                37.4187                30.3437

                      4                      5                      6
                      A                      A                      A
 Frequencies --   1177.7845              2242.9468              3581.9017
 Red. masses --      1.0619                 1.0230                 1.0664
 Frc consts  --      0.8679                 3.0321                 8.0610
 IR Inten    --    131.1445                35.6011                 7.0427

 - Thermochemistry -
 -------------------
 Temperature   298.150 Kelvin.  Pressure   1.00000 Atm.
 Atom     1 has atomic number  8 and mass  15.99491

 Molecular mass:    19.01839 amu.
 Principal axes and moments of inertia in atomic units:
                           1         2         3
     Eigenvalues --     3.25930  20.59147  23.85076
           X            0.99951  -0.03136  -0.00001
           Y            0.03136   0.99951  -0.00003
           Z            0.00001   0.00003   1.00000
 This molecule is an asymmetric top.
 Rotational symmetry number  1.
 Rotational temperatures (Kelvin)     26.57441     4.20630     3.63150
 Rotational constants (GHZ):         553.72090    87.64509    75.66807
    1 imaginary frequencies ignored.
 Zero-point vibrational energy      47913.3 (Joules/Mol)
                                   11.45155 (Kcal/Mol)
 Warning -- explicit consideration of   1 degrees of freedom as
           vibrations may cause significant error
 Vibrational temperatures:    467.89   982.17  1694.57  3227.10  5153.56
          (Kelvin)

 Zero-point correction=                           0.018249 (Hartree/Particle)
 Thermal correction to Energy=                    0.021610
 Thermal correction to Enthalpy=                  0.022554
 Thermal correction to Gibbs Free Energy=        -0.002599
 Sum of electronic and zero-point Energies=            -76.837387
 Sum of electronic and thermal Energies=               -76.834027
 Sum of electronic and thermal Enthalpies=             -76.833082
 Sum of electronic and thermal Free Energies=          -76.858235

                     E (Thermal)             CV                S
                      KCal/Mol        Cal/Mol-Kelvin    Cal/Mol-Kelvin
 Total                   13.560              8.674             52.939
 Electronic               0.000              0.000              1.377
 Translational            0.889              2.981             34.771
 Rotational               0.889              2.981             15.134
 Vibrational             11.783              2.712              1.657
 Vibration     1          0.709              1.625              1.284

                           ! Non-Optimized Parameters !

 1\1\GINC-NODE23\Freq\UB97D3\6-31G(d)\H3O1(2)\RPEVERATI\07-Oct-2020\0\\
 #P Freq B97D3/6-31G* 5D 7F Integral=UltraFineGrid SCF=(NoSymm,XQC,MaxC
 yc=120) IOp(1/33=1) Geom=Check Guess=Read\\TS search on BH76.\\0,2\O,-
 0.2872629312,-0.1043287982,-0.0010281551\H,-0.4657482257,0.8632765304,
 0.0009758728\H,1.0112609727,-0.1062641069,0.0002774138\H,1.8491952512,
 0.1036556035,-0.0001711318\\Version=ES64L-G16RevA.03\State=2-A\HF=-76.
 8556363\S2=0.754276\S2-1=0.\S2A=0.75001\RMSD=9.582e-10\RMSF=1.114e-04\
 ZeroPoint=0.0182492\Thermal=0.0216097\Dipole=0.1565897,0.6294816,0.001

 Normal termination of Gaussian 16 at Wed Oct  7 14:06:40 2020.
