 Gaussian 16, Revision A.03,
 Gaussian 16:  ES64L-G16RevA.03 25-Dec-2016

 ----------------------------------------------------------------------
 #P Opt(MaxCyc=100) B97D3/6-31G* 5D 7F Integral=UltraFineGrid SCF=(NoSy
 mm,XQC,MaxCyc=120) IOp(1/33=1)
 ----------------------------------------------------------------------

 TstMul:  Mul=     1
 TstMul:  ICh=    -1
 TstMul:  Mul=     1
 Symbolic Z-matrix:
 Charge = -1 Multiplicity = 1

 SCF Done:  E(RB97D3) =  -75.6725340393     A.U. after   11 cycles
 SCF Done:  E(RB97D3) =  -75.6732028095     A.U. after    9 cycles
 SCF Done:  E(RB97D3) =  -75.6732281933     A.U. after    7 cycles
 Optimization completed.
    -- Stationary point found.

                         Standard orientation:
 ---------------------------------------------------------------------
 Center     Atomic      Atomic             Coordinates (Angstroms)
 Number     Number       Type             X           Y           Z
 ---------------------------------------------------------------------
      1          8           0        0.000000    0.000000    0.110252
      2          1           0        0.000000    0.000000   -0.882014
 ---------------------------------------------------------------------

 The electronic state is 1-SG.
 Alpha  occ. eigenvalues --  -18.28407  -0.39511   0.05954   0.21962   0.21962
 Alpha virt. eigenvalues --    0.39314   1.13258   1.24883   1.24883   1.29058
 Alpha virt. eigenvalues --    1.61413   2.13348   2.13348   2.19525   2.19525
 Alpha virt. eigenvalues --    2.76472

 Mulliken charges:
               1
     1  O   -1.152004
     2  H    0.152004
 Sum of Mulliken charges =  -1.00000

 Dipole moment (field-independent basis, Debye):
    X=              0.0000    Y=             -0.0000    Z=             -1.1724  Tot=              1.1724
 Quadrupole moment (field-independent basis, Debye-Ang):
   XX=             -7.9528   YY=             -7.9528   ZZ=             -6.7959
   XY=             -0.0000   XZ=              0.0000   YZ=             -0.0000

 Normal termination of Gaussian 16 at Thu Oct  8 18:58:29 2020.
