 Gaussian 16, Revision A.03,
 Gaussian 16:  ES64L-G16RevA.03 25-Dec-2016

 ----------------------------------------------------------------------
 #P Opt(MaxCyc=100) B97D3/6-31G* 5D 7F Integral=UltraFineGrid SCF=(NoSy
 mm,XQC,MaxCyc=120) IOp(1/33=1)
 ----------------------------------------------------------------------

 TstMul:  Mul=     2
 TstMul:  ICh=     0
 TstMul:  Mul=     2
 Symbolic Z-matrix:
 Charge =  0 Multiplicity = 2

 SCF Done:  E(UB97D3) =  -75.6772072606     A.U. after   11 cycles
 SCF Done:  E(UB97D3) =  -75.6775168591     A.U. after    8 cycles
 SCF Done:  E(UB97D3) =  -75.6775200731     A.U. after    7 cycles
 Optimization completed.
    -- Stationary point found.

                         Standard orientation:
 ---------------------------------------------------------------------
 Center     Atomic      Atomic             Coordinates (Angstroms)
 Number     Number       Type             X           Y           Z
 ---------------------------------------------------------------------
      1          8           0        0.000000    0.000000    0.109800
      2          1           0        0.000000    0.000000   -0.878401
 ---------------------------------------------------------------------

 Unable to determine electronic state:  partially filled degenerate orbitals.
 Alpha  occ. eigenvalues --  -18.82164  -0.91893  -0.41276  -0.34107  -0.27018
 Alpha virt. eigenvalues --    0.04706   0.71488   0.78300   0.81840   0.87604
 Alpha virt. eigenvalues --    1.16909   1.61388   1.66476   1.67558   1.67704
 Alpha virt. eigenvalues --    2.30335
  Beta  occ. eigenvalues --  -18.80735  -0.85289  -0.38138  -0.23636
  Beta virt. eigenvalues --   -0.20541   0.05965   0.72273   0.83685   0.85029
  Beta virt. eigenvalues --    0.89365   1.20654   1.67923   1.68709   1.74521
  Beta virt. eigenvalues --    1.75742   2.33265

 Mulliken charges and spin densities:
               1          2
     1  O   -0.404794   1.039551
     2  H    0.404794  -0.039551
 Sum of Mulliken charges =  -0.00000   1.00000

 Dipole moment (field-independent basis, Debye):
    X=              0.0000    Y=              0.0000    Z=             -1.7264  Tot=              1.7264
 Quadrupole moment (field-independent basis, Debye-Ang):
   XX=             -6.4151   YY=             -5.2650   ZZ=             -4.4144
   XY=             -0.0000   XZ=              0.0000   YZ=             -0.0000

 1\1\GINC-NODE62\FOpt\UB97D3\6-31G(d)\H1O1(2)\RPEVERATI\07-Oct-2020\0\\
 #P Opt(MaxCyc=100) B97D3/6-31G* 5D 7F Integral=UltraFineGrid SCF=(NoSy
 mm,XQC,MaxCyc=120) IOp(1/33=1)\\TS search on BH76.\\0,2\O,0.,0.,0.1173
 075326\H,0.,0.,-0.8708934523\\Version=ES64L-G16RevA.03\HF=-75.6775201\
 S2=0.753139\S2-1=0.\S2A=0.750006\RMSD=3.844e-09\RMSF=7.206e-07\Dipole=
 0.,0.,-0.6792018\Quadrupole=-0.7808092,0.0742036,0.7066057,0.,0.,0.\PG
 =C*V [C*(H1O1)]\\@

 Normal termination of Gaussian 16 at Wed Oct  7 14:04:38 2020.
