 Gaussian 16, Revision A.03,

 ----------------------------------------------------------------------
 #P Opt(TS,MaxCyc=50,NoEigenTest,MaxStep=10,AddRedundant) B97D3/6-31G*
 5D 7F Integral=UltraFineGrid SCF=(NoSymm,XQC,MaxCyc=120) IOp(1/33=1)
 ----------------------------------------------------------------------

 TstMul:  Mul=     2
 TstMul:  ICh=     0
 TstMul:  Mul=     2
 Symbolic Z-matrix:
 Charge =  0 Multiplicity = 2

 SCF Done:  E(UB97D3) =  -132.207529266     A.U. after   17 cycles
 SCF Done:  E(UB97D3) =  -132.207566166     A.U. after   11 cycles
 SCF Done:  E(UB97D3) =  -132.207567787     A.U. after   11 cycles
 SCF Done:  E(UB97D3) =  -132.208588069     A.U. after   15 cycles
 SCF Done:  E(UB97D3) =  -132.208753211     A.U. after   13 cycles
 SCF Done:  E(UB97D3) =  -132.208792635     A.U. after   13 cycles
 SCF Done:  E(UB97D3) =  -132.208795774     A.U. after   13 cycles
 SCF Done:  E(UB97D3) =  -132.208806529     A.U. after   10 cycles
 SCF Done:  E(UB97D3) =  -132.208812330     A.U. after   10 cycles
 SCF Done:  E(UB97D3) =  -132.208815709     A.U. after   10 cycles
 SCF Done:  E(UB97D3) =  -132.208819163     A.U. after    9 cycles
 SCF Done:  E(UB97D3) =  -132.208821284     A.U. after    9 cycles
 SCF Done:  E(UB97D3) =  -132.208821526     A.U. after    8 cycles
 Optimization completed.
    -- Stationary point found.
 Normal termination of Gaussian 16 at Sat Oct 10 18:57:28 2020.
 Gaussian 16:  ES64L-G16RevA.03 25-Dec-2016

 ----------------------------------------------------------------------
 #P Freq B97D3/6-31G* 5D 7F Integral=UltraFineGrid SCF=(NoSymm,XQC,MaxC
 yc=120) IOp(1/33=1) Geom=Check Guess=Read
 ----------------------------------------------------------------------

 TstMul:  Mul=     2
 TstMul:  ICh=     0
 TstMul:  Mul=     2
 Structure from the checkpoint file:  "MN_83_RKT07_BH76_B97DBJ_631Gs.chk"
 Charge =  0 Multiplicity = 2

                         Standard orientation:
 ---------------------------------------------------------------------
 Center     Atomic      Atomic             Coordinates (Angstroms)
 Number     Number       Type             X           Y           Z
 ---------------------------------------------------------------------
      1          7           0       -1.157285   -0.010024   -0.114607
      2          8           0        1.178464   -0.106796    0.017381
      3          1           0       -1.356286   -0.715876    0.605237
      4          1           0       -1.349263    0.897789    0.327449
      5          1           0        0.001518   -0.104104   -0.393641
      6          1           0        1.377314    0.846730    0.124151
 ---------------------------------------------------------------------

 SCF Done:  E(UB97D3) =  -132.208821526     A.U. after    2 cycles

 The electronic state is 2-A.
 Alpha  occ. eigenvalues --  -18.75839 -14.02719  -0.88815  -0.79312  -0.45874
 Alpha  occ. eigenvalues --   -0.43977  -0.35848  -0.28639  -0.23584  -0.22890
 Alpha virt. eigenvalues --    0.03992   0.09009   0.11738   0.24629   0.57945
 Alpha virt. eigenvalues --    0.60345   0.65352   0.74997   0.77915   0.78312
 Alpha virt. eigenvalues --    0.81773   0.89466   0.92495   1.04333   1.18320

  Beta  occ. eigenvalues --  -18.75101 -14.02161  -0.85916  -0.76408  -0.44153
  Beta  occ. eigenvalues --   -0.42682  -0.34083  -0.24773  -0.21684
  Beta virt. eigenvalues --   -0.16210   0.04866   0.09809   0.12437   0.25867
  Beta virt. eigenvalues --    0.59792   0.60952   0.68021   0.75773   0.78990
  Beta virt. eigenvalues --    0.79757   0.82951   0.90868   0.94387   1.06127

 Mulliken charges and spin densities:
               1          2
     1  N   -0.772820   0.604084
     2  O   -0.680551   0.489584
     3  H    0.328985  -0.022916
     4  H    0.314732  -0.023488
     5  H    0.433860  -0.030831
     6  H    0.375794  -0.016434
 Sum of Mulliken charges =  -0.00000   1.00000

 Dipole moment (field-independent basis, Debye):
    X=             -1.2698    Y=              1.7637    Z=              1.3532  Tot=              2.5601
 Quadrupole moment (field-independent basis, Debye-Ang):
   XX=            -13.8556   YY=            -10.6778   ZZ=            -13.9665
   XY=              2.0028   XZ=             -2.2871   YZ=              0.0159

  Exact polarizability:  41.466   1.075  15.283   0.096   0.140  10.000
 Approx polarizability: 116.297  -2.449  22.559   6.457   0.068  13.958

 ******    1 imaginary frequencies (negative Signs) ******

                      1                      2                      3
                      A                      A                      A
 Frequencies --  -1146.0435               263.9639               418.4773
 Red. masses --      1.0441                 1.0619                 1.9777
 Frc consts  --      0.8079                 0.0436                 0.2041
 IR Inten    --     46.9984                76.1185                29.7499

                      4                      5                      6
                      A                      A                      A
 Frequencies --    516.3849               792.7791               865.5079
 Red. masses --      1.0367                 1.7187                 1.1592
 Frc consts  --      0.1629                 0.6364                 0.5116
 IR Inten    --     35.8041               155.9031                81.4976

                      7                      8                      9
                      A                      A                      A
 Frequencies --   1452.7935              1621.8570              1677.4544
 Red. masses --      1.1244                 1.0676                 1.0308
 Frc consts  --      1.3983                 1.6546                 1.7090
 IR Inten    --    129.9670                39.2854                16.6744

                     10                     11                     12
                      A                      A                      A
 Frequencies --   3367.5944              3474.1123              3616.3667
 Red. masses --      1.0499                 1.0905                 1.0661
 Frc consts  --      7.0150                 7.7545                 8.2149
 IR Inten    --      3.3687                 0.4305                17.5462

 - Thermochemistry -
 -------------------
 Temperature   298.150 Kelvin.  Pressure   1.00000 Atm.
 Atom     1 has atomic number  7 and mass  14.00307

 Molecular mass:    34.02929 amu.
 Principal axes and moments of inertia in atomic units:
                           1         2         3
     Eigenvalues --    10.71999 169.12788 174.14821
           X            0.99951   0.01995  -0.02421
           Y           -0.01991   0.99980   0.00218
           Z            0.02425  -0.00170   0.99970
 This molecule is an asymmetric top.
 Rotational symmetry number  1.
 Rotational temperatures (Kelvin)      8.07966     0.51212     0.49736
 Rotational constants (GHZ):         168.35284    10.67087    10.36325
    1 imaginary frequencies ignored.
 Zero-point vibrational energy     108066.4 (Joules/Mol)
                                   25.82849 (Kcal/Mol)
 Warning -- explicit consideration of   3 degrees of freedom as
           vibrations may cause significant error
 Vibrational temperatures:    379.79   602.10   742.96  1140.63  1245.27
          (Kelvin)           2090.25  2333.49  2413.48  4845.22  4998.47
                             5203.15

 Zero-point correction=                           0.041160 (Hartree/Particle)
 Thermal correction to Energy=                    0.045117
 Thermal correction to Enthalpy=                  0.046062
 Thermal correction to Gibbs Free Energy=         0.016690
 Sum of electronic and zero-point Energies=           -132.167661
 Sum of electronic and thermal Energies=              -132.163704
 Sum of electronic and thermal Enthalpies=            -132.162760
 Sum of electronic and thermal Free Energies=         -132.192132

                     E (Thermal)             CV                S
                      KCal/Mol        Cal/Mol-Kelvin    Cal/Mol-Kelvin
 Total                   28.312             11.733             61.818
 Electronic               0.000              0.000              1.377
 Translational            0.889              2.981             36.505
 Rotational               0.889              2.981             20.385
 Vibrational             26.534              5.771              3.551
 Vibration     1          0.671              1.739              1.635
 Vibration     2          0.781              1.430              0.897
 Vibration     3          0.871              1.214              0.618

                           ! Non-Optimized Parameters !
 Normal termination of Gaussian 16 at Sat Oct 10 18:57:40 2020.
