 Gaussian 16, Revision A.03,

 ----------------------------------------------------------------------
 #P Opt(TS,MaxCyc=50,NoEigenTest,MaxStep=10,AddRedundant) B97D3/6-31G*
 5D 7F Integral=UltraFineGrid SCF=(NoSymm,XQC,MaxCyc=120) IOp(1/33=1)
 ----------------------------------------------------------------------

 TstMul:  Mul=     2
 TstMul:  ICh=     0
 TstMul:  Mul=     2
 Symbolic Z-matrix:
 Charge =  0 Multiplicity = 2

 SCF Done:  E(UB97D3) =  -116.169805755     A.U. after   13 cycles
 SCF Done:  E(UB97D3) =  -116.170074409     A.U. after   13 cycles
 SCF Done:  E(UB97D3) =  -116.170466344     A.U. after   12 cycles
 SCF Done:  E(UB97D3) =  -116.170475871     A.U. after   10 cycles
 SCF Done:  E(UB97D3) =  -116.170478263     A.U. after    9 cycles
 SCF Done:  E(UB97D3) =  -116.170483756     A.U. after   11 cycles
 SCF Done:  E(UB97D3) =  -116.170490474     A.U. after   10 cycles
 SCF Done:  E(UB97D3) =  -116.170461277     A.U. after   14 cycles
 SCF Done:  E(UB97D3) =  -116.170463145     A.U. after   12 cycles
 SCF Done:  E(UB97D3) =  -116.170463406     A.U. after   12 cycles
 SCF Done:  E(UB97D3) =  -116.170465118     A.U. after   10 cycles
 SCF Done:  E(UB97D3) =  -116.170465331     A.U. after    8 cycles
 SCF Done:  E(UB97D3) =  -116.170466758     A.U. after   12 cycles
 SCF Done:  E(UB97D3) =  -116.170468972     A.U. after   12 cycles
 SCF Done:  E(UB97D3) =  -116.170471720     A.U. after   13 cycles
 SCF Done:  E(UB97D3) =  -116.170472315     A.U. after   12 cycles
 SCF Done:  E(UB97D3) =  -116.170472466     A.U. after   11 cycles
 SCF Done:  E(UB97D3) =  -116.170472494     A.U. after    9 cycles
 SCF Done:  E(UB97D3) =  -116.170472498     A.U. after    8 cycles
 Optimization completed.
    -- Stationary point found.
 Normal termination of Gaussian 16 at Wed Oct  7 14:12:53 2020.
 Gaussian 16:  ES64L-G16RevA.03 25-Dec-2016

 ----------------------------------------------------------------------
 #P Freq B97D3/6-31G* 5D 7F Integral=UltraFineGrid SCF=(NoSymm,XQC,MaxC
 yc=120) IOp(1/33=1) Geom=Check Guess=Read
 ----------------------------------------------------------------------

 TstMul:  Mul=     2
 TstMul:  ICh=     0
 TstMul:  Mul=     2
 Structure from the checkpoint file:  "MN_81_RKT04_BH76_B97DBJ_631Gs.chk"
 Charge =  0 Multiplicity = 2

                         Standard orientation:
 ---------------------------------------------------------------------
 Center     Atomic      Atomic             Coordinates (Angstroms)
 Number     Number       Type             X           Y           Z
 ---------------------------------------------------------------------
      1          6           0       -1.220310    0.008879   -0.000000
      2          8           0        1.302421   -0.110252    0.000005
      3          1           0        0.016814   -0.162998    0.000080
      4          1           0       -1.571073   -0.480793    0.914284
      5          1           0       -1.402193    1.088573    0.000733
      6          1           0       -1.570669   -0.479493   -0.915137
      7          1           0        1.429616    0.863458   -0.000001
 ---------------------------------------------------------------------

 SCF Done:  E(UB97D3) =  -116.170472498     A.U. after    1 cycles

 The electronic state is 2-A.
 Alpha  occ. eigenvalues --  -18.77065  -9.91895  -0.89022  -0.64723  -0.43016
 Alpha  occ. eigenvalues --   -0.37544  -0.37377  -0.35572  -0.23530  -0.22875
 Alpha virt. eigenvalues --    0.06306   0.10202   0.13551   0.13816   0.24690
 Alpha virt. eigenvalues --    0.48431   0.48526   0.51096   0.72587   0.76533
 Alpha virt. eigenvalues --    0.82732   0.82872   0.84306   0.86648   0.92834

  Beta  occ. eigenvalues --  -18.76140  -9.91655  -0.85177  -0.62666  -0.40421
  Beta  occ. eigenvalues --   -0.36600  -0.36579  -0.32543  -0.21433
  Beta virt. eigenvalues --   -0.15927   0.07111   0.10952   0.14173   0.14407
  Beta virt. eigenvalues --    0.26321   0.48861   0.48956   0.53897   0.73472
  Beta virt. eigenvalues --    0.77634   0.83522   0.83668   0.85322   0.87945

 Mulliken charges and spin densities:
               1          2
     1  C   -0.665153   0.496787
     2  O   -0.623738   0.611398
     3  H    0.351483  -0.041573
     4  H    0.190580  -0.014200
     5  H    0.177411  -0.018180
     6  H    0.190580  -0.014204
     7  H    0.378837  -0.020028
 Sum of Mulliken charges =  -0.00000   1.00000

 Dipole moment (field-independent basis, Debye):
    X=             -1.3936    Y=              1.4991    Z=             -0.0000  Tot=              2.0468
 Quadrupole moment (field-independent basis, Debye-Ang):
   XX=            -14.5218   YY=            -12.5096   ZZ=            -14.3449
   XY=              2.5611   XZ=             -0.0002   YZ=             -0.0000

  Exact polarizability:  35.228   1.226  18.301  -0.001   0.000  14.698
 Approx polarizability:  59.622  -0.274  26.312  -0.001   0.000  19.591

 ******    1 imaginary frequencies (negative Signs) ******

                      1                      2                      3
                      A                      A                      A
 Frequencies --   -937.7971                26.6621               288.1001
 Red. masses --      1.1311                 1.0521                 1.0600
 Frc consts  --      0.5861                 0.0004                 0.0518
 IR Inten    --    302.6188                81.0709                 6.7226

                      4                      5                      6
                      A                      A                      A
 Frequencies --    370.9498               684.7882               886.1193
 Red. masses --      1.1433                 2.8529                 1.2004
 Frc consts  --      0.0927                 0.7882                 0.5553
 IR Inten    --      8.1843                62.2749               131.9573

                      7                      8                      9
                      A                      A                      A
 Frequencies --   1089.6988              1244.9573              1421.7386
 Red. masses --      1.0980                 1.1276                 1.1139
 Frc consts  --      0.7682                 1.0297                 1.3265
 IR Inten    --     45.5088                 3.0504                37.0611

                     10                     11                     12
                      A                      A                      A
 Frequencies --   1445.1038              1464.8374              3032.1363
 Red. masses --      1.0627                 1.0183                 1.0221
 Frc consts  --      1.3076                 1.2874                 5.5365
 IR Inten    --      1.8032                23.9899                 2.7942

                     13                     14                     15
                      A                      A                      A
 Frequencies --   3158.4882              3162.4343              3596.7404
 Red. masses --      1.1077                 1.1083                 1.0664
 Frc consts  --      6.5105                 6.5307                 8.1279
 IR Inten    --     15.3616                12.4283                 8.8014

 - Thermochemistry -
 -------------------
 Temperature   298.150 Kelvin.  Pressure   1.00000 Atm.
 Atom     1 has atomic number  6 and mass  12.00000

 Molecular mass:    33.03404 amu.
 Principal axes and moments of inertia in atomic units:
                           1         2         3
     Eigenvalues --    15.26163 197.99479 201.21133
           X            0.99976   0.02203  -0.00000
           Y           -0.02203   0.99976   0.00000
           Z            0.00000  -0.00000   1.00000
 This molecule is an asymmetric top.
 Rotational symmetry number  1.
 Rotational temperatures (Kelvin)      5.67527     0.43746     0.43046
 Rotational constants (GHZ):         118.25348     9.11509     8.96938
    1 imaginary frequencies ignored.
 Zero-point vibrational energy     130828.1 (Joules/Mol)
                                   31.26867 (Kcal/Mol)
 Warning -- explicit consideration of   3 degrees of freedom as
           vibrations may cause significant error
 Vibrational temperatures:     38.36   414.51   533.71   985.26  1274.93
          (Kelvin)           1567.83  1791.22  2045.56  2079.18  2107.57
                             4362.57  4544.36  4550.04  5174.91

 Zero-point correction=                           0.049830 (Hartree/Particle)
 Thermal correction to Energy=                    0.054555
 Thermal correction to Enthalpy=                  0.055500
 Thermal correction to Gibbs Free Energy=         0.023157
 Sum of electronic and zero-point Energies=           -116.120643
 Sum of electronic and thermal Energies=              -116.115917
 Sum of electronic and thermal Enthalpies=            -116.114973
 Sum of electronic and thermal Free Energies=         -116.147315

                     E (Thermal)             CV                S
                      KCal/Mol        Cal/Mol-Kelvin    Cal/Mol-Kelvin
 Total                   34.234             13.292             68.070
 Electronic               0.000              0.000              1.377
 Translational            0.889              2.981             36.416
 Rotational               0.889              2.981             21.036
 Vibrational             32.457              7.330              9.241
 Vibration     1          0.593              1.984              6.063
 Vibration     2          0.685              1.696              1.485
 Vibration     3          0.743              1.532              1.076

 Optimization completed.
    -- Stationary point found.
 Normal termination of Gaussian 16 at Wed Oct  7 14:13:27 2020.
