 Gaussian 16, Revision A.03,

 ----------------------------------------------------------------------
 #P Opt(TS,MaxCyc=50,NoEigenTest,MaxStep=10,AddRedundant) B97D3/6-31G*
 5D 7F Integral=UltraFineGrid SCF=(NoSymm,XQC,MaxCyc=120) IOp(1/33=1)
 ----------------------------------------------------------------------

 TstMul:  Mul=     2
 TstMul:  ICh=     0
 TstMul:  Mul=     2
 Symbolic Z-matrix:
 Charge =  0 Multiplicity = 2

 SCF Done:  E(UB97D3) =  -500.630249797     A.U. after   14 cycles
 SCF Done:  E(UB97D3) =  -500.631199303     A.U. after   12 cycles
 SCF Done:  E(UB97D3) =  -500.631546549     A.U. after   12 cycles
 SCF Done:  E(UB97D3) =  -500.631126762     A.U. after   12 cycles
 SCF Done:  E(UB97D3) =  -500.630671025     A.U. after   11 cycles
 SCF Done:  E(UB97D3) =  -500.630201258     A.U. after   11 cycles
 SCF Done:  E(UB97D3) =  -500.629726145     A.U. after   12 cycles
 SCF Done:  E(UB97D3) =  -500.629257318     A.U. after   12 cycles
 SCF Done:  E(UB97D3) =  -500.628820129     A.U. after   12 cycles
 SCF Done:  E(UB97D3) =  -500.628444839     A.U. after   12 cycles
 SCF Done:  E(UB97D3) =  -500.626858818     A.U. after   12 cycles
 SCF Done:  E(UB97D3) =  -500.626832354     A.U. after   11 cycles
 SCF Done:  E(UB97D3) =  -500.626825675     A.U. after   11 cycles
 SCF Done:  E(UB97D3) =  -500.626826544     A.U. after    9 cycles
 SCF Done:  E(UB97D3) =  -500.626827243     A.U. after    8 cycles
 SCF Done:  E(UB97D3) =  -500.626826654     A.U. after    9 cycles
 SCF Done:  E(UB97D3) =  -500.626827746     A.U. after    9 cycles
 SCF Done:  E(UB97D3) =  -500.626828578     A.U. after    8 cycles
 SCF Done:  E(UB97D3) =  -500.626828678     A.U. after    8 cycles
 Optimization completed.
    -- Stationary point found.
 Normal termination of Gaussian 16 at Wed Oct  7 14:13:09 2020.
 Gaussian 16:  ES64L-G16RevA.03 25-Dec-2016

 ----------------------------------------------------------------------
 #P Freq B97D3/6-31G* 5D 7F Integral=UltraFineGrid SCF=(NoSymm,XQC,MaxC
 yc=120) IOp(1/33=1) Geom=Check Guess=Read
 ----------------------------------------------------------------------

 TstMul:  Mul=     2
 TstMul:  ICh=     0
 TstMul:  Mul=     2
 Structure from the checkpoint file:  "MN_84_RKT08_BH76_B97DBJ_631Gs.chk"
 Charge =  0 Multiplicity = 2

                         Standard orientation:
 ---------------------------------------------------------------------
 Center     Atomic      Atomic             Coordinates (Angstroms)
 Number     Number       Type             X           Y           Z
 ---------------------------------------------------------------------
      1          6           0        2.081220    0.001324   -0.019651
      2          1           0        2.496816   -0.067243    0.983132
      3          1           0        2.043193    0.973109   -0.508323
      4          1           0        2.042204   -0.895164   -0.635605
      5          1           0        0.151640   -0.023285    0.345030
      6         17           0       -1.130657    0.000273   -0.003902
 ---------------------------------------------------------------------

 SCF Done:  E(UB97D3) =  -500.626828678     A.U. after    1 cycles

 The electronic state is 2-A.
 Alpha  occ. eigenvalues -- -100.62983  -9.94668  -9.21174  -7.05103  -7.03916
 Alpha  occ. eigenvalues --   -7.03909  -0.75182  -0.65196  -0.41445  -0.40106
 Alpha  occ. eigenvalues --   -0.40093  -0.27044  -0.26970  -0.22521
 Alpha virt. eigenvalues --    0.03857   0.06940   0.13026   0.13147   0.35830
 Alpha virt. eigenvalues --    0.39829   0.40625   0.41088   0.50025   0.50922
 Alpha virt. eigenvalues --    0.51342   0.70002   0.79176   0.79268   0.82107

  Beta  occ. eigenvalues -- -100.62902  -9.94277  -9.21132  -7.04947  -7.03858
  Beta  occ. eigenvalues --   -7.03854  -0.74623  -0.61382  -0.40671  -0.38774
  Beta  occ. eigenvalues --   -0.38746  -0.26767  -0.26739
  Beta virt. eigenvalues --   -0.13773   0.05427   0.08657   0.13967   0.14097
  Beta virt. eigenvalues --    0.36268   0.40490   0.40745   0.41180   0.50448
  Beta virt. eigenvalues --    0.51509   0.54012   0.72445   0.79930   0.80029

 Mulliken charges and spin densities:
               1          2
     1  C   -0.527665   1.034033
     2  H    0.194283  -0.047273
     3  H    0.202870  -0.046826
     4  H    0.202884  -0.046821
     5  H    0.173333   0.016102
     6  Cl  -0.245705   0.090786
 Sum of Mulliken charges =   0.00000   1.00000

 Dipole moment (field-independent basis, Debye):
    X=              2.6230    Y=             -0.0153    Z=              0.2257  Tot=              2.6327
 Quadrupole moment (field-independent basis, Debye-Ang):
   XX=            -19.6066   YY=            -20.7152   ZZ=            -20.6158
   XY=             -0.0388   XZ=              0.5797   YZ=             -0.0069

  Exact polarizability:  35.870  -0.121  17.625   1.819  -0.016  17.841
 Approx polarizability:  51.125  -0.263  24.022   3.935  -0.049  24.725

                      1                      2                      3
                      A                      A                      A
 Frequencies --    117.3325               210.3869               252.2504
 Red. masses --      3.4875                 1.1535                 1.0276
 Frc consts  --      0.0283                 0.0301                 0.0385
 IR Inten    --     14.8945                15.4639                 5.0751

                      4                      5                      6
                      A                      A                      A
 Frequencies --    477.9022               529.6423               764.9460
 Red. masses --      1.0463                 1.0344                 1.1755
 Frc consts  --      0.1408                 0.1710                 0.4053
 IR Inten    --     92.3031                26.7735                46.4654

                      7                      8                      9
                      A                      A                      A
 Frequencies --   1404.9172              1410.8756              2329.3423
 Red. masses --      1.0986                 1.0988                 1.0413
 Frc consts  --      1.2775                 1.2886                 3.3288
 IR Inten    --      4.1971                 3.6211               450.9442

                     10                     11                     12
                      A                      A                      A
 Frequencies --   3085.7589              3256.2285              3260.5117
 Red. masses --      1.0098                 1.1171                 1.1173
 Frc consts  --      5.6651                 6.9785                 6.9983
 IR Inten    --      0.9371                 2.5414                 3.4240

 - Thermochemistry -
 -------------------
 Temperature   298.150 Kelvin.  Pressure   1.00000 Atm.
 Atom     1 has atomic number  6 and mass  12.00000

 Molecular mass:    51.00015 amu.
 Principal axes and moments of inertia in atomic units:
                           1         2         3
     Eigenvalues --    12.61607 399.88181 399.88639
           X            1.00000  -0.00026   0.00177
           Y            0.00012   0.99666   0.08167
           Z           -0.00178  -0.08167   0.99666
 This molecule is an asymmetric top.
 Rotational symmetry number  1.
 Rotational temperatures (Kelvin)      6.86536     0.21660     0.21660
 Rotational constants (GHZ):         143.05093     4.51319     4.51313
 Zero-point vibrational energy     102281.3 (Joules/Mol)
                                   24.44581 (Kcal/Mol)
 Warning -- explicit consideration of   5 degrees of freedom as
           vibrations may cause significant error
 Vibrational temperatures:    168.82   302.70   362.93   687.59   762.04
          (Kelvin)           1100.59  2021.36  2029.94  3351.40  4439.72
                             4684.99  4691.15

 Zero-point correction=                           0.038957 (Hartree/Particle)
 Thermal correction to Energy=                    0.044067
 Thermal correction to Enthalpy=                  0.045011
 Thermal correction to Gibbs Free Energy=         0.011851
 Sum of electronic and zero-point Energies=           -500.587872
 Sum of electronic and thermal Energies=              -500.582762
 Sum of electronic and thermal Enthalpies=            -500.581817
 Sum of electronic and thermal Free Energies=         -500.614977

                     E (Thermal)             CV                S
                      KCal/Mol        Cal/Mol-Kelvin    Cal/Mol-Kelvin
 Total                   27.653             14.884             69.791
 Electronic               0.000              0.000              1.377
 Translational            0.889              2.981             37.711
 Rotational               0.889              2.981             22.227
 Vibrational             25.875              8.922              8.476
 Vibration     1          0.608              1.935              3.144
 Vibration     2          0.643              1.825              2.040
 Vibration     3          0.664              1.759              1.715
 Vibration     4          0.834              1.299              0.716
 Vibration     5          0.885              1.184              0.588

                           ! Non-Optimized Parameters !
 Normal termination of Gaussian 16 at Wed Oct  7 14:13:32 2020.
