 Gaussian 16, Revision A.03,

 ----------------------------------------------------------------------
 #P Opt(TS,MaxCyc=50,NoEigenTest,MaxStep=10,AddRedundant) B97D3/6-31G*
 5D 7F Integral=UltraFineGrid SCF=(NoSymm,XQC,MaxCyc=120) IOp(1/33=1)
 ----------------------------------------------------------------------

 TstMul:  Mul=     2
 TstMul:  ICh=     0
 TstMul:  Mul=     2
 Symbolic Z-matrix:
 Charge =  0 Multiplicity = 2

 SCF Done:  E(UB97D3) =  -100.850558629     A.U. after   17 cycles
 SCF Done:  E(UB97D3) =  -100.850560353     A.U. after   12 cycles
 SCF Done:  E(UB97D3) =  -100.850537107     A.U. after   10 cycles
 SCF Done:  E(UB97D3) =  -100.850511187     A.U. after   11 cycles
 SCF Done:  E(UB97D3) =  -100.850826435     A.U. after   13 cycles
 SCF Done:  E(UB97D3) =  -100.850902258     A.U. after   12 cycles
 SCF Done:  E(UB97D3) =  -100.850654325     A.U. after   14 cycles
 SCF Done:  E(UB97D3) =  -100.850362329     A.U. after   14 cycles
 SCF Done:  E(UB97D3) =  -100.850078739     A.U. after   14 cycles
 SCF Done:  E(UB97D3) =  -100.849820458     A.U. after   13 cycles
 SCF Done:  E(UB97D3) =  -100.848835802     A.U. after   15 cycles
 SCF Done:  E(UB97D3) =  -100.848732942     A.U. after   14 cycles
 SCF Done:  E(UB97D3) =  -100.848588727     A.U. after   15 cycles
 SCF Done:  E(UB97D3) =  -100.848591560     A.U. after   14 cycles
 SCF Done:  E(UB97D3) =  -100.848499541     A.U. after   15 cycles
 SCF Done:  E(UB97D3) =  -100.848449263     A.U. after   15 cycles
 SCF Done:  E(UB97D3) =  -100.848425911     A.U. after   14 cycles
 SCF Done:  E(UB97D3) =  -100.848426471     A.U. after    9 cycles
 SCF Done:  E(UB97D3) =  -100.848426477     A.U. after    8 cycles
 Optimization completed.
    -- Stationary point found.
 Normal termination of Gaussian 16 at Wed Oct  7 14:09:07 2020.
 Gaussian 16:  ES64L-G16RevA.03 25-Dec-2016

 ----------------------------------------------------------------------
 #P Freq B97D3/6-31G* 5D 7F Integral=UltraFineGrid SCF=(NoSymm,XQC,MaxC
 yc=120) IOp(1/33=1) Geom=Check Guess=Read
 ----------------------------------------------------------------------

 TstMul:  Mul=     2
 TstMul:  ICh=     0
 TstMul:  Mul=     2
 Structure from the checkpoint file:  "MN_86_RKT10_BH76_B97DBJ_631Gs.chk"
 Charge =  0 Multiplicity = 2

                         Standard orientation:
 ---------------------------------------------------------------------
 Center     Atomic      Atomic             Coordinates (Angstroms)
 Number     Number       Type             X           Y           Z
 ---------------------------------------------------------------------
      1          1           0        0.383550   -1.458387    0.000000
      2          9           0        0.000000    0.324081    0.000000
      3          1           0       -0.383550   -1.458340   -0.000000
 ---------------------------------------------------------------------

 SCF Done:  E(UB97D3) =  -100.848426477     A.U. after    1 cycles

 The electronic state is 2-A'.
 Alpha  occ. eigenvalues --  -24.27914  -1.05710  -0.47306  -0.35310  -0.34098
 Alpha  occ. eigenvalues --   -0.33694
 Alpha virt. eigenvalues --    0.05597   0.55488   0.97671   1.11042   1.11530
 Alpha virt. eigenvalues --    1.15759   1.32583   1.74461   1.74580   1.76716
 Alpha virt. eigenvalues --    1.78914   1.78919
  Beta  occ. eigenvalues --  -24.26167  -0.98834  -0.42889  -0.30620  -0.30202
  Beta virt. eigenvalues --   -0.24563   0.06024   0.55818   0.99225   1.13025
  Beta virt. eigenvalues --    1.17629   1.18936   1.36615   1.79478   1.79697
  Beta virt. eigenvalues --    1.79702   1.81213   1.81604

 Mulliken charges and spin densities:
               1          2
     1  H    0.063987   0.076595
     2  F   -0.127982   0.846824
     3  H    0.063994   0.076581
 Sum of Mulliken charges =  -0.00000   1.00000

 Dipole moment (field-independent basis, Debye):
    X=             -0.0000    Y=             -1.0614    Z=              0.0000  Tot=              1.0614
 Quadrupole moment (field-independent basis, Debye-Ang):
   XX=             -6.1897   YY=             -4.6222   ZZ=             -6.6258
   XY=             -0.0000   XZ=             -0.0000   YZ=             -0.0000

  Exact polarizability:   7.264  -0.000  13.130  -0.000  -0.000   1.563
 Approx polarizability:  10.044  -0.001  22.284   0.000  -0.000   1.848

 ******    1 imaginary frequencies (negative Signs) ******

                      1                      2                      3
                     A'                     A'                     A'
 Frequencies --   -349.7355               445.5080              4001.5392
 Red. masses --      1.0123                 1.1084                 1.0079
 Frc consts  --      0.0730                 0.1296                 9.5088
 IR Inten    --      0.8702                30.2821               125.6805

 - Thermochemistry -
 -------------------
 Temperature   298.150 Kelvin.  Pressure   1.00000 Atm.
 Atom     1 has atomic number  1 and mass   1.00783

 Molecular mass:    21.01405 amu.
 Principal axes and moments of inertia in atomic units:
                           1         2         3
     Eigenvalues --     1.05890  20.67532  21.73422
           X           -0.00000   1.00000   0.00000
           Y            1.00000   0.00000   0.00000
           Z           -0.00000   0.00000   1.00000
 This molecule is an asymmetric top.
 Rotational symmetry number  1.
 Rotational temperatures (Kelvin)     81.79594     4.18924     3.98514
 Rotational constants (GHZ):        1704.35077    87.28966    83.03686
    1 imaginary frequencies ignored.
 Zero-point vibrational energy      26599.2 (Joules/Mol)
                                    6.35737 (Kcal/Mol)
 Warning -- explicit consideration of   1 degrees of freedom as
           vibrations may cause significant error
 Vibrational temperatures:    640.99  5757.32
          (Kelvin)

 Zero-point correction=                           0.010131 (Hartree/Particle)
 Thermal correction to Energy=                    0.013231
 Thermal correction to Enthalpy=                  0.014176
 Thermal correction to Gibbs Free Energy=        -0.010143
 Sum of electronic and zero-point Energies=           -100.838295
 Sum of electronic and thermal Energies=              -100.835195
 Sum of electronic and thermal Enthalpies=            -100.834251
 Sum of electronic and thermal Free Energies=         -100.858570

                     E (Thermal)             CV                S
                      KCal/Mol        Cal/Mol-Kelvin    Cal/Mol-Kelvin
 Total                    8.303              7.332             51.183
 Electronic               0.000              0.000              1.377
 Translational            0.889              2.981             35.068
 Rotational               0.889              2.981             13.929
 Vibrational              6.525              1.371              0.809
 Vibration     1          0.805              1.371              0.809

 Optimization completed.
    -- Stationary point found.

 1\1\GINC-NODE22\Freq\UB97D3\6-31G(d)\F1H2(2)\RPEVERATI\07-Oct-2020\0\\
 #P Freq B97D3/6-31G* 5D 7F Integral=UltraFineGrid SCF=(NoSymm,XQC,MaxC
 yc=120) IOp(1/33=1) Geom=Check Guess=Read\\TS search on BH76.\\0,2\H,0
 .4625986412,-1.4160587648,0.\F,-0.1655746923,0.2955778879,0.\H,-0.2970
 239489,-1.5228984646,0.\\Version=ES64L-G16RevA.03\State=2-A'\HF=-100.8
 484265\S2=0.75177\S2-1=0.\S2A=0.750003\RMSD=1.056e-09\RMSF=1.283e-06\Z
 eroPoint=0.0101311\Thermal=0.0132313\Dipole=0.0581824,-0.4135119,0.\Di
 poleDeriv=0.0821945,-0.231233,0.,0.0619994,-0.1392925,0.,0.,0.,0.06198

 Normal termination of Gaussian 16 at Wed Oct  7 14:09:32 2020.
