 Gaussian 16, Revision A.03,

 ----------------------------------------------------------------------
 #P Opt(TS,MaxCyc=50,NoEigenTest,MaxStep=10,AddRedundant) B97D3/6-31G*
 5D 7F Integral=UltraFineGrid SCF=(NoSymm,XQC,MaxCyc=120) IOp(1/33=1)
 ----------------------------------------------------------------------

 TstMul:  Mul=     3
 TstMul:  ICh=     0
 TstMul:  Mul=     3
 Symbolic Z-matrix:
 Charge =  0 Multiplicity = 3

 SCF Done:  E(UB97D3) =  -76.1793822387     A.U. after   12 cycles
 SCF Done:  E(UB97D3) =  -76.1803220128     A.U. after   11 cycles
 SCF Done:  E(UB97D3) =  -76.1815039645     A.U. after   11 cycles
 SCF Done:  E(UB97D3) =  -76.1800452890     A.U. after   11 cycles
 SCF Done:  E(UB97D3) =  -76.1786683589     A.U. after   11 cycles
 SCF Done:  E(UB97D3) =  -76.1774328869     A.U. after   11 cycles
 SCF Done:  E(UB97D3) =  -76.1763779462     A.U. after   11 cycles
 SCF Done:  E(UB97D3) =  -76.1755196404     A.U. after   11 cycles
 SCF Done:  E(UB97D3) =  -76.1748420008     A.U. after   11 cycles
 SCF Done:  E(UB97D3) =  -76.1743101027     A.U. after   11 cycles
 SCF Done:  E(UB97D3) =  -76.1735778234     A.U. after   11 cycles
 SCF Done:  E(UB97D3) =  -76.1733458978     A.U. after   11 cycles
 SCF Done:  E(UB97D3) =  -76.1731926127     A.U. after   11 cycles
 SCF Done:  E(UB97D3) =  -76.1731067581     A.U. after   12 cycles
 SCF Done:  E(UB97D3) =  -76.1730820796     A.U. after   12 cycles
 SCF Done:  E(UB97D3) =  -76.1730894567     A.U. after   12 cycles
 SCF Done:  E(UB97D3) =  -76.1730876240     A.U. after    8 cycles
 SCF Done:  E(UB97D3) =  -76.1730872887     A.U. after    8 cycles
 SCF Done:  E(UB97D3) =  -76.1730877714     A.U. after    8 cycles
 Optimization completed.
    -- Stationary point found.
 Normal termination of Gaussian 16 at Wed Oct  7 14:09:15 2020.
 Gaussian 16:  ES64L-G16RevA.03 25-Dec-2016

 ----------------------------------------------------------------------
 #P Freq B97D3/6-31G* 5D 7F Integral=UltraFineGrid SCF=(NoSymm,XQC,MaxC
 yc=120) IOp(1/33=1) Geom=Check Guess=Read
 ----------------------------------------------------------------------

 TstMul:  Mul=     3
 TstMul:  ICh=     0
 TstMul:  Mul=     3
 Structure from the checkpoint file:  "MN_89_RKT14_BH76_B97DBJ_631Gs.chk"
 Charge =  0 Multiplicity = 3

                         Standard orientation:
 ---------------------------------------------------------------------
 Center     Atomic      Atomic             Coordinates (Angstroms)
 Number     Number       Type             X           Y           Z
 ---------------------------------------------------------------------
      1          1           0        0.000000    0.000000   -0.657351
      2          8           0        0.000000    0.000000    0.354528
      3          1           0        0.000000    0.000000   -2.178873
 ---------------------------------------------------------------------

 SCF Done:  E(UB97D3) =  -76.1730877714     A.U. after    1 cycles

 Unable to determine electronic state:  partially filled degenerate orbitals.
 Alpha  occ. eigenvalues --  -18.82676  -0.91966  -0.43099  -0.34526  -0.29608
 Alpha  occ. eigenvalues --   -0.27432
 Alpha virt. eigenvalues --    0.11335   0.68006   0.73764   0.78043   0.81555
 Alpha virt. eigenvalues --    0.87671   1.27309   1.61025   1.66100   1.67270
 Alpha virt. eigenvalues --    1.67423   2.26843
  Beta  occ. eigenvalues --  -18.81057  -0.84564  -0.38701  -0.23673
  Beta virt. eigenvalues --   -0.20522  -0.18689   0.12733   0.71395   0.83575
  Beta virt. eigenvalues --    0.84986   0.86019   0.91032   1.31461   1.68216
  Beta virt. eigenvalues --    1.69136   1.74365   1.75612   2.30386

 Mulliken charges and spin densities:
               1          2
     1  H    0.370508  -0.037355
     2  O   -0.382984   1.150248
     3  H    0.012476   0.887108
 Sum of Mulliken charges =   0.00000   2.00000

 Dipole moment (field-independent basis, Debye):
    X=              0.0000    Y=             -0.0000    Z=             -1.6547  Tot=              1.6547
 Quadrupole moment (field-independent basis, Debye-Ang):
   XX=             -7.7200   YY=             -6.5685   ZZ=             -6.2159
   XY=             -0.0000   XZ=              0.0000   YZ=              0.0000

  Exact polarizability:   2.417  -0.000   2.726  -0.000   0.000  17.854
 Approx polarizability:   2.765  -0.000   3.723   0.000  -0.000  25.319

 ******    2 imaginary frequencies (negative Signs) ******

                      1                      2                      3
                     SG                     PI                     PI
 Frequencies --   -471.5176              -404.9022               495.6631
 Red. masses --      1.0474                 1.0263                 1.0263
 Frc consts  --      0.1372                 0.0991                 0.1486
 IR Inten    --     55.7659                93.6071                79.3896

                      4
                     SG
 Frequencies --   2929.5821
 Red. masses --      1.0803
 Frc consts  --      5.4626
 IR Inten    --     25.2930

 - Thermochemistry -
 -------------------
 Temperature   298.150 Kelvin.  Pressure   1.00000 Atm.
 Atom     1 has atomic number  1 and mass   1.00783

 Molecular mass:    18.01056 amu.
 Principal axes and moments of inertia in atomic units:
                           1         2         3
     Eigenvalues --     0.00000  24.25260  24.25260
           X            0.00000   0.00000   1.00000
           Y            0.00000   1.00000   0.00000
           Z            1.00000   0.00000   0.00000
 This molecule is a prolate symmetric top.
 Rotational symmetry number  1.
 Rotational temperature (Kelvin)      3.57133
 Rotational constant (GHZ):          74.414349
    2 imaginary frequencies ignored.
 Zero-point vibrational energy      20487.5 (Joules/Mol)
                                    4.89663 (Kcal/Mol)
 Warning -- explicit consideration of   1 degrees of freedom as
           vibrations may cause significant error
 Vibrational temperatures:    713.15  4215.02
          (Kelvin)

 Zero-point correction=                           0.007803 (Hartree/Particle)
 Thermal correction to Energy=                    0.010391
 Thermal correction to Enthalpy=                  0.011335
 Thermal correction to Gibbs Free Energy=        -0.011585
 Sum of electronic and zero-point Energies=            -76.165284
 Sum of electronic and thermal Energies=               -76.162697
 Sum of electronic and thermal Enthalpies=             -76.161752
 Sum of electronic and thermal Free Energies=          -76.184673

                     E (Thermal)             CV                S
                      KCal/Mol        Cal/Mol-Kelvin    Cal/Mol-Kelvin
 Total                    6.521              6.228             48.240
 Electronic               0.000              0.000              2.183
 Translational            0.889              2.981             34.608
 Rotational               0.592              1.987             10.780
 Vibrational              5.039              1.260              0.669
 Vibration     1          0.851              1.260              0.669

                           ! Non-Optimized Parameters !

 1\1\GINC-NODE62\Freq\UB97D3\6-31G(d)\H2O1(3)\RPEVERATI\07-Oct-2020\0\\
 #P Freq B97D3/6-31G* 5D 7F Integral=UltraFineGrid SCF=(NoSymm,XQC,MaxC
 yc=120) IOp(1/33=1) Geom=Check Guess=Read\\TS search on BH76.\\0,3\H,0
 .,0.,-0.5978433585\O,0.,0.,0.4140357759\H,0.,0.,-2.1193647885\\Version
 =ES64L-G16RevA.03\HF=-76.1730878\S2=2.006486\S2-1=0.\S2A=2.000014\RMSD
 =1.033e-09\RMSF=3.966e-05\ZeroPoint=0.0078033\Thermal=0.0103911\Dipole
 =0.,0.,-0.6510082\DipoleDeriv=0.3276779,0.,0.,0.,0.3050556,0.,0.,0.,-0
 .1945439,-0.3327552,0.,0.,0.,-0.319165,0.,0.,0.,-0.0197603,0.0050772,0

 Normal termination of Gaussian 16 at Wed Oct  7 14:09:42 2020.
