 Gaussian 16, Revision A.03,

 ----------------------------------------------------------------------
 #P Opt(TS,MaxCyc=50,NoEigenTest,MaxStep=10,AddRedundant) B97D3/6-31G*
 5D 7F Integral=UltraFineGrid SCF=(NoSymm,XQC,MaxCyc=120) IOp(1/33=1)
 ----------------------------------------------------------------------

 TstMul:  Mul=     3
 TstMul:  ICh=     0
 TstMul:  Mul=     3
 Symbolic Z-matrix:
 Charge =  0 Multiplicity = 3

 SCF Done:  E(UB97D3) =  -115.495631753     A.U. after   13 cycles
 SCF Done:  E(UB97D3) =  -115.496279119     A.U. after   12 cycles
 SCF Done:  E(UB97D3) =  -115.496759389     A.U. after   12 cycles
 SCF Done:  E(UB97D3) =  -115.495990859     A.U. after   12 cycles
 SCF Done:  E(UB97D3) =  -115.495318872     A.U. after   12 cycles
 SCF Done:  E(UB97D3) =  -115.494981072     A.U. after   12 cycles
 SCF Done:  E(UB97D3) =  -115.494963140     A.U. after   11 cycles
 SCF Done:  E(UB97D3) =  -115.494965647     A.U. after    8 cycles
 Optimization completed.
    -- Stationary point found.
 Normal termination of Gaussian 16 at Wed Oct  7 14:06:17 2020.
 Gaussian 16:  ES64L-G16RevA.03 25-Dec-2016

 ----------------------------------------------------------------------
 #P Freq B97D3/6-31G* 5D 7F Integral=UltraFineGrid SCF=(NoSymm,XQC,MaxC
 yc=120) IOp(1/33=1) Geom=Check Guess=Read
 ----------------------------------------------------------------------

 TstMul:  Mul=     3
 TstMul:  ICh=     0
 TstMul:  Mul=     3
 Structure from the checkpoint file:  "MN_87_RKT11_BH76_B97DBJ_631Gs.chk"
 Charge =  0 Multiplicity = 3

                         Standard orientation:
 ---------------------------------------------------------------------
 Center     Atomic      Atomic             Coordinates (Angstroms)
 Number     Number       Type             X           Y           Z
 ---------------------------------------------------------------------
      1          6           0        0.000590   -1.178285    0.000000
      2          1           0       -1.071299   -1.393543    0.000000
      3          1           0        0.525437   -1.429412    0.924633
      4          1           0        0.525437   -1.429412   -0.924633
      5          1           0        0.012163    0.246250   -0.000000
      6          8           0        0.000590    1.384478   -0.000000
 ---------------------------------------------------------------------

 SCF Done:  E(UB97D3) =  -115.494965647     A.U. after    1 cycles

 The electronic state is 3-A'.
 Alpha  occ. eigenvalues --  -18.81308  -9.93547  -0.88556  -0.65223  -0.41650
 Alpha  occ. eigenvalues --   -0.39016  -0.38995  -0.32892  -0.25897  -0.22935
 Alpha virt. eigenvalues --    0.07824   0.13016   0.13121   0.20993   0.47440
 Alpha virt. eigenvalues --    0.47763   0.50132   0.66420   0.81352   0.82081
 Alpha virt. eigenvalues --    0.82407   0.82430   0.85055   0.90195   1.09156

  Beta  occ. eigenvalues --  -18.79295  -9.93221  -0.79335  -0.62110  -0.37875
  Beta  occ. eigenvalues --   -0.37853  -0.36072  -0.21329
  Beta virt. eigenvalues --   -0.18075  -0.14592   0.08794   0.13855   0.13948
  Beta virt. eigenvalues --    0.23717   0.48258   0.48361   0.53967   0.66922
  Beta virt. eigenvalues --    0.83306   0.83419   0.83859   0.87534   0.88938

 Mulliken charges and spin densities:
               1          2
     1  C   -0.629774   0.748429
     2  H    0.198124  -0.026890
     3  H    0.198592  -0.028108
     4  H    0.198592  -0.028108
     5  H    0.399870  -0.056451
     6  O   -0.365403   1.391129
 Sum of Mulliken charges =   0.00000   2.00000

 Dipole moment (field-independent basis, Debye):
    X=             -0.0006    Y=             -2.1646    Z=             -0.0000  Tot=              2.1646
 Quadrupole moment (field-independent basis, Debye-Ang):
   XX=            -12.2896   YY=            -15.2959   ZZ=            -13.4263
   XY=             -0.0015   XZ=             -0.0000   YZ=             -0.0000

  Exact polarizability:  14.509  -0.078  30.723  -0.000  -0.000  14.259
 Approx polarizability:  19.792  -0.120  50.730  -0.000  -0.000  18.892

 ******    1 imaginary frequencies (negative Signs) ******

                      1                      2                      3
                     A'                     A"                     A'
 Frequencies --   -996.1062               265.7034               396.7651
 Red. masses --      1.2257                 1.0542                 1.0710
 Frc consts  --      0.7166                 0.0438                 0.0993
 IR Inten    --    129.4176                10.8171                 3.4180

                      4                      5                      6
                     A'                     A"                     A'
 Frequencies --    609.4690               851.5427              1089.6609
 Red. masses --      2.7915                 1.0674                 1.0585
 Frc consts  --      0.6109                 0.4560                 0.7405
 IR Inten    --      0.0018                42.3960                48.5814

                      7                      8                      9
                     A'                     A'                     A"
 Frequencies --   1200.0594              1423.4758              1426.7081
 Red. masses --      1.2808                 1.0820                 1.0854
 Frc consts  --      1.0867                 1.2917                 1.3016
 IR Inten    --     13.4925                 3.8396                 4.1592

                     10                     11                     12
                     A'                     A'                     A"
 Frequencies --   3043.8519              3189.1796              3197.4491
 Red. masses --      1.0165                 1.1117                 1.1128
 Frc consts  --      5.5486                 6.6620                 6.7028
 IR Inten    --      0.0247                 8.0097                 7.5748

 - Thermochemistry -
 -------------------
 Temperature   298.150 Kelvin.  Pressure   1.00000 Atm.
 Atom     1 has atomic number  6 and mass  12.00000

 Molecular mass:    32.02621 amu.
 Principal axes and moments of inertia in atomic units:
                           1         2         3
     Eigenvalues --    12.27225 195.25660 195.29219
           X           -0.00005   0.00000   1.00000
           Y            1.00000   0.00000   0.00005
           Z           -0.00000   1.00000   0.00000
 This molecule is an asymmetric top.
 Rotational symmetry number  1.
 Rotational temperatures (Kelvin)      7.05771     0.44359     0.44351
 Rotational constants (GHZ):         147.05874     9.24292     9.24124
    1 imaginary frequencies ignored.
 Zero-point vibrational energy      99851.5 (Joules/Mol)
                                   23.86508 (Kcal/Mol)
 Warning -- explicit consideration of   3 degrees of freedom as
           vibrations may cause significant error
 Vibrational temperatures:    382.29   570.86   876.89  1225.18  1567.78
          (Kelvin)           1726.62  2048.06  2052.71  4379.42  4588.52
                             4600.42

 Zero-point correction=                           0.038031 (Hartree/Particle)
 Thermal correction to Energy=                    0.041917
 Thermal correction to Enthalpy=                  0.042861
 Thermal correction to Gibbs Free Energy=         0.013107
 Sum of electronic and zero-point Energies=           -115.456934
 Sum of electronic and thermal Energies=              -115.453049
 Sum of electronic and thermal Enthalpies=            -115.452104
 Sum of electronic and thermal Free Energies=         -115.481859

                     E (Thermal)             CV                S
                      KCal/Mol        Cal/Mol-Kelvin    Cal/Mol-Kelvin
 Total                   26.303             11.444             62.623
 Electronic               0.000              0.000              2.183
 Translational            0.889              2.981             36.324
 Rotational               0.889              2.981             20.776
 Vibrational             24.526              5.483              3.340
 Vibration     1          0.672              1.736              1.624
 Vibration     2          0.763              1.477              0.975
 Vibration     3          0.968              1.012              0.434

 Optimization completed.
    -- Stationary point found.
 Normal termination of Gaussian 16 at Wed Oct  7 14:06:40 2020.
