 Gaussian 16, Revision A.03,

 ----------------------------------------------------------------------
 #P Opt(TS,MaxCyc=50,NoEigenTest,MaxStep=10,AddRedundant) B97D3/6-31G*
 5D 7F Integral=UltraFineGrid SCF=(NoSymm,XQC,MaxCyc=120) IOp(1/33=1)
 ----------------------------------------------------------------------

 TstMul:  Mul=     2
 TstMul:  ICh=     0
 TstMul:  Mul=     2
 Symbolic Z-matrix:
 Charge =  0 Multiplicity = 2

 SCF Done:  E(UB97D3) =  -40.9790774313     A.U. after   12 cycles
 SCF Done:  E(UB97D3) =  -40.9795237129     A.U. after   11 cycles
 SCF Done:  E(UB97D3) =  -40.9798813464     A.U. after   11 cycles
 SCF Done:  E(UB97D3) =  -40.9794026521     A.U. after   12 cycles
 SCF Done:  E(UB97D3) =  -40.9790956252     A.U. after   11 cycles
 SCF Done:  E(UB97D3) =  -40.9790389575     A.U. after   11 cycles
 SCF Done:  E(UB97D3) =  -40.9790443564     A.U. after    8 cycles
 SCF Done:  E(UB97D3) =  -40.9790452006     A.U. after    8 cycles
 SCF Done:  E(UB97D3) =  -40.9790453485     A.U. after    8 cycles
 Optimization completed.
    -- Stationary point found.
 Normal termination of Gaussian 16 at Wed Oct  7 14:06:57 2020.
 Gaussian 16:  ES64L-G16RevA.03 25-Dec-2016

 ----------------------------------------------------------------------
 #P Freq B97D3/6-31G* 5D 7F Integral=UltraFineGrid SCF=(NoSymm,XQC,MaxC
 yc=120) IOp(1/33=1) Geom=Check Guess=Read
 ----------------------------------------------------------------------

 TstMul:  Mul=     2
 TstMul:  ICh=     0
 TstMul:  Mul=     2
 Structure from the checkpoint file:  "MN_80_RKT03_BH76_B97DBJ_631Gs.chk"
 Charge =  0 Multiplicity = 2

                         Standard orientation:
 ---------------------------------------------------------------------
 Center     Atomic      Atomic             Coordinates (Angstroms)
 Number     Number       Type             X           Y           Z
 ---------------------------------------------------------------------
      1          6           0       -0.000000    0.253543   -0.000000
      2          1           0        1.058309    0.530698   -0.000000
      3          1           0       -0.529152    0.530455    0.916590
      4          1           0       -0.529152    0.530455   -0.916590
      5          1           0        0.000083   -1.072292    0.000000
      6          1           0       -0.000088   -2.040576    0.000000
 ---------------------------------------------------------------------

 SCF Done:  E(UB97D3) =  -40.9790453485     A.U. after    1 cycles

 The electronic state is 2-A'.
 Alpha  occ. eigenvalues --   -9.91360  -0.63910  -0.39674  -0.36816  -0.36814
 Alpha  occ. eigenvalues --   -0.17629
 Alpha virt. eigenvalues --    0.09497   0.14288   0.14289   0.18744   0.49515
 Alpha virt. eigenvalues --    0.49517   0.52398   0.68876   0.83754   0.83756
 Alpha virt. eigenvalues --    0.86516   0.91682   1.16165   1.56016   1.56018

  Beta  occ. eigenvalues --   -9.91059  -0.61538  -0.36566  -0.35880  -0.35878
  Beta virt. eigenvalues --   -0.11711   0.10255   0.14995   0.14997   0.18570
  Beta virt. eigenvalues --    0.49934   0.49936   0.55675   0.70171   0.84708
  Beta virt. eigenvalues --    0.84711   0.87767   0.91566   1.18192   1.60165

 Mulliken charges and spin densities:
               1          2
     1  C   -0.557513   0.588658
     2  H    0.182242  -0.020789
     3  H    0.182251  -0.020788
     4  H    0.182251  -0.020788
     5  H    0.054387  -0.061718
     6  H   -0.043618   0.535426
 Sum of Mulliken charges =   0.00000   1.00000

 Dipole moment (field-independent basis, Debye):
    X=              0.0000    Y=              0.8606    Z=              0.0000  Tot=              0.8606
 Quadrupole moment (field-independent basis, Debye-Ang):
   XX=             -9.2385   YY=            -11.4663   ZZ=             -9.2381
   XY=              0.0002   XZ=              0.0000   YZ=              0.0000

  Exact polarizability:  12.486   0.003  29.447   0.000   0.000  12.487
 Approx polarizability:  16.617   0.004  44.058  -0.000  -0.000  16.618

 ******    1 imaginary frequencies (negative Signs) ******

                      1                      2                      3
                     A'                     A'                     A"
 Frequencies --  -1130.2696               562.0363               562.2025
 Red. masses --      1.1171                 1.0448                 1.0448
 Frc consts  --      0.8409                 0.1945                 0.1946
 IR Inten    --      3.5367                 0.0733                 0.0732

                      4                      5                      6
                     A'                     A'                     A"
 Frequencies --   1147.2758              1243.9173              1243.9589
 Red. masses --      1.0581                 1.0704                 1.0704
 Frc consts  --      0.8205                 0.9758                 0.9759
 IR Inten    --      2.6112                 5.4158                 5.4169

                      7                      8                      9
                     A'                     A"                     A'
 Frequencies --   1442.5293              1442.5730              1507.0721
 Red. masses --      1.0607                 1.0607                 1.1375
 Frc consts  --      1.3004                 1.3005                 1.5222
 IR Inten    --      2.9384                 2.9376                10.4825

                     10                     11                     12
                     A'                     A'                     A"
 Frequencies --   3037.0321              3173.6861              3173.9123
 Red. masses --      1.0196                 1.1102                 1.1102
 Frc consts  --      5.5410                 6.5883                 6.5893
 IR Inten    --      1.7250                16.8714                16.8647

 - Thermochemistry -
 -------------------
 Temperature   298.150 Kelvin.  Pressure   1.00000 Atm.
 Atom     1 has atomic number  6 and mass  12.00000

 Molecular mass:    17.03913 amu.
 Principal axes and moments of inertia in atomic units:
                           1         2         3
     Eigenvalues --    12.09373  30.48700  30.48790
           X            0.00007   0.00000   1.00000
           Y            1.00000   0.00000  -0.00007
           Z            0.00000   1.00000   0.00000
 This molecule is an asymmetric top.
 Rotational symmetry number  1.
 Rotational temperatures (Kelvin)      7.16188     2.84101     2.84093
 Rotational constants (GHZ):         149.22944    59.19707    59.19533
    1 imaginary frequencies ignored.
 Zero-point vibrational energy     110871.1 (Joules/Mol)
                                   26.49882 (Kcal/Mol)
 Warning -- explicit consideration of   2 degrees of freedom as
           vibrations may cause significant error
 Vibrational temperatures:    808.64   808.88  1650.67  1789.72  1789.78
          (Kelvin)           2075.48  2075.54  2168.34  4369.61  4566.23
                             4566.55

 Zero-point correction=                           0.042229 (Hartree/Particle)
 Thermal correction to Energy=                    0.045491
 Thermal correction to Enthalpy=                  0.046435
 Thermal correction to Gibbs Free Energy=         0.020735
 Sum of electronic and zero-point Energies=            -40.936817
 Sum of electronic and thermal Energies=               -40.933554
 Sum of electronic and thermal Enthalpies=             -40.932610
 Sum of electronic and thermal Free Energies=          -40.958311

                     E (Thermal)             CV                S
                      KCal/Mol        Cal/Mol-Kelvin    Cal/Mol-Kelvin
 Total                   28.546              9.042             54.092
 Electronic               0.000              0.000              1.377
 Translational            0.889              2.981             34.443
 Rotational               0.889              2.981             17.071
 Vibrational             26.769              3.081              1.201
 Vibration     1          0.918              1.113              0.520
 Vibration     2          0.918              1.113              0.519

 Optimization completed.
    -- Stationary point found.

 1\1\GINC-NODE52\Freq\UB97D3\6-31G(d)\C1H5(2)\RPEVERATI\07-Oct-2020\0\\
 #P Freq B97D3/6-31G* 5D 7F Integral=UltraFineGrid SCF=(NoSymm,XQC,MaxC
 yc=120) IOp(1/33=1) Geom=Check Guess=Read\\TS search on BH76.\\0,2\C,0
 .0004374675,0.24656921,0.\H,1.0590143283,0.5227000902,0.\H,-0.52844683
 91,0.5239920731,0.9165896288\H,-0.5284468391,0.5239920731,-0.916589628
 8\H,-0.0007618564,-1.0792654979,0.\H,-0.0018687106,-2.0475486257,0.\\V
 ersion=ES64L-G16RevA.03\State=2-A'\HF=-40.9790453\S2=0.754332\S2-1=0.\
 S2A=0.750011\RMSD=1.618e-09\RMSF=7.187e-06\ZeroPoint=0.0422286\Thermal

 Normal termination of Gaussian 16 at Wed Oct  7 14:07:34 2020.
