 Gaussian 16, Revision A.03,

 ----------------------------------------------------------------------
 #P Opt(TS,MaxCyc=50,NoEigenTest,MaxStep=10,AddRedundant) B97D3/6-31G*
 5D 7F Integral=UltraFineGrid SCF=(NoSymm,XQC,MaxCyc=120) IOp(1/33=1)
 ----------------------------------------------------------------------

 TstMul:  Mul=     2
 TstMul:  ICh=     0
 TstMul:  Mul=     2
 Symbolic Z-matrix:
 Charge =  0 Multiplicity = 2

 SCF Done:  E(UB97D3) =  -1.66971623321     A.U. after    9 cycles
 SCF Done:  E(UB97D3) =  -1.66982341615     A.U. after    9 cycles
 SCF Done:  E(UB97D3) =  -1.66982686319     A.U. after    6 cycles
 Optimization completed.
    -- Stationary point found.
 Normal termination of Gaussian 16 at Wed Oct  7 14:04:51 2020.
 Gaussian 16:  ES64L-G16RevA.03 25-Dec-2016

 ----------------------------------------------------------------------
 #P Freq B97D3/6-31G* 5D 7F Integral=UltraFineGrid SCF=(NoSymm,XQC,MaxC
 yc=120) IOp(1/33=1) Geom=Check Guess=Read
 ----------------------------------------------------------------------

 TstMul:  Mul=     2
 TstMul:  ICh=     0
 TstMul:  Mul=     2
 Structure from the checkpoint file:  "MN_82_RKT06_BH76_B97DBJ_631Gs.chk"
 Charge =  0 Multiplicity = 2

                         Standard orientation:
 ---------------------------------------------------------------------
 Center     Atomic      Atomic             Coordinates (Angstroms)
 Number     Number       Type             X           Y           Z
 ---------------------------------------------------------------------
      1          1           0        0.000000    0.000000    0.000000
      2          1           0        0.000000    0.000000    0.942588
      3          1           0        0.000000    0.000000   -0.942588
 ---------------------------------------------------------------------

 SCF Done:  E(UB97D3) =  -1.66982686319     A.U. after    1 cycles

 The electronic state is 2-SGU.
 Alpha  occ. eigenvalues --   -0.45398  -0.21054
 Alpha virt. eigenvalues --    0.13231   0.64677   0.73350   0.96012
  Beta  occ. eigenvalues --   -0.41949
  Beta virt. eigenvalues --   -0.15382   0.11889   0.66462   0.74610   0.96939

 Mulliken charges and spin densities:
               1          2
     1  H   -0.048529  -0.059215
     2  H    0.024265   0.529608
     3  H    0.024265   0.529608
 Sum of Mulliken charges =  -0.00000   1.00000

 Dipole moment (field-independent basis, Debye):
    X=              0.0000    Y=              0.0000    Z=             -0.0000  Tot=              0.0000
 Quadrupole moment (field-independent basis, Debye-Ang):
   XX=             -3.2799   YY=             -3.2799   ZZ=             -3.3517
   XY=              0.0000   XZ=              0.0000   YZ=              0.0000

  Exact polarizability:   0.000   0.000   0.000  -0.000   0.000  19.470
 Approx polarizability:   0.000  -0.000  -0.000  -0.000  -0.000  30.765

                      1                      2                      3
                     SGU                    PIU                    PIU
 Frequencies --    790.0454              1056.7173              1056.7173
 Red. masses --      1.0078                 1.0078                 1.0078
 Frc consts  --      0.3706                 0.6631                 0.6631
 IR Inten    --    169.8285                 1.8695                 1.8695

                      4
                     SGG
 Frequencies --   2134.3216
 Red. masses --      1.0078
 Frc consts  --      2.7049
 IR Inten    --      0.0000

 - Thermochemistry -
 -------------------
 Temperature   298.150 Kelvin.  Pressure   1.00000 Atm.
 Atom     1 has atomic number  1 and mass   1.00783

 Molecular mass:     3.02348 amu.
 Principal axes and moments of inertia in atomic units:
                           1         2         3
     Eigenvalues --     0.00000   6.39524   6.39524
           X           -0.00000   1.00000   0.00000
           Y            0.00000   0.00000   1.00000
           Z            1.00000   0.00000   0.00000
 This molecule is a prolate symmetric top.
 Rotational symmetry number  2.
 Rotational temperature (Kelvin)     13.54349
 Rotational constant (GHZ):         282.200588
 Zero-point vibrational energy      30132.7 (Joules/Mol)
                                    7.20190 (Kcal/Mol)
 Vibrational temperatures:   1136.70  1520.38  1520.38  3070.81
          (Kelvin)

 Zero-point correction=                           0.011477 (Hartree/Particle)
 Thermal correction to Energy=                    0.013978
 Thermal correction to Enthalpy=                  0.014922
 Thermal correction to Gibbs Free Energy=        -0.003030
 Sum of electronic and zero-point Energies=             -1.658350
 Sum of electronic and thermal Energies=                -1.655849
 Sum of electronic and thermal Enthalpies=              -1.654905
 Sum of electronic and thermal Free Energies=           -1.672857

                     E (Thermal)             CV                S
                      KCal/Mol        Cal/Mol-Kelvin    Cal/Mol-Kelvin
 Total                    8.771              6.281             37.785
 Electronic               0.000              0.000              1.377
 Translational            0.889              2.981             29.289
 Rotational               0.592              1.987              6.754
 Vibrational              7.290              1.313              0.365

 Optimization completed.
    -- Stationary point found.
 Normal termination of Gaussian 16 at Wed Oct  7 14:05:15 2020.
