 Gaussian 16, Revision A.03,

 ----------------------------------------------------------------------
 #P Opt(TS,MaxCyc=50,NoEigenTest,MaxStep=10,AddRedundant) B97D3/6-31G*
 5D 7F Integral=UltraFineGrid SCF=(NoSymm,XQC,MaxCyc=120) IOp(1/33=1)
 ----------------------------------------------------------------------

 TstMul:  Mul=     2
 TstMul:  ICh=     0
 TstMul:  Mul=     2
 Symbolic Z-matrix:
 Charge =  0 Multiplicity = 2

 SCF Done:  E(UB97D3) =  -343.627002471     A.U. after   14 cycles
 SCF Done:  E(UB97D3) =  -343.628052496     A.U. after   13 cycles
 SCF Done:  E(UB97D3) =  -343.627861295     A.U. after   12 cycles
 SCF Done:  E(UB97D3) =  -343.627079034     A.U. after   13 cycles
 SCF Done:  E(UB97D3) =  -343.626216084     A.U. after   13 cycles
 SCF Done:  E(UB97D3) =  -343.625345179     A.U. after   13 cycles
 SCF Done:  E(UB97D3) =  -343.624528788     A.U. after   13 cycles
 SCF Done:  E(UB97D3) =  -343.623803836     A.U. after   13 cycles
 SCF Done:  E(UB97D3) =  -343.623184906     A.U. after   13 cycles
 SCF Done:  E(UB97D3) =  -343.622670730     A.U. after   13 cycles
 SCF Done:  E(UB97D3) =  -343.621183537     A.U. after   13 cycles
 SCF Done:  E(UB97D3) =  -343.621190570     A.U. after   15 cycles
 SCF Done:  E(UB97D3) =  -343.621198934     A.U. after   10 cycles
 SCF Done:  E(UB97D3) =  -343.621249511     A.U. after   14 cycles
 SCF Done:  E(UB97D3) =  -343.621282138     A.U. after   14 cycles
 SCF Done:  E(UB97D3) =  -343.621292524     A.U. after   13 cycles
 SCF Done:  E(UB97D3) =  -343.621292615     A.U. after   10 cycles
 SCF Done:  E(UB97D3) =  -343.621284923     A.U. after   14 cycles
 SCF Done:  E(UB97D3) =  -343.621292638     A.U. after   14 cycles
 Optimization completed.
    -- Stationary point found.
 Normal termination of Gaussian 16 at Wed Oct  7 14:10:51 2020.
 Gaussian 16:  ES64L-G16RevA.03 25-Dec-2016

 ----------------------------------------------------------------------
 #P Freq B97D3/6-31G* 5D 7F Integral=UltraFineGrid SCF=(NoSymm,XQC,MaxC
 yc=120) IOp(1/33=1) Geom=Check Guess=Read
 ----------------------------------------------------------------------

 TstMul:  Mul=     2
 TstMul:  ICh=     0
 TstMul:  Mul=     2
 Structure from the checkpoint file:  "MN_88_RKT12_BH76_B97DBJ_631Gs.chk"
 Charge =  0 Multiplicity = 2

                         Standard orientation:
 ---------------------------------------------------------------------
 Center     Atomic      Atomic             Coordinates (Angstroms)
 Number     Number       Type             X           Y           Z
 ---------------------------------------------------------------------
      1         15           0        0.259388   -0.000001   -0.097401
      2          1           0        0.122358    1.039628    0.876586
      3          1           0        0.127642   -1.035293    0.881921
      4          1           0       -1.148935   -0.004339   -0.396592
      5          1           0       -2.991887    0.000014    0.099106
 ---------------------------------------------------------------------

 SCF Done:  E(UB97D3) =  -343.621292638     A.U. after    1 cycles

 The electronic state is 2-A.
 Alpha  occ. eigenvalues --  -76.29726  -6.35612  -4.58162  -4.58154  -4.57689
 Alpha  occ. eigenvalues --   -0.58933  -0.35444  -0.34765  -0.26883  -0.23382
 Alpha virt. eigenvalues --    0.00482   0.00880   0.09185   0.25765   0.26324
 Alpha virt. eigenvalues --    0.28574   0.36022   0.60836   0.61039   0.62754
 Alpha virt. eigenvalues --    0.63984   0.66334   0.75411   0.89336   1.07470

  Beta  occ. eigenvalues --  -76.29688  -6.35597  -4.58131  -4.58113  -4.57641
  Beta  occ. eigenvalues --   -0.58636  -0.34854  -0.34686  -0.24425
  Beta virt. eigenvalues --   -0.12456   0.00529   0.01243   0.09472   0.25763
  Beta virt. eigenvalues --    0.26393   0.29112   0.36082   0.61313   0.61462
  Beta virt. eigenvalues --    0.63285   0.64019   0.67192   0.89018   0.97830

 Mulliken charges and spin densities:
               1          2
     1  P   -0.096620   0.073401
     2  H    0.041406  -0.001656
     3  H    0.041388  -0.001672
     4  H    0.030193  -0.013616
     5  H   -0.016367   0.943543
 Sum of Mulliken charges =  -0.00000   1.00000

 Dipole moment (field-independent basis, Debye):
    X=             -0.4346    Y=              0.0001    Z=              0.6807  Tot=              0.8076
 Quadrupole moment (field-independent basis, Debye-Ang):
   XX=            -17.8517   YY=            -15.7919   ZZ=            -16.9478
   XY=             -0.0003   XZ=              1.2421   YZ=             -0.0000

  Exact polarizability:  48.016  -0.006  21.837  -1.016   0.002  20.707
 Approx polarizability:  59.255  -0.008  37.444   1.246   0.003  33.701

 ******    1 imaginary frequencies (negative Signs) ******

                      1                      2                      3
                      A                      A                      A
 Frequencies --   -473.3186               114.3573               151.1018
 Red. masses --      1.0375                 1.0129                 1.0092
 Frc consts  --      0.1370                 0.0078                 0.0136
 IR Inten    --    215.6534                 5.3330                 5.4556

                      4                      5                      6
                      A                      A                      A
 Frequencies --   1017.1634              1134.3185              1141.2535
 Red. masses --      1.0764                 1.0252                 1.0259
 Frc consts  --      0.6561                 0.7772                 0.7873
 IR Inten    --      8.7334                11.0127                 8.9016

                      7                      8                      9
                      A                      A                      A
 Frequencies --   2200.6944              2356.0362              2367.8925
 Red. masses --      1.0412                 1.0352                 1.0406
 Frc consts  --      2.9710                 3.3857                 3.4377
 IR Inten    --    360.8366                80.6000               118.3353

 - Thermochemistry -
 -------------------
 Temperature   298.150 Kelvin.  Pressure   1.00000 Atm.
 Atom     1 has atomic number 15 and mass  30.97376

 Molecular mass:    35.00506 amu.
 Principal axes and moments of inertia in atomic units:
                           1         2         3
     Eigenvalues --    14.70259  49.76799  50.56039
           X            0.99976   0.00000   0.02183
           Y           -0.00000   1.00000  -0.00000
           Z           -0.02183   0.00000   0.99976
 This molecule is an asymmetric top.
 Rotational symmetry number  1.
 Rotational temperatures (Kelvin)      5.89107     1.74035     1.71308
 Rotational constants (GHZ):         122.74988    36.26309    35.69476
    1 imaginary frequencies ignored.
 Zero-point vibrational energy      62701.2 (Joules/Mol)
                                   14.98594 (Kcal/Mol)
 Warning -- explicit consideration of   2 degrees of freedom as
           vibrations may cause significant error
 Vibrational temperatures:    164.53   217.40  1463.47  1632.03  1642.01
          (Kelvin)           3166.31  3389.81  3406.87

 Zero-point correction=                           0.023882 (Hartree/Particle)
 Thermal correction to Energy=                    0.028141
 Thermal correction to Enthalpy=                  0.029085
 Thermal correction to Gibbs Free Energy=        -0.000500
 Sum of electronic and zero-point Energies=           -343.597411
 Sum of electronic and thermal Energies=              -343.593152
 Sum of electronic and thermal Enthalpies=            -343.592207
 Sum of electronic and thermal Free Energies=         -343.621793

                     E (Thermal)             CV                S
                      KCal/Mol        Cal/Mol-Kelvin    Cal/Mol-Kelvin
 Total                   17.659             10.669             62.268
 Electronic               0.000              0.000              1.377
 Translational            0.889              2.981             36.589
 Rotational               0.889              2.981             18.254
 Vibrational             15.881              4.707              6.047
 Vibration     1          0.607              1.938              3.194
 Vibration     2          0.619              1.901              2.658

                           ! Non-Optimized Parameters !

 1\1\GINC-NODE51\Freq\UB97D3\6-31G(d)\H4P1(2)\RPEVERATI\07-Oct-2020\0\\
 #P Freq B97D3/6-31G* 5D 7F Integral=UltraFineGrid SCF=(NoSymm,XQC,MaxC
 yc=120) IOp(1/33=1) Geom=Check Guess=Read\\TS search on BH76.\\0,2\P,0
 .3549953379,0.0199623468,-0.1118656113\H,0.2566524494,1.0434475607,0.8
 836556838\H,0.2920316841,-1.0310201025,0.8575313362\H,-1.0674060574,-0
 .0014849474,-0.3337258977\H,-2.8802780049,-0.0321300096,0.2618926145\\
 Version=ES64L-G16RevA.03\State=2-A\HF=-343.6212926\S2=0.751812\S2-1=0.
 \S2A=0.75\RMSD=1.567e-09\RMSF=8.835e-06\ZeroPoint=0.0238816\Thermal=0.

 Normal termination of Gaussian 16 at Wed Oct  7 14:11:20 2020.
