 Gaussian 16, Revision A.03,

 ----------------------------------------------------------------------
 #P Opt(TS,MaxCyc=50,NoEigenTest,MaxStep=10,AddRedundant) B97D3/6-31G*
 5D 7F Integral=UltraFineGrid SCF=(NoSymm,XQC,MaxCyc=120) IOp(1/33=1)
 ----------------------------------------------------------------------

 TstMul:  Mul=     1
 TstMul:  ICh=     0
 TstMul:  Mul=     1
 Symbolic Z-matrix:
 Charge =  0 Multiplicity = 1

 SCF Done:  E(RB97D3) =  -195.121334057     A.U. after   14 cycles
 SCF Done:  E(RB97D3) =  -195.122405115     A.U. after   12 cycles
 SCF Done:  E(RB97D3) =  -195.122367345     A.U. after   11 cycles
 SCF Done:  E(RB97D3) =  -195.122229669     A.U. after   11 cycles
 SCF Done:  E(RB97D3) =  -195.122175181     A.U. after    9 cycles
 SCF Done:  E(RB97D3) =  -195.122038835     A.U. after   11 cycles
 SCF Done:  E(RB97D3) =  -195.122056971     A.U. after   12 cycles
 SCF Done:  E(RB97D3) =  -195.122207980     A.U. after   11 cycles
 SCF Done:  E(RB97D3) =  -195.122283030     A.U. after   11 cycles
 SCF Done:  E(RB97D3) =  -195.122599889     A.U. after   12 cycles
 SCF Done:  E(RB97D3) =  -195.122655767     A.U. after   13 cycles
 SCF Done:  E(RB97D3) =  -195.122752958     A.U. after   11 cycles
 SCF Done:  E(RB97D3) =  -195.122767481     A.U. after   11 cycles
 SCF Done:  E(RB97D3) =  -195.122771845     A.U. after    9 cycles
 SCF Done:  E(RB97D3) =  -195.122774054     A.U. after    9 cycles
 SCF Done:  E(RB97D3) =  -195.122774301     A.U. after    8 cycles
 Optimization completed.
    -- Stationary point found.
 Normal termination of Gaussian 16 at Wed Oct  7 14:12:30 2020.
 Gaussian 16:  ES64L-G16RevA.03 25-Dec-2016

 ----------------------------------------------------------------------
 #P Freq B97D3/6-31G* 5D 7F Integral=UltraFineGrid SCF=(NoSymm,XQC,MaxC
 yc=120) IOp(1/33=1) Geom=Check Guess=Read
 ----------------------------------------------------------------------

 TstMul:  Mul=     1
 TstMul:  ICh=     0
 TstMul:  Mul=     1
 Structure from the checkpoint file:  "MN_96_RKT22_BH76_B97DBJ_631Gs.chk"
 Charge =  0 Multiplicity = 1

                         Standard orientation:
 ---------------------------------------------------------------------
 Center     Atomic      Atomic             Coordinates (Angstroms)
 Number     Number       Type             X           Y           Z
 ---------------------------------------------------------------------
      1          6           0       -1.328079   -0.908950   -0.021974
      2          6           0       -1.218241    0.510066   -0.011558
      3          6           0        0.000342    1.185775    0.152052
      4          6           0        1.218749    0.509598   -0.012012
      5          6           0        1.327612   -0.909332   -0.021388
      6          1           0        2.205600   -1.330665   -0.524980
      7          1           0        1.081697   -1.462073    0.890327
      8          1           0        2.052079    1.102148   -0.403042
      9          1           0        0.000473    2.276089    0.090203
     10          1           0       -2.051680    1.103152   -0.401566
     11          1           0       -2.206923   -1.328679   -0.525462
     12          1           0       -0.000344   -1.220388   -0.525737
     13          1           0       -1.083204   -1.462515    0.889536
 ---------------------------------------------------------------------

 SCF Done:  E(RB97D3) =  -195.122774301     A.U. after    1 cycles

 The electronic state is 1-A.
 Alpha  occ. eigenvalues --   -9.91291  -9.91291  -9.90563  -9.90495  -9.90495
 Alpha  occ. eigenvalues --   -0.74204  -0.66476  -0.61870  -0.52649  -0.46925
 Alpha  occ. eigenvalues --   -0.43717  -0.37255  -0.36120  -0.35756  -0.33467
 Alpha  occ. eigenvalues --   -0.31478  -0.30380  -0.22177  -0.18809
 Alpha virt. eigenvalues --   -0.04580   0.00435   0.07519   0.10512   0.12108
 Alpha virt. eigenvalues --    0.14769   0.15857   0.16113   0.19043   0.20812
 Alpha virt. eigenvalues --    0.25117   0.26402   0.32300   0.38389   0.48344

 Mulliken charges:
               1
     1  C   -0.478374
     2  C   -0.077377
     3  C   -0.132563
     4  C   -0.077320
     5  C   -0.478354
     6  H    0.146431
     7  H    0.183815
     8  H    0.142014
     9  H    0.128109
    10  H    0.142004
    11  H    0.146397
    12  H    0.171447
    13  H    0.183771
 Sum of Mulliken charges =  -0.00000

 Dipole moment (field-independent basis, Debye):
    X=             -0.0000    Y=              0.0315    Z=             -0.1188  Tot=              0.1229
 Quadrupole moment (field-independent basis, Debye-Ang):
   XX=            -30.0478   YY=            -29.8391   ZZ=            -33.4325
   XY=             -0.0011   XZ=             -0.0026   YZ=             -1.3891

  Exact polarizability:  75.575   0.003  63.924  -0.003  -0.558  29.980
 Approx polarizability: 157.798   0.022 131.188  -0.001   5.165  48.932

 ******    1 imaginary frequencies (negative Signs) ******

                      1                      2                      3
                      A                      A                      A
 Frequencies --  -1366.3613               271.3034               443.8385
 Red. masses --      1.1977                 2.1144                 3.2227
 Frc consts  --      1.3174                 0.0917                 0.3740
 IR Inten    --     14.5801                 0.1679                 0.8963

                      4                      5                      6
                      A                      A                      A
 Frequencies --    482.0954               548.5334               593.2354
 Red. masses --      1.8606                 3.5495                 1.3441
 Frc consts  --      0.2548                 0.6292                 0.2787
 IR Inten    --      4.5086                 3.4281                24.0508

                      7                      8                      9
                      A                      A                      A
 Frequencies --    723.2996               774.8919               791.0137
 Red. masses --      1.8594                 1.2463                 1.3379
 Frc consts  --      0.5731                 0.4409                 0.4932
 IR Inten    --      5.4722                 4.2088                46.3140

                     10                     11                     12
                      A                      A                      A
 Frequencies --    948.2089               955.5657               978.0704
 Red. masses --      1.3074                 1.3197                 1.4641
 Frc consts  --      0.6926                 0.7100                 0.8252
 IR Inten    --      7.3071                 1.3062                20.0250

                     13                     14                     15
                      A                      A                      A
 Frequencies --    991.7275              1001.0696              1088.6488
 Red. masses --      2.4188                 1.3542                 1.3149
 Frc consts  --      1.4016                 0.7996                 0.9182
 IR Inten    --      1.3281                 0.2939                 2.6407

                     16                     17                     18
                      A                      A                      A
 Frequencies --   1118.8411              1176.2781              1243.3472
 Red. masses --      1.5907                 1.2010                 1.4956
 Frc consts  --      1.1732                 0.9791                 1.3622
 IR Inten    --      1.5030                 6.4680                 6.7716

                     19                     20                     21
                      A                      A                      A
 Frequencies --   1262.3012              1368.7581              1415.3222
 Red. masses --      1.2199                 1.0733                 1.0765
 Frc consts  --      1.1452                 1.1847                 1.2706
 IR Inten    --     10.3476                 6.2146                 5.5312

                     22                     23                     24
                      A                      A                      A
 Frequencies --   1424.6621              1507.6276              1517.6120
 Red. masses --      1.3776                 1.4711                 1.4337
 Frc consts  --      1.6474                 1.9700                 1.9455
 IR Inten    --      2.5329                 0.0553                 1.3062

                     25                     26                     27
                      A                      A                      A
 Frequencies --   1532.3791              1568.5201              3047.5296
 Red. masses --      4.1008                 1.8702                 1.0568
 Frc consts  --      5.6735                 2.7109                 5.7826
 IR Inten    --      7.4383                 4.2233                33.7082

                     28                     29                     30
                      A                      A                      A
 Frequencies --   3048.5336              3086.8832              3090.5076
 Red. masses --      1.0567                 1.0870                 1.0915
 Frc consts  --      5.7863                 6.1025                 6.1425
 IR Inten    --     18.3768                 0.8988                12.9487

                     31                     32                     33
                      A                      A                      A
 Frequencies --   3110.5100              3115.3908              3129.7711
 Red. masses --      1.1106                 1.1072                 1.0941
 Frc consts  --      6.3311                 6.3317                 6.3144
 IR Inten    --     36.6446                21.1109                36.0383

 - Thermochemistry -
 -------------------
 Temperature   298.150 Kelvin.  Pressure   1.00000 Atm.
 Atom     1 has atomic number  6 and mass  12.00000

 Molecular mass:    68.06260 amu.
 Principal axes and moments of inertia in atomic units:
                           1         2         3
     Eigenvalues --   224.87055 362.95087 566.19845
           X            1.00000  -0.00000  -0.00002
           Y            0.00000   0.99977  -0.02143
           Z            0.00002   0.02143   0.99977
 This molecule is an asymmetric top.
 Rotational symmetry number  1.
 Rotational temperatures (Kelvin)      0.38517     0.23864     0.15297
 Rotational constants (GHZ):           8.02569     4.97241     3.18747
    1 imaginary frequencies ignored.
 Zero-point vibrational energy     283253.4 (Joules/Mol)
                                   67.69920 (Kcal/Mol)
 Warning -- explicit consideration of   5 degrees of freedom as
           vibrations may cause significant error
 Vibrational temperatures:    390.35   638.58   693.63   789.22   853.53
          (Kelvin)           1040.67  1114.90  1138.09  1364.26  1374.85
                             1407.23  1426.87  1440.32  1566.32  1609.76
                             1692.40  1788.90  1816.17  1969.34  2036.33
                             2049.77  2169.14  2183.51  2204.75  2256.75
                             4384.72  4386.16  4441.34  4446.55  4475.33
                             4482.35  4503.04

 Zero-point correction=                           0.107886 (Hartree/Particle)
 Thermal correction to Energy=                    0.112645
 Thermal correction to Enthalpy=                  0.113589
 Thermal correction to Gibbs Free Energy=         0.080521
 Sum of electronic and zero-point Energies=           -195.014889
 Sum of electronic and thermal Energies=              -195.010129
 Sum of electronic and thermal Enthalpies=            -195.009185
 Sum of electronic and thermal Free Energies=         -195.042253

                     E (Thermal)             CV                S
                      KCal/Mol        Cal/Mol-Kelvin    Cal/Mol-Kelvin
 Total                   70.686             18.421             69.598
 Electronic               0.000              0.000              0.000
 Translational            0.889              2.981             38.571
 Rotational               0.889              2.981             25.339
 Vibrational             68.908             12.460              5.688
 Vibration     1          0.675              1.726              1.588
 Vibration     2          0.803              1.374              0.815
 Vibration     3          0.838              1.290              0.704
 Vibration     4          0.904              1.143              0.547
 Vibration     5          0.951              1.046              0.461

 Optimization completed.
    -- Stationary point found.
 Normal termination of Gaussian 16 at Wed Oct  7 14:13:46 2020.
