 Gaussian 16, Revision A.03,

 ----------------------------------------------------------------------
 #P Opt(TS,MaxCyc=50,NoEigenTest,MaxStep=10,AddRedundant) B97D3/6-31G*
 5D 7F Integral=UltraFineGrid SCF=(NoSymm,XQC,MaxCyc=120) IOp(1/33=1)
 ----------------------------------------------------------------------

 TstMul:  Mul=     3
 TstMul:  ICh=     0
 TstMul:  Mul=     3
 Symbolic Z-matrix:
 Charge =  0 Multiplicity = 3

 SCF Done:  E(UB97D3) =  -134.939523893     A.U. after   15 cycles
 SCF Done:  E(UB97D3) =  -134.939905798     A.U. after   12 cycles
 SCF Done:  E(UB97D3) =  -134.940962439     A.U. after   15 cycles
 SCF Done:  E(UB97D3) =  -134.941606083     A.U. after   15 cycles
 SCF Done:  E(UB97D3) =  -134.941907921     A.U. after   13 cycles
 SCF Done:  E(UB97D3) =  -134.941938801     A.U. after   13 cycles
 SCF Done:  E(UB97D3) =  -134.941897373     A.U. after   15 cycles
 SCF Done:  E(UB97D3) =  -134.942455965     A.U. after   13 cycles
 SCF Done:  E(UB97D3) =  -134.941911114     A.U. after   13 cycles
 SCF Done:  E(UB97D3) =  -134.941485909     A.U. after   13 cycles
 SCF Done:  E(UB97D3) =  -134.940980834     A.U. after   14 cycles
 SCF Done:  E(UB97D3) =  -134.940999969     A.U. after   15 cycles
 SCF Done:  E(UB97D3) =  -134.941034401     A.U. after   12 cycles
 SCF Done:  E(UB97D3) =  -134.941093392     A.U. after   13 cycles
 SCF Done:  E(UB97D3) =  -134.941132286     A.U. after   13 cycles
 SCF Done:  E(UB97D3) =  -134.941210221     A.U. after   13 cycles
 SCF Done:  E(UB97D3) =  -134.941235074     A.U. after   13 cycles
 SCF Done:  E(UB97D3) =  -134.941237502     A.U. after   12 cycles
 SCF Done:  E(UB97D3) =  -134.941237769     A.U. after    9 cycles
 Optimization completed.
    -- Stationary point found.
 Normal termination of Gaussian 16 at Wed Oct  7 14:11:15 2020.
 Gaussian 16:  ES64L-G16RevA.03 25-Dec-2016

 ----------------------------------------------------------------------
 #P Freq B97D3/6-31G* 5D 7F Integral=UltraFineGrid SCF=(NoSymm,XQC,MaxC
 yc=120) IOp(1/33=1) Geom=Check Guess=Read
 ----------------------------------------------------------------------

 TstMul:  Mul=     3
 TstMul:  ICh=     0
 TstMul:  Mul=     3
 Structure from the checkpoint file:  "MN_93_RKT19_BH76_B97DBJ_631Gs.chk"
 Charge =  0 Multiplicity = 3

                         Standard orientation:
 ---------------------------------------------------------------------
 Center     Atomic      Atomic             Coordinates (Angstroms)
 Number     Number       Type             X           Y           Z
 ---------------------------------------------------------------------
      1          6           0       -1.439053   -0.433666   -0.001533
      2          6           0       -0.440911    0.699105    0.001657
      3          7           0        1.982248   -0.372491    0.002582
      4          1           0       -1.324885   -1.068754   -0.892435
      5          1           0       -1.326870   -1.072002    0.887279
      6          1           0       -2.476660   -0.051111   -0.002064
      7          1           0       -0.408446    1.311420   -0.907791
      8          1           0       -0.410074    1.307803    0.913625
      9          1           0        0.838864    0.056858    0.004298
     10          1           0        2.512111    0.530594   -0.021731
 ---------------------------------------------------------------------

 SCF Done:  E(UB97D3) =  -134.941237769     A.U. after    1 cycles

 The electronic state is 3-A.
 Alpha  occ. eigenvalues --  -14.02688  -9.91525  -9.90466  -0.75912  -0.68727
 Alpha  occ. eigenvalues --   -0.55546  -0.41248  -0.39960  -0.35552  -0.33940
 Alpha  occ. eigenvalues --   -0.31272  -0.29445  -0.25256  -0.17520
 Alpha virt. eigenvalues --    0.07365   0.09648   0.12130   0.12464   0.14558
 Alpha virt. eigenvalues --    0.16938   0.20733   0.24477   0.45913   0.49411
 Alpha virt. eigenvalues --    0.51842   0.55216   0.57673   0.61847   0.66415

  Beta  occ. eigenvalues --  -14.01353  -9.91225  -9.90479  -0.69305  -0.66601
  Beta  occ. eigenvalues --   -0.54006  -0.39325  -0.38640  -0.34036  -0.33104
  Beta  occ. eigenvalues --   -0.30849  -0.24794
  Beta virt. eigenvalues --   -0.12706  -0.10172   0.08311   0.10666   0.12790
  Beta virt. eigenvalues --    0.12973   0.14593   0.17465   0.21621   0.27163
  Beta virt. eigenvalues --    0.46505   0.50143   0.52326   0.58237   0.60117

 Mulliken charges and spin densities:
               1          2
     1  C   -0.444534  -0.023492
     2  C   -0.441838   0.648314
     3  N   -0.507717   1.517690
     4  H    0.165526   0.004988
     5  H    0.165729   0.004974
     6  H    0.161365   0.030898
     7  H    0.163753  -0.024585
     8  H    0.164076  -0.024488
     9  H    0.292918  -0.078620
    10  H    0.280724  -0.055678
 Sum of Mulliken charges =   0.00000   2.00000

 Dipole moment (field-independent basis, Debye):
    X=             -0.8582    Y=              1.5880    Z=             -0.0308  Tot=              1.8053
 Quadrupole moment (field-independent basis, Debye-Ang):
   XX=            -21.4054   YY=            -21.6881   ZZ=            -20.4906
   XY=              3.8359   XZ=             -0.0818   YZ=              0.0050

  Exact polarizability:  55.709  -3.240  32.579  -0.068  -0.081  26.064
 Approx polarizability:  87.009 -12.501  50.408  -0.063  -0.159  38.361

 ******    1 imaginary frequencies (negative Signs) ******

                      1                      2                      3
                      A                      A                      A
 Frequencies --  -1305.6891                71.1727               137.0757
 Red. masses --      1.1085                 1.0794                 2.8040
 Frc consts  --      1.1135                 0.0032                 0.0310
 IR Inten    --    267.9271                65.3610                 4.6846

                      4                      5                      6
                      A                      A                      A
 Frequencies --    162.5693               454.7792               461.8631
 Red. masses --      1.1051                 1.0995                 2.0214
 Frc consts  --      0.0172                 0.1340                 0.2541
 IR Inten    --      1.7366                 4.0151                 4.8036

                      7                      8                      9
                      A                      A                      A
 Frequencies --    718.1467               824.1187               908.7626
 Red. masses --      1.3983                 1.0492                 1.1520
 Frc consts  --      0.4249                 0.4198                 0.5606
 IR Inten    --     15.0105                 8.0065                35.6643

                     10                     11                     12
                      A                      A                      A
 Frequencies --   1042.5150              1158.1933              1162.3670
 Red. masses --      3.1570                 1.1537                 1.4356
 Frc consts  --      2.0216                 0.9118                 1.1428
 IR Inten    --      0.8292                21.5174                10.9102

                     13                     14                     15
                      A                      A                      A
 Frequencies --   1221.9139              1401.5605              1456.4229
 Red. masses --      1.2940                 1.2002                 1.0720
 Frc consts  --      1.1383                 1.3891                 1.3398
 IR Inten    --      6.3317                 4.3898                29.3395

                     16                     17                     18
                      A                      A                      A
 Frequencies --   1470.0654              1488.2765              1492.3324
 Red. masses --      1.1176                 1.0365                 1.0509
 Frc consts  --      1.4230                 1.3527                 1.3789
 IR Inten    --     42.6180                 5.2502                 7.8723

                     19                     20                     21
                      A                      A                      A
 Frequencies --   2954.7749              3028.3374              3038.8517
 Red. masses --      1.0489                 1.0764                 1.0601
 Frc consts  --      5.3957                 5.8160                 5.7681
 IR Inten    --     30.5085                 5.8732                41.5623

                     22                     23                     24
                      A                      A                      A
 Frequencies --   3065.1581              3117.1495              3201.7157
 Red. masses --      1.1024                 1.1113                 1.0726
 Frc consts  --      6.1024                 6.3622                 6.4781
 IR Inten    --     15.3131                42.0968                29.6686

 - Thermochemistry -
 -------------------
 Temperature   298.150 Kelvin.  Pressure   1.00000 Atm.
 Atom     1 has atomic number  6 and mass  12.00000

 Molecular mass:    45.05785 amu.
 Principal axes and moments of inertia in atomic units:
                           1         2         3
     Eigenvalues --    68.72209 366.32304 411.70112
           X            0.99926   0.03834  -0.00047
           Y           -0.03834   0.99926  -0.00047
           Z            0.00045   0.00049   1.00000
 This molecule is an asymmetric top.
 Rotational symmetry number  1.
 Rotational temperatures (Kelvin)      1.26035     0.23644     0.21038
 Rotational constants (GHZ):          26.26144     4.92664     4.38362
    1 imaginary frequencies ignored.
 Zero-point vibrational energy     203593.2 (Joules/Mol)
                                   48.65994 (Kcal/Mol)
 Warning -- explicit consideration of   5 degrees of freedom as
           vibrations may cause significant error
 Vibrational temperatures:    102.40   197.22   233.90   654.33   664.52
          (Kelvin)           1033.25  1185.72  1307.51  1499.95  1666.38
                             1672.39  1758.06  2016.53  2095.47  2115.10
                             2141.30  2147.13  4251.26  4357.10  4372.23
                             4410.08  4484.88  4606.55

 Zero-point correction=                           0.077545 (Hartree/Particle)
 Thermal correction to Energy=                    0.083314
 Thermal correction to Enthalpy=                  0.084259
 Thermal correction to Gibbs Free Energy=         0.048482
 Sum of electronic and zero-point Energies=           -134.863693
 Sum of electronic and thermal Energies=              -134.857923
 Sum of electronic and thermal Enthalpies=            -134.856979
 Sum of electronic and thermal Free Energies=         -134.892756

                     E (Thermal)             CV                S
                      KCal/Mol        Cal/Mol-Kelvin    Cal/Mol-Kelvin
 Total                   52.281             17.734             75.298
 Electronic               0.000              0.000              2.183
 Translational            0.889              2.981             37.342
 Rotational               0.889              2.981             23.853
 Vibrational             50.503             11.772             11.919
 Vibration     1          0.598              1.968              4.121
 Vibration     2          0.614              1.916              2.844
 Vibration     3          0.623              1.888              2.520
 Vibration     4          0.813              1.350              0.781
 Vibration     5          0.820              1.335              0.761

                           ! Non-Optimized Parameters !
 Normal termination of Gaussian 16 at Wed Oct  7 14:12:06 2020.
