 Gaussian 16, Revision A.03,

 ----------------------------------------------------------------------
 #P Opt(TS,MaxCyc=50,NoEigenTest,MaxStep=10,AddRedundant) B97D3/6-31G*
 5D 7F Integral=UltraFineGrid SCF=(NoSymm,XQC,MaxCyc=120) IOp(1/33=1)
 ----------------------------------------------------------------------

 TstMul:  Mul=     3
 TstMul:  ICh=     0
 TstMul:  Mul=     3
 Symbolic Z-matrix:
 Charge =  0 Multiplicity = 3

 SCF Done:  E(UB97D3) =  -95.6504362858     A.U. after   14 cycles
 SCF Done:  E(UB97D3) =  -95.6506571001     A.U. after   12 cycles
 SCF Done:  E(UB97D3) =  -95.6511798706     A.U. after   13 cycles
 SCF Done:  E(UB97D3) =  -95.6507171387     A.U. after   14 cycles
 SCF Done:  E(UB97D3) =  -95.6508160076     A.U. after   13 cycles
 SCF Done:  E(UB97D3) =  -95.6507531284     A.U. after   14 cycles
 SCF Done:  E(UB97D3) =  -95.6508789422     A.U. after   12 cycles
 SCF Done:  E(UB97D3) =  -95.6505896468     A.U. after   13 cycles
 SCF Done:  E(UB97D3) =  -95.6505725704     A.U. after   14 cycles
 SCF Done:  E(UB97D3) =  -95.6505073716     A.U. after   12 cycles
 SCF Done:  E(UB97D3) =  -95.6505060064     A.U. after   13 cycles
 SCF Done:  E(UB97D3) =  -95.6505051788     A.U. after   11 cycles
 SCF Done:  E(UB97D3) =  -95.6505028605     A.U. after   13 cycles
 SCF Done:  E(UB97D3) =  -95.6505054622     A.U. after   13 cycles
 SCF Done:  E(UB97D3) =  -95.6505055691     A.U. after    9 cycles
 SCF Done:  E(UB97D3) =  -95.6505056178     A.U. after    9 cycles
 SCF Done:  E(UB97D3) =  -95.6505056282     A.U. after    8 cycles
 SCF Done:  E(UB97D3) =  -95.6505056309     A.U. after    8 cycles
 SCF Done:  E(UB97D3) =  -95.6505056324     A.U. after    8 cycles
 Optimization completed.
    -- Stationary point found.
 Normal termination of Gaussian 16 at Wed Oct  7 14:09:10 2020.
 Gaussian 16:  ES64L-G16RevA.03 25-Dec-2016

 ----------------------------------------------------------------------
 #P Freq B97D3/6-31G* 5D 7F Integral=UltraFineGrid SCF=(NoSymm,XQC,MaxC
 yc=120) IOp(1/33=1) Geom=Check Guess=Read
 ----------------------------------------------------------------------

 TstMul:  Mul=     3
 TstMul:  ICh=     0
 TstMul:  Mul=     3
 Structure from the checkpoint file:  "MN_92_RKT18_BH76_B97DBJ_631Gs.chk"
 Charge =  0 Multiplicity = 3

                         Standard orientation:
 ---------------------------------------------------------------------
 Center     Atomic      Atomic             Coordinates (Angstroms)
 Number     Number       Type             X           Y           Z
 ---------------------------------------------------------------------
      1          6           0       -1.234524   -0.012414    0.000001
      2          7           0        1.429639    0.128111    0.000002
      3          1           0       -1.427340   -0.565551    0.922303
      4          1           0       -1.427328   -0.565431   -0.922376
      5          1           0       -1.576349    1.025230    0.000068
      6          1           0        0.264414    0.191953   -0.000011
      7          1           0        1.566273   -0.908492   -0.000000
 ---------------------------------------------------------------------

 SCF Done:  E(UB97D3) =  -95.6505056324     A.U. after    1 cycles

 The electronic state is 3-A.
 Alpha  occ. eigenvalues --  -14.03144  -9.91527  -0.76822  -0.62937  -0.41249
 Alpha  occ. eigenvalues --   -0.37260  -0.37158  -0.30136  -0.25810  -0.18933
 Alpha virt. eigenvalues --    0.07123   0.10155   0.14220   0.14386   0.23156
 Alpha virt. eigenvalues --    0.47833   0.47936   0.51728   0.65203   0.65470
 Alpha virt. eigenvalues --    0.67637   0.77366   0.83822   0.83830   0.84083

  Beta  occ. eigenvalues --  -14.01857  -9.91195  -0.69748  -0.59939  -0.38070
  Beta  occ. eigenvalues --   -0.36130  -0.35951  -0.25288
  Beta virt. eigenvalues --   -0.13381  -0.11084   0.08512   0.11603   0.15095
  Beta virt. eigenvalues --    0.15232   0.25762   0.48606   0.49257   0.55579
  Beta virt. eigenvalues --    0.67841   0.68862   0.70940   0.78648   0.84890

 Mulliken charges and spin densities:
               1          2
     1  C   -0.622931   0.761076
     2  N   -0.520643   1.454564
     3  H    0.179384  -0.030014
     4  H    0.179384  -0.030014
     5  H    0.186657  -0.029174
     6  H    0.313798  -0.072938
     7  H    0.284351  -0.053501
 Sum of Mulliken charges =  -0.00000   2.00000

 Dipole moment (field-independent basis, Debye):
    X=             -1.1841    Y=             -1.3666    Z=             -0.0000  Tot=              1.8082
 Quadrupole moment (field-independent basis, Debye-Ang):
   XX=            -16.7331   YY=            -13.7284   ZZ=            -14.1073
   XY=             -2.7086   XZ=             -0.0000   YZ=             -0.0000

  Exact polarizability:  40.963  -0.677  20.753  -0.000   0.000  16.227
 Approx polarizability:  68.205   1.365  29.725  -0.000   0.000  22.190

 ******    1 imaginary frequencies (negative Signs) ******

                      1                      2                      3
                      A                      A                      A
 Frequencies --   -784.9626                70.5827               349.9379
 Red. masses --      1.4087                 1.0475                 1.0702
 Frc consts  --      0.5114                 0.0031                 0.0772
 IR Inten    --    157.6882                54.4406                11.1968

                      4                      5                      6
                      A                      A                      A
 Frequencies --    401.1142               612.7982               792.4208
 Red. masses --      1.0803                 1.5515                 1.2635
 Frc consts  --      0.1024                 0.3433                 0.4674
 IR Inten    --      5.7524                14.0918                15.3271

                      7                      8                      9
                      A                      A                      A
 Frequencies --   1070.7529              1178.2701              1424.5435
 Red. masses --      1.0575                 1.3292                 1.0881
 Frc consts  --      0.7144                 1.0873                 1.3010
 IR Inten    --     51.7330                 1.0441                 5.8727

                     10                     11                     12
                      A                      A                      A
 Frequencies --   1425.8638              1533.0877              3044.5525
 Red. masses --      1.0833                 1.0493                 1.0162
 Frc consts  --      1.2976                 1.4530                 5.5498
 IR Inten    --      3.6407               151.3893                 0.7917

                     13                     14                     15
                      A                      A                      A
 Frequencies --   3190.2868              3192.4217              3222.3386
 Red. masses --      1.1122                 1.1122                 1.0721
 Frc consts  --      6.6692                 6.6782                 6.5590
 IR Inten    --     15.7328                10.1866                26.7453

 - Thermochemistry -
 -------------------
 Temperature   298.150 Kelvin.  Pressure   1.00000 Atm.
 Atom     1 has atomic number  6 and mass  12.00000

 Molecular mass:    31.04220 amu.
 Principal axes and moments of inertia in atomic units:
                           1         2         3
     Eigenvalues --    15.94892 205.67146 209.37354
           X            0.99970  -0.02440  -0.00000
           Y            0.02440   0.99970  -0.00000
           Z            0.00000   0.00000   1.00000
 This molecule is an asymmetric top.
 Rotational symmetry number  1.
 Rotational temperatures (Kelvin)      5.43071     0.42113     0.41368
 Rotational constants (GHZ):         113.15756     8.77487     8.61972
    1 imaginary frequencies ignored.
 Zero-point vibrational energy     128652.2 (Joules/Mol)
                                   30.74862 (Kcal/Mol)
 Warning -- explicit consideration of   4 degrees of freedom as
           vibrations may cause significant error
 Vibrational temperatures:    101.55   503.48   577.11   881.68  1140.12
          (Kelvin)           1540.57  1695.27  2049.60  2051.50  2205.77
                             4380.43  4590.11  4593.18  4636.23

 Zero-point correction=                           0.049001 (Hartree/Particle)
 Thermal correction to Energy=                    0.053593
 Thermal correction to Enthalpy=                  0.054538
 Thermal correction to Gibbs Free Energy=         0.022878
 Sum of electronic and zero-point Energies=            -95.601505
 Sum of electronic and thermal Energies=               -95.596912
 Sum of electronic and thermal Enthalpies=             -95.595968
 Sum of electronic and thermal Free Energies=          -95.627627

                     E (Thermal)             CV                S
                      KCal/Mol        Cal/Mol-Kelvin    Cal/Mol-Kelvin
 Total                   33.630             13.428             66.633
 Electronic               0.000              0.000              2.183
 Translational            0.889              2.981             36.231
 Rotational               0.889              2.981             21.157
 Vibrational             31.853              7.466              7.062
 Vibration     1          0.598              1.968              4.137
 Vibration     2          0.727              1.575              1.166
 Vibration     3          0.767              1.468              0.959
 Vibration     4          0.972              1.005              0.428

 Optimization completed.
    -- Stationary point found.
 Normal termination of Gaussian 16 at Wed Oct  7 14:09:42 2020.
