 Gaussian 16, Revision A.03,

 ----------------------------------------------------------------------
 #P Opt(TS,MaxCyc=50,NoEigenTest,MaxStep=10,AddRedundant) B97D3/6-31G*
 5D 7F Integral=UltraFineGrid SCF=(NoSymm,XQC,MaxCyc=120) IOp(1/33=1)
 ----------------------------------------------------------------------

 TstMul:  Mul=     2
 TstMul:  ICh=     0
 TstMul:  Mul=     2
 Symbolic Z-matrix:
 Charge =  0 Multiplicity = 2

 SCF Done:  E(UB97D3) =  -96.3155899653     A.U. after   13 cycles
 SCF Done:  E(UB97D3) =  -96.3156848310     A.U. after   10 cycles
 SCF Done:  E(UB97D3) =  -96.3163082531     A.U. after   13 cycles
 SCF Done:  E(UB97D3) =  -96.3164604787     A.U. after   12 cycles
 SCF Done:  E(UB97D3) =  -96.3165339571     A.U. after   12 cycles
 SCF Done:  E(UB97D3) =  -96.3166874099     A.U. after   13 cycles
 SCF Done:  E(UB97D3) =  -96.3168893067     A.U. after   13 cycles
 SCF Done:  E(UB97D3) =  -96.3166420077     A.U. after   13 cycles
 SCF Done:  E(UB97D3) =  -96.3164417823     A.U. after   13 cycles
 SCF Done:  E(UB97D3) =  -96.3163921539     A.U. after   13 cycles
 SCF Done:  E(UB97D3) =  -96.3163944919     A.U. after   10 cycles
 SCF Done:  E(UB97D3) =  -96.3163939901     A.U. after   11 cycles
 SCF Done:  E(UB97D3) =  -96.3163960356     A.U. after   11 cycles
 SCF Done:  E(UB97D3) =  -96.3163979845     A.U. after   10 cycles
 SCF Done:  E(UB97D3) =  -96.3164093665     A.U. after   12 cycles
 SCF Done:  E(UB97D3) =  -96.3164201773     A.U. after   13 cycles
 SCF Done:  E(UB97D3) =  -96.3164212370     A.U. after    8 cycles
 SCF Done:  E(UB97D3) =  -96.3164214264     A.U. after    8 cycles
 Optimization completed.
    -- Stationary point found.
 Normal termination of Gaussian 16 at Wed Oct  7 14:10:38 2020.
 Gaussian 16:  ES64L-G16RevA.03 25-Dec-2016

 ----------------------------------------------------------------------
 #P Freq B97D3/6-31G* 5D 7F Integral=UltraFineGrid SCF=(NoSymm,XQC,MaxC
 yc=120) IOp(1/33=1) Geom=Check Guess=Read
 ----------------------------------------------------------------------

 TstMul:  Mul=     2
 TstMul:  ICh=     0
 TstMul:  Mul=     2
 Structure from the checkpoint file:  "MN_95_RKT21_BH76_B97DBJ_631Gs.chk"
 Charge =  0 Multiplicity = 2

                         Standard orientation:
 ---------------------------------------------------------------------
 Center     Atomic      Atomic             Coordinates (Angstroms)
 Number     Number       Type             X           Y           Z
 ---------------------------------------------------------------------
      1          6           0       -1.268832   -0.000011    0.013584
      2          7           0        1.324654   -0.000003   -0.140216
      3          1           0       -1.622153    0.910641   -0.481186
      4          1           0       -1.430346    0.007243    1.095859
      5          1           0       -1.620971   -0.917733   -0.468777
      6          1           0        0.057951   -0.000006   -0.222569
      7          1           0        1.477946    0.807134    0.488378
      8          1           0        1.477984   -0.807191    0.488301
 ---------------------------------------------------------------------

 SCF Done:  E(UB97D3) =  -96.3164214264     A.U. after    1 cycles

 The electronic state is 2-A.
 Alpha  occ. eigenvalues --  -13.99904  -9.90326  -0.77299  -0.62559  -0.40776
 Alpha  occ. eigenvalues --   -0.39253  -0.36044  -0.35922  -0.24792  -0.18052
 Alpha virt. eigenvalues --    0.06298   0.10951   0.13080   0.14548   0.14965
 Alpha virt. eigenvalues --    0.25346   0.47730   0.48751   0.52599   0.66460
 Alpha virt. eigenvalues --    0.68880   0.69397   0.82256   0.83373   0.84138

  Beta  occ. eigenvalues --  -13.99346  -9.90053  -0.74384  -0.60399  -0.39651
  Beta  occ. eigenvalues --   -0.36703  -0.35060  -0.35030  -0.22435
  Beta virt. eigenvalues --   -0.11689   0.07110   0.11712   0.13768   0.15258
  Beta virt. eigenvalues --    0.15628   0.26867   0.48073   0.49450   0.55887
  Beta virt. eigenvalues --    0.68507   0.68996   0.71191   0.82911   0.84515

 Mulliken charges and spin densities:
               1          2
     1  C   -0.655638   0.564021
     2  N   -0.756211   0.584358
     3  H    0.178172  -0.018655
     4  H    0.167922  -0.022406
     5  H    0.178082  -0.018696
     6  H    0.302980  -0.047812
     7  H    0.292344  -0.020404
     8  H    0.292349  -0.020405
 Sum of Mulliken charges =  -0.00000   1.00000

 Dipole moment (field-independent basis, Debye):
    X=             -0.5822    Y=              0.0000    Z=              1.6682  Tot=              1.7669
 Quadrupole moment (field-independent basis, Debye-Ang):
   XX=            -16.1879   YY=            -13.5976   ZZ=            -15.4343
   XY=             -0.0000   XZ=              3.0175   YZ=             -0.0003

  Exact polarizability:  44.137   0.001  21.843   0.655  -0.001  19.514
 Approx polarizability:  74.079   0.003  31.195  -1.580  -0.001  27.758

 ******    1 imaginary frequencies (negative Signs) ******

                      1                      2                      3
                      A                      A                      A
 Frequencies --  -1600.3517                36.8683               378.4541
 Red. masses --      1.0683                 1.0259                 1.2594
 Frc consts  --      1.6120                 0.0008                 0.1063
 IR Inten    --    216.7894                33.5216                 8.6580

                      4                      5                      6
                      A                      A                      A
 Frequencies --    396.9458               547.8449               787.8214
 Red. masses --      1.0261                 2.3075                 1.1080
 Frc consts  --      0.0953                 0.4081                 0.4052
 IR Inten    --      2.9871                 4.7513                 5.8175

                      7                      8                      9
                      A                      A                      A
 Frequencies --    859.1933              1149.4799              1387.9670
 Red. masses --      1.2537                 1.1784                 1.1125
 Frc consts  --      0.5453                 0.9174                 1.2627
 IR Inten    --    111.5760                13.2749               135.8535

                     10                     11                     12
                      A                      A                      A
 Frequencies --   1431.2549              1442.5263              1521.3849
 Red. masses --      1.0971                 1.0544                 1.0283
 Frc consts  --      1.3241                 1.2928                 1.4023
 IR Inten    --      9.9320                 9.1075                11.4418

                     13                     14                     15
                      A                      A                      A
 Frequencies --   1621.7669              3028.0214              3158.7592
 Red. masses --      1.0634                 1.0206                 1.1091
 Frc consts  --      1.6479                 5.5137                 6.5199
 IR Inten    --     16.8303                 5.0197                17.2415

                     16                     17                     18
                      A                      A                      A
 Frequencies --   3161.0275              3276.2623              3385.4826
 Red. masses --      1.1091                 1.0497                 1.0880
 Frc consts  --      6.5295                 6.6387                 7.3470
 IR Inten    --     19.9604                11.7829                 6.8440

 - Thermochemistry -
 -------------------
 Temperature   298.150 Kelvin.  Pressure   1.00000 Atm.
 Atom     1 has atomic number  6 and mass  12.00000

 Molecular mass:    32.05002 amu.
 Principal axes and moments of inertia in atomic units:
                           1         2         3
     Eigenvalues --    19.32684 207.20100 209.28522
           X            0.99968  -0.00000   0.02533
           Y            0.00000   1.00000  -0.00000
           Z           -0.02533   0.00000   0.99968
 This molecule is an asymmetric top.
 Rotational symmetry number  1.
 Rotational temperatures (Kelvin)      4.48154     0.41802     0.41386
 Rotational constants (GHZ):          93.38006     8.71010     8.62336
    1 imaginary frequencies ignored.
 Zero-point vibrational energy     164911.6 (Joules/Mol)
                                   39.41481 (Kcal/Mol)
 Warning -- explicit consideration of   4 degrees of freedom as
           vibrations may cause significant error
 Vibrational temperatures:     53.05   544.51   571.12   788.23  1133.50
          (Kelvin)           1236.19  1653.85  1996.97  2059.26  2075.47
                             2188.93  2333.36  4356.65  4544.75  4548.01
                             4713.81  4870.95

 Zero-point correction=                           0.062811 (Hartree/Particle)
 Thermal correction to Energy=                    0.067535
 Thermal correction to Enthalpy=                  0.068479
 Thermal correction to Gibbs Free Energy=         0.036385
 Sum of electronic and zero-point Energies=            -96.253610
 Sum of electronic and thermal Energies=               -96.248887
 Sum of electronic and thermal Enthalpies=             -96.247943
 Sum of electronic and thermal Free Energies=          -96.280036

                     E (Thermal)             CV                S
                      KCal/Mol        Cal/Mol-Kelvin    Cal/Mol-Kelvin
 Total                   42.379             13.966             67.547
 Electronic               0.000              0.000              1.377
 Translational            0.889              2.981             36.326
 Rotational               0.889              2.981             21.355
 Vibrational             40.601              8.004              8.489
 Vibration     1          0.594              1.982              5.421
 Vibration     2          0.749              1.516              1.045
 Vibration     3          0.763              1.477              0.974
 Vibration     4          0.903              1.144              0.549

                           ! Non-Optimized Parameters !
 Normal termination of Gaussian 16 at Wed Oct  7 14:11:20 2020.
