 Gaussian 16, Revision A.03,

 ----------------------------------------------------------------------
 #P Opt(TS,MaxCyc=50,NoEigenTest,MaxStep=10,AddRedundant) B97D3/6-31G*
 5D 7F Integral=UltraFineGrid SCF=(NoSymm,XQC,MaxCyc=120) IOp(1/33=1)
 ----------------------------------------------------------------------

 TstMul:  Mul=     2
 TstMul:  ICh=     0
 TstMul:  Mul=     2
 Symbolic Z-matrix:
 Charge =  0 Multiplicity = 2

 SCF Done:  E(UB97D3) =  -399.883525246     A.U. after   13 cycles
 SCF Done:  E(UB97D3) =  -399.884994350     A.U. after   13 cycles
 SCF Done:  E(UB97D3) =  -399.883690717     A.U. after   13 cycles
 SCF Done:  E(UB97D3) =  -399.882244302     A.U. after   13 cycles
 SCF Done:  E(UB97D3) =  -399.881114767     A.U. after   13 cycles
 SCF Done:  E(UB97D3) =  -399.880233890     A.U. after   13 cycles
 SCF Done:  E(UB97D3) =  -399.879550533     A.U. after   13 cycles
 SCF Done:  E(UB97D3) =  -399.879030360     A.U. after   12 cycles
 SCF Done:  E(UB97D3) =  -399.878648211     A.U. after   12 cycles
 SCF Done:  E(UB97D3) =  -399.878385004     A.U. after   13 cycles
 SCF Done:  E(UB97D3) =  -399.878225571     A.U. after   12 cycles
 SCF Done:  E(UB97D3) =  -399.878157523     A.U. after   13 cycles
 SCF Done:  E(UB97D3) =  -399.878152788     A.U. after   12 cycles
 SCF Done:  E(UB97D3) =  -399.878153959     A.U. after    8 cycles
 SCF Done:  E(UB97D3) =  -399.878155039     A.U. after   11 cycles
 Optimization completed.
    -- Stationary point found.
 Normal termination of Gaussian 16 at Wed Oct  7 14:07:42 2020.
 Gaussian 16:  ES64L-G16RevA.03 25-Dec-2016

 ----------------------------------------------------------------------
 #P Freq B97D3/6-31G* 5D 7F Integral=UltraFineGrid SCF=(NoSymm,XQC,MaxC
 yc=120) IOp(1/33=1) Geom=Check Guess=Read
 ----------------------------------------------------------------------

 TstMul:  Mul=     2
 TstMul:  ICh=     0
 TstMul:  Mul=     2
 Structure from the checkpoint file:  "MN_90_RKT16_BH76_B97DBJ_631Gs.chk"
 Charge =  0 Multiplicity = 2

                         Standard orientation:
 ---------------------------------------------------------------------
 Center     Atomic      Atomic             Coordinates (Angstroms)
 Number     Number       Type             X           Y           Z
 ---------------------------------------------------------------------
      1          1           0        1.288795   -0.168919    0.000000
      2         16           0        0.000000    0.242749    0.000000
      3          1           0       -0.467864   -1.048604    0.000000
      4          1           0       -0.820931   -2.666468    0.000000
 ---------------------------------------------------------------------

 SCF Done:  E(UB97D3) =  -399.878155039     A.U. after    1 cycles

 The electronic state is 2-A'.
 Alpha  occ. eigenvalues --  -88.03980  -7.72920  -5.76356  -5.76009  -5.75074
 Alpha  occ. eigenvalues --   -0.68085  -0.41456  -0.33900  -0.27174  -0.22311
 Alpha virt. eigenvalues --   -0.00260   0.04807   0.30033   0.30673   0.32621
 Alpha virt. eigenvalues --    0.33869   0.66164   0.67762   0.70226   0.70914
 Alpha virt. eigenvalues --    0.72111   0.77840   0.95388   1.12302
  Beta  occ. eigenvalues --  -88.03914  -7.72891  -5.76273  -5.75921  -5.75031
  Beta  occ. eigenvalues --   -0.67615  -0.40814  -0.32935  -0.22106
  Beta virt. eigenvalues --   -0.16244   0.00041   0.05350   0.30027   0.31364
  Beta virt. eigenvalues --    0.32928   0.33905   0.66370   0.68630   0.70679
  Beta virt. eigenvalues --    0.71450   0.77329   0.95401   0.99266   1.12676

 Mulliken charges and spin densities:
               1          2
     1  H    0.122971  -0.002799
     2  S   -0.210002   0.097274
     3  H    0.071862  -0.011203
     4  H    0.015169   0.916729
 Sum of Mulliken charges =   0.00000   1.00000

 Dipole moment (field-independent basis, Debye):
    X=              0.6397    Y=             -1.3049    Z=              0.0000  Tot=              1.4532
 Quadrupole moment (field-independent basis, Debye-Ang):
   XX=            -13.6006   YY=            -14.5677   ZZ=            -17.7637
   XY=              0.5697   XZ=              0.0000   YZ=              0.0000

  Exact polarizability:  18.276   4.798  31.025  -0.000  -0.000  11.260
 Approx polarizability:  30.223   6.729  45.763  -0.000  -0.000  15.448

 ******    1 imaginary frequencies (negative Signs) ******

                      1                      2                      3
                     A'                     A"                     A'
 Frequencies --   -488.4076               122.6032               238.3002
 Red. masses --      1.0297                 1.0176                 1.0147
 Frc consts  --      0.1447                 0.0090                 0.0339
 IR Inten    --     39.2033                23.5687                 8.9756

                      4                      5                      6
                     A'                     A'                     A'
 Frequencies --   1204.6829              2264.6639              2655.2297
 Red. masses --      1.0398                 1.0446                 1.0380
 Frc consts  --      0.8891                 3.1564                 4.3119
 IR Inten    --      3.0841                28.7884                16.8119

 - Thermochemistry -
 -------------------
 Temperature   298.150 Kelvin.  Pressure   1.00000 Atm.
 Atom     1 has atomic number  1 and mass   1.00783

 Molecular mass:    34.99555 amu.
 Principal axes and moments of inertia in atomic units:
                           1         2         3
     Eigenvalues --     6.43048  37.62786  44.05834
           X            0.29748   0.95473   0.00000
           Y            0.95473  -0.29748   0.00000
           Z            0.00000   0.00000   1.00000
 This molecule is an asymmetric top.
 Rotational symmetry number  1.
 Rotational temperatures (Kelvin)     13.46928     2.30186     1.96589
 Rotational constants (GHZ):         280.65415    47.96290    40.96254
    1 imaginary frequencies ignored.
 Zero-point vibrational energy      38791.8 (Joules/Mol)
                                    9.27146 (Kcal/Mol)
 Warning -- explicit consideration of   2 degrees of freedom as
           vibrations may cause significant error
 Vibrational temperatures:    176.40   342.86  1733.27  3258.35  3820.28
          (Kelvin)

 Zero-point correction=                           0.014775 (Hartree/Particle)
 Thermal correction to Energy=                    0.018820
 Thermal correction to Enthalpy=                  0.019764
 Thermal correction to Gibbs Free Energy=        -0.008696
 Sum of electronic and zero-point Energies=           -399.863380
 Sum of electronic and thermal Energies=              -399.859335
 Sum of electronic and thermal Enthalpies=            -399.858391
 Sum of electronic and thermal Free Energies=         -399.886851

                     E (Thermal)             CV                S
                      KCal/Mol        Cal/Mol-Kelvin    Cal/Mol-Kelvin
 Total                   11.809              9.881             59.899
 Electronic               0.000              0.000              1.377
 Translational            0.889              2.981             36.588
 Rotational               0.889              2.981             17.018
 Vibrational             10.032              3.919              4.916
 Vibration     1          0.610              1.930              3.059
 Vibration     2          0.656              1.782              1.816

                           ! Non-Optimized Parameters !

 1\1\GINC-NODE37\Freq\UB97D3\6-31G(d)\H3S1(2)\RPEVERATI\07-Oct-2020\0\\
 #P Freq B97D3/6-31G* 5D 7F Integral=UltraFineGrid SCF=(NoSymm,XQC,MaxC
 yc=120) IOp(1/33=1) Geom=Check Guess=Read\\TS search on BH76.\\0,2\H,1
 .3140648107,-0.1412066126,0.\S,0.0405401841,0.3155197001,0.\H,-0.47243
 74723,-0.9585854305,0.\H,-0.8821685807,-2.563035458,0.\\Version=ES64L-
 G16RevA.03\State=2-A'\HF=-399.878155\S2=0.751797\S2-1=0.\S2A=0.75\RMSD
 =1.455e-09\RMSF=2.327e-05\ZeroPoint=0.014775\Thermal=0.0188196\Dipole=
 0.2334583,-0.5219101,0.\DipoleDeriv=-0.075027,0.0499312,0.,0.1598362,0

 Normal termination of Gaussian 16 at Wed Oct  7 14:08:08 2020.
