 Gaussian 16, Revision A.03,

 ----------------------------------------------------------------------
 #P Opt(TS,MaxCyc=50,NoEigenTest,MaxStep=10,AddRedundant) B97D3/6-31G*
 5D 7F Integral=UltraFineGrid SCF=(NoSymm,XQC,MaxCyc=120) IOp(1/33=1)
 ----------------------------------------------------------------------

 TstMul:  Mul=     2
 TstMul:  ICh=     0
 TstMul:  Mul=     2
 Symbolic Z-matrix:
 Charge =  0 Multiplicity = 2

 SCF Done:  E(UB97D3) =  -135.604844789     A.U. after   15 cycles
 SCF Done:  E(UB97D3) =  -135.604870503     A.U. after   11 cycles
 SCF Done:  E(UB97D3) =  -135.604866558     A.U. after   11 cycles
 SCF Done:  E(UB97D3) =  -135.605263762     A.U. after   12 cycles
 SCF Done:  E(UB97D3) =  -135.605717834     A.U. after   12 cycles
 SCF Done:  E(UB97D3) =  -135.605832221     A.U. after   11 cycles
 SCF Done:  E(UB97D3) =  -135.605840864     A.U. after    9 cycles
 SCF Done:  E(UB97D3) =  -135.605841702     A.U. after    8 cycles
 Optimization completed.
    -- Stationary point found.
 Normal termination of Gaussian 16 at Sat Oct 10 18:59:51 2020.
 Gaussian 16:  ES64L-G16RevA.03 25-Dec-2016

 ----------------------------------------------------------------------
 #P Freq B97D3/6-31G* 5D 7F Integral=UltraFineGrid SCF=(NoSymm,XQC,MaxC
 yc=120) IOp(1/33=1) Geom=Check Guess=Read
 ----------------------------------------------------------------------

 TstMul:  Mul=     2
 TstMul:  ICh=     0
 TstMul:  Mul=     2
 Structure from the checkpoint file:  "MN_94_RKT20_BH76_B97DBJ_631Gs.chk"
 Charge =  0 Multiplicity = 2

                         Standard orientation:
 ---------------------------------------------------------------------
 Center     Atomic      Atomic             Coordinates (Angstroms)
 Number     Number       Type             X           Y           Z
 ---------------------------------------------------------------------
      1          6           0       -1.531197   -0.427258    0.000001
      2          6           0       -0.497190    0.680511    0.000069
      3          7           0        1.907459   -0.345697   -0.000166
      4          1           0       -1.431874   -1.067569   -0.888811
      5          1           0       -1.432099   -1.067529    0.888875
      6          1           0       -2.556768   -0.016030   -0.000149
      7          1           0       -0.491591    1.302942   -0.904425
      8          1           0       -0.491393    1.302594    0.904809
      9          1           0        0.667868    0.070025   -0.000002
     10          1           0        2.277072    0.188490   -0.806010
     11          1           0        2.276893    0.187446    0.806458
 ---------------------------------------------------------------------

 SCF Done:  E(UB97D3) =  -135.605841702     A.U. after    1 cycles

 The electronic state is 2-A.
 Alpha  occ. eigenvalues --  -13.99309  -9.90698  -9.89946  -0.76537  -0.68327
 Alpha  occ. eigenvalues --   -0.55262  -0.40331  -0.40155  -0.38977  -0.34050
 Alpha  occ. eigenvalues --   -0.32799  -0.30597  -0.24112  -0.17064
 Alpha virt. eigenvalues --    0.06388   0.10027   0.12281   0.12840   0.14158
 Alpha virt. eigenvalues --    0.15092   0.17204   0.20815   0.26343   0.46842
 Alpha virt. eigenvalues --    0.49469   0.52226   0.56534   0.57474   0.61943

  Beta  occ. eigenvalues --  -13.98743  -9.90441  -9.89954  -0.73601  -0.67240
  Beta  occ. eigenvalues --   -0.54085  -0.39357  -0.38322  -0.38296  -0.32848
  Beta  occ. eigenvalues --   -0.32057  -0.30249  -0.21831
  Beta virt. eigenvalues --   -0.10986   0.07122   0.10302   0.12777   0.13416
  Beta virt. eigenvalues --    0.14595   0.15157   0.17704   0.21540   0.28012
  Beta virt. eigenvalues --    0.47450   0.49672   0.52754   0.57604   0.59169

 Mulliken charges and spin densities:
               1          2
     1  C   -0.440695  -0.013536
     2  C   -0.463173   0.508433
     3  N   -0.754139   0.602436
     4  H    0.162868   0.003529
     5  H    0.162849   0.003519
     6  H    0.156910   0.025591
     7  H    0.157373  -0.018619
     8  H    0.157366  -0.018617
     9  H    0.284655  -0.050350
    10  H    0.287996  -0.021193
    11  H    0.287991  -0.021193
 Sum of Mulliken charges =   0.00000   1.00000

 Dipole moment (field-independent basis, Debye):
    X=             -0.2919    Y=              1.7152    Z=              0.0012  Tot=              1.7399
 Quadrupole moment (field-independent basis, Debye-Ang):
   XX=            -20.5583   YY=            -23.1731   ZZ=            -20.0263
   XY=              3.6788   XZ=              0.0025   YZ=             -0.0019

  Exact polarizability:  59.050  -4.372  31.561  -0.000  -0.001  31.525
 Approx polarizability:  92.566 -14.815  48.696  -0.002  -0.002  47.442

 ******    2 imaginary frequencies (negative Signs) ******

                      1                      2                      3
                      A                      A                      A
 Frequencies --  -1558.0421                -6.3414               146.8165
 Red. masses --      1.0769                 1.0846                 2.6778
 Frc consts  --      1.5402                 0.0000                 0.0340
 IR Inten    --    339.6432                48.2927                 5.3687

                      4                      5                      6
                      A                      A                      A
 Frequencies --    168.9168               427.6954               454.0861
 Red. masses --      1.0852                 1.0191                 2.4792
 Frc consts  --      0.0182                 0.1098                 0.3012
 IR Inten    --      0.5604                 2.0113                 0.6543

                      7                      8                      9
                      A                      A                      A
 Frequencies --    756.6185               762.4363               880.2492
 Red. masses --      1.1145                 1.3509                 1.0531
 Frc consts  --      0.3759                 0.4627                 0.4808
 IR Inten    --      5.6457                68.4311                 0.6692

                     10                     11                     12
                      A                      A                      A
 Frequencies --    926.7038              1034.7329              1179.0323
 Red. masses --      1.2184                 3.1245                 1.4090
 Frc consts  --      0.6165                 1.9710                 1.1540
 IR Inten    --     90.5670                 5.4515                15.4554

                     13                     14                     15
                      A                      A                      A
 Frequencies --   1222.0267              1355.2075              1402.2976
 Red. masses --      1.3919                 1.0834                 1.1930
 Frc consts  --      1.2246                 1.1723                 1.3822
 IR Inten    --      0.3842               101.0766                 0.0112

                     16                     17                     18
                      A                      A                      A
 Frequencies --   1465.8801              1487.6640              1494.6811
 Red. masses --      1.1308                 1.0330                 1.0500
 Frc consts  --      1.4317                 1.3470                 1.3821
 IR Inten    --      1.1784                 2.1128                 3.6760

                     19                     20                     21
                      A                      A                      A
 Frequencies --   1510.4701              1610.9165              2963.2560
 Red. masses --      1.0444                 1.0694                 1.0457
 Frc consts  --      1.4040                 1.6351                 5.4099
 IR Inten    --     12.3914                13.8162                31.0656

                     22                     23                     24
                      A                      A                      A
 Frequencies --   3026.2849              3038.4025              3064.3278
 Red. masses --      1.0620                 1.0796                 1.1024
 Frc consts  --      5.7303                 5.8721                 6.0989
 IR Inten    --      5.7340                47.8075                11.6042

                     25                     26                     27
                      A                      A                      A
 Frequencies --   3104.4506              3265.7269              3376.4131
 Red. masses --      1.1091                 1.0497                 1.0880
 Frc consts  --      6.2977                 6.5956                 7.3078
 IR Inten    --     49.1527                12.0210                 8.9273

 - Thermochemistry -
 -------------------
 Temperature   298.150 Kelvin.  Pressure   1.00000 Atm.
 Atom     1 has atomic number  6 and mass  12.00000

 Molecular mass:    46.06567 amu.
 Principal axes and moments of inertia in atomic units:
                           1         2         3
     Eigenvalues --    70.24247 388.39207 426.12272
           X            0.99955   0.03008   0.00004
           Y           -0.03008   0.99955  -0.00006
           Z           -0.00004   0.00006   1.00000
 This molecule is an asymmetric top.
 Rotational symmetry number  1.
 Rotational temperatures (Kelvin)      1.23307     0.22301     0.20326
 Rotational constants (GHZ):          25.69302     4.64670     4.23526
    2 imaginary frequencies ignored.
 Zero-point vibrational energy     240002.6 (Joules/Mol)
                                   57.36199 (Kcal/Mol)
 Warning -- explicit consideration of   4 degrees of freedom as
           vibrations may cause significant error
 Vibrational temperatures:    211.24   243.03   615.36   653.33  1088.61
          (Kelvin)           1096.98  1266.48  1333.32  1488.75  1696.36
                             1758.22  1949.84  2017.59  2109.07  2140.42
                             2150.51  2173.23  2317.75  4263.46  4354.15
                             4371.58  4408.88  4466.61  4698.65  4857.91

 Zero-point correction=                           0.091412 (Hartree/Particle)
 Thermal correction to Energy=                    0.096443
 Thermal correction to Enthalpy=                  0.097387
 Thermal correction to Gibbs Free Energy=         0.063850
 Sum of electronic and zero-point Energies=           -135.514430
 Sum of electronic and thermal Energies=              -135.509399
 Sum of electronic and thermal Enthalpies=            -135.508455
 Sum of electronic and thermal Free Energies=         -135.541992

                     E (Thermal)             CV                S
                      KCal/Mol        Cal/Mol-Kelvin    Cal/Mol-Kelvin
 Total                   60.519             16.283             70.585
 Electronic               0.000              0.000              1.377
 Translational            0.889              2.981             37.408
 Rotational               0.889              2.981             23.968
 Vibrational             58.741             10.322              7.833
 Vibration     1          0.617              1.906              2.713
 Vibration     2          0.625              1.881              2.448
 Vibration     3          0.789              1.410              0.866
 Vibration     4          0.813              1.352              0.784

                           ! Non-Optimized Parameters !
 Normal termination of Gaussian 16 at Sat Oct 10 19:00:29 2020.
