 Gaussian 16, Revision A.03,

 ----------------------------------------------------------------------
 #P Opt(TS,MaxCyc=50,NoEigenTest,MaxStep=10,AddRedundant) B97D3/6-31G*
 5D 7F Integral=UltraFineGrid SCF=(NoSymm,XQC,MaxCyc=120) IOp(1/33=1)
 ----------------------------------------------------------------------

 TstMul:  Mul=     3
 TstMul:  ICh=     0
 TstMul:  Mul=     3
 Symbolic Z-matrix:
 Charge =  0 Multiplicity = 3

 SCF Done:  E(UB97D3) =  -535.832583433     A.U. after   18 cycles
 SCF Done:  E(UB97D3) =  -535.832093782     A.U. after   14 cycles
 SCF Done:  E(UB97D3) =  -535.832670836     A.U. after   16 cycles
 SCF Done:  E(UB97D3) =  -535.832283817     A.U. after   15 cycles
 SCF Done:  E(UB97D3) =  -535.833259743     A.U. after   21 cycles
 SCF Done:  E(UB97D3) =  -535.832242065     A.U. after   16 cycles
 SCF Done:  E(UB97D3) =  -535.831100382     A.U. after   15 cycles
 SCF Done:  E(UB97D3) =  -535.830178995     A.U. after   14 cycles
 SCF Done:  E(UB97D3) =  -535.829467093     A.U. after   15 cycles
 SCF Done:  E(UB97D3) =  -535.829012227     A.U. after   15 cycles
 SCF Done:  E(UB97D3) =  -535.828786331     A.U. after   16 cycles
 SCF Done:  E(UB97D3) =  -535.828710807     A.U. after   16 cycles
 SCF Done:  E(UB97D3) =  -535.828702858     A.U. after   14 cycles
 SCF Done:  E(UB97D3) =  -535.828702194     A.U. after   11 cycles
 Optimization completed.
    -- Stationary point found.
 Normal termination of Gaussian 16 at Wed Oct  7 14:08:09 2020.
 Gaussian 16:  ES64L-G16RevA.03 25-Dec-2016

 ----------------------------------------------------------------------
 #P Freq B97D3/6-31G* 5D 7F Integral=UltraFineGrid SCF=(NoSymm,XQC,MaxC
 yc=120) IOp(1/33=1) Geom=Check Guess=Read
 ----------------------------------------------------------------------

 TstMul:  Mul=     3
 TstMul:  ICh=     0
 TstMul:  Mul=     3
 Structure from the checkpoint file:  "MN_91_RKT17_BH76_B97DBJ_631Gs.chk"
 Charge =  0 Multiplicity = 3

                         Standard orientation:
 ---------------------------------------------------------------------
 Center     Atomic      Atomic             Coordinates (Angstroms)
 Number     Number       Type             X           Y           Z
 ---------------------------------------------------------------------
      1         17           0        0.021352   -0.866704    0.000000
      2          1           0       -0.533793    0.369861    0.000000
      3          8           0        0.021352    1.795514    0.000000
 ---------------------------------------------------------------------

 SCF Done:  E(UB97D3) =  -535.828702194     A.U. after    1 cycles

 The electronic state is 3-A".
 Alpha  occ. eigenvalues -- -100.66023 -18.91238  -9.24215  -7.07997  -7.07134
 Alpha  occ. eigenvalues --   -7.06996  -0.94559  -0.77625  -0.46508  -0.40591
 Alpha  occ. eigenvalues --   -0.38080  -0.33274  -0.29936  -0.29795
 Alpha virt. eigenvalues --    0.02269   0.34622   0.39392   0.39896   0.40773
 Alpha virt. eigenvalues --    0.60522   0.73023   0.74710   0.78053   0.78654
 Alpha virt. eigenvalues --    0.79026   0.80496   0.87676   1.02065   1.13046

  Beta  occ. eigenvalues -- -100.65866 -18.88579  -9.24137  -7.07803  -7.06952
  Beta  occ. eigenvalues --   -7.06854  -0.82371  -0.75868  -0.43795  -0.29817
  Beta  occ. eigenvalues --   -0.29387  -0.28099
  Beta virt. eigenvalues --   -0.23841  -0.23468   0.03540   0.34987   0.39688
  Beta virt. eigenvalues --    0.40365   0.41711   0.62814   0.76401   0.76473
  Beta virt. eigenvalues --    0.79692   0.79795   0.83858   0.84055   0.93092

 Mulliken charges and spin densities:
               1          2
     1  Cl  -0.204184   0.211510
     2  H    0.269495  -0.032035
     3  O   -0.065311   1.820525
 Sum of Mulliken charges =   0.00000   2.00000

 Dipole moment (field-independent basis, Debye):
    X=             -0.6997    Y=              0.8686    Z=              0.0000  Tot=              1.1154
 Quadrupole moment (field-independent basis, Debye-Ang):
   XX=            -18.4675   YY=            -18.3510   ZZ=            -18.2822
   XY=             -0.8641   XZ=              0.0000   YZ=              0.0000

  Exact polarizability:   9.672  -0.660  47.267   0.000  -0.000   8.480
 Approx polarizability:  13.617  -1.629 155.746   0.000  -0.000  11.629

 ******    1 imaginary frequencies (negative Signs) ******

                      1                      2                      3
                     A'                     A'                     A'
 Frequencies --   -275.4530               282.9875              1951.8015
 Red. masses --      2.0670                 1.7772                 1.0553
 Frc consts  --      0.0924                 0.0839                 2.3686
 IR Inten    --      6.1129                54.9229                26.9292

 - Thermochemistry -
 -------------------
 Temperature   298.150 Kelvin.  Pressure   1.00000 Atm.
 Atom     1 has atomic number 17 and mass  34.96885

 Molecular mass:    51.97159 amu.
 Principal axes and moments of inertia in atomic units:
                           1         2         3
     Eigenvalues --     1.08543 278.34081 279.42623
           X           -0.00283   1.00000   0.00000
           Y            1.00000   0.00283   0.00000
           Z            0.00000   0.00000   1.00000
 This molecule is an asymmetric top.
 Rotational symmetry number  1.
 Rotational temperatures (Kelvin)     79.79716     0.31118     0.30997
 Rotational constants (GHZ):        1662.70284     6.48393     6.45874
    1 imaginary frequencies ignored.
 Zero-point vibrational energy      13367.0 (Joules/Mol)
                                    3.19479 (Kcal/Mol)
 Warning -- explicit consideration of   1 degrees of freedom as
           vibrations may cause significant error
 Vibrational temperatures:    407.16  2808.21
          (Kelvin)

 Zero-point correction=                           0.005091 (Hartree/Particle)
 Thermal correction to Energy=                    0.008366
 Thermal correction to Enthalpy=                  0.009311
 Thermal correction to Gibbs Free Energy=        -0.019455
 Sum of electronic and zero-point Energies=           -535.823611
 Sum of electronic and thermal Energies=              -535.820336
 Sum of electronic and thermal Enthalpies=            -535.819392
 Sum of electronic and thermal Free Energies=         -535.848157

                     E (Thermal)             CV                S
                      KCal/Mol        Cal/Mol-Kelvin    Cal/Mol-Kelvin
 Total                    5.250              7.681             60.541
 Electronic               0.000              0.000              2.183
 Translational            0.889              2.981             37.767
 Rotational               0.889              2.981             19.074
 Vibrational              3.473              1.719              1.517
 Vibration     1          0.682              1.705              1.516

 Optimization completed.
    -- Stationary point found.
 Normal termination of Gaussian 16 at Wed Oct  7 14:08:39 2020.
