 Gaussian 16, Revision A.03,
 Gaussian 16:  ES64L-G16RevA.03 25-Dec-2016

 ----------------------------------------------------------------------
 #P Opt(MaxCyc=100) M062X/6-31G* 5D 7F Integral=UltraFineGrid SCF=(NoSy
 mm,XQC,MaxCyc=120) EmpiricalDispersion=GD3 IOp(1/33=1)
 ----------------------------------------------------------------------

 TstMul:  Mul=     1
 TstMul:  ICh=     0
 TstMul:  Mul=     1
 Symbolic Z-matrix:
 Charge =  0 Multiplicity = 1

 SCF Done:  E(RM062X) =  -500.041865949     A.U. after   12 cycles
 SCF Done:  E(RM062X) =  -500.041911842     A.U. after    8 cycles
 Optimization completed.
    -- Stationary point found.

                         Standard orientation:
 ---------------------------------------------------------------------
 Center     Atomic      Atomic             Coordinates (Angstroms)
 Number     Number       Type             X           Y           Z
 ---------------------------------------------------------------------
      1          6           0        0.000000    0.000000   -1.127735
      2         17           0        0.000000    0.000000    0.658373
      3          1           0        0.000000    1.031840   -1.475311
      4          1           0        0.893600   -0.515920   -1.475311
      5          1           0       -0.893600   -0.515920   -1.475311
 ---------------------------------------------------------------------

 The electronic state is 1-A1.
 Alpha  occ. eigenvalues -- -102.63222 -10.59635  -9.79636  -7.51832  -7.51137
 Alpha  occ. eigenvalues --   -7.51137  -0.94930  -0.76663  -0.52047  -0.52047
 Alpha  occ. eigenvalues --   -0.47116  -0.35776  -0.35776
 Alpha virt. eigenvalues --    0.08071   0.15525   0.19090   0.19090   0.45717
 Alpha virt. eigenvalues --    0.48915   0.50845   0.50845   0.57706   0.57706
 Alpha virt. eigenvalues --    0.61300   0.90422   0.90422   0.95263   0.96589

 Mulliken charges:
               1
     1  C   -0.571036
     2  Cl  -0.080283
     3  H    0.217106
     4  H    0.217106
     5  H    0.217106
 Sum of Mulliken charges =   0.00000

 Dipole moment (field-independent basis, Debye):
    X=             -0.0000    Y=             -0.0000    Z=             -2.0753  Tot=              2.0753
 Quadrupole moment (field-independent basis, Debye-Ang):
   XX=            -19.7893   YY=            -19.7893   ZZ=            -18.0370
   XY=             -0.0000   XZ=             -0.0000   YZ=             -0.0000

 1\1\GINC-NODE20\FOpt\RM062X\6-31G(d)\C1H3Cl1\RPEVERATI\07-Oct-2020\0\\
 #P Opt(MaxCyc=100) M062X/6-31G* 5D 7F Integral=UltraFineGrid SCF=(NoSy
 mm,XQC,MaxCyc=120) EmpiricalDispersion=GD3 IOp(1/33=1)\\TS search on B
 H76.\\0,1\C,0.,0.,-0.1486662107\Cl,0.,0.,1.6374425069\H,-0.515920206,-
 0.8936000095,-0.4962422383\H,-0.515920206,0.8936000095,-0.4962422383\H
 ,1.031840412,0.,-0.4962422383\\Version=ES64L-G16RevA.03\State=1-A1\HF=
 -500.0419118\RMSD=1.849e-09\RMSF=7.253e-05\Dipole=0.,0.,-0.8165042\Qua
 drupole=-0.4342543,-0.4342543,0.8685085,0.,0.,0.\PG=C03V [C3(C1Cl1),3S

 Normal termination of Gaussian 16 at Wed Oct  7 14:19:58 2020.
