 Gaussian 16, Revision A.03,
 Gaussian 16:  ES64L-G16RevA.03 25-Dec-2016

 ----------------------------------------------------------------------
 #P Opt(MaxCyc=100) M062X/6-31G* 5D 7F Integral=UltraFineGrid SCF=(NoSy
 mm,XQC,MaxCyc=120) EmpiricalDispersion=GD3 IOp(1/33=1)
 ----------------------------------------------------------------------

 TstMul:  Mul=     1
 TstMul:  ICh=     0
 TstMul:  Mul=     1
 Symbolic Z-matrix:
 Charge =  0 Multiplicity = 1

 SCF Done:  E(RM062X) =  -195.197163719     A.U. after   13 cycles
 SCF Done:  E(RM062X) =  -195.197267860     A.U. after    9 cycles
 SCF Done:  E(RM062X) =  -195.197269456     A.U. after    7 cycles
 Optimization completed.
    -- Stationary point found.

                         Standard orientation:
 ---------------------------------------------------------------------
 Center     Atomic      Atomic             Coordinates (Angstroms)
 Number     Number       Type             X           Y           Z
 ---------------------------------------------------------------------
      1          6           0       -2.056052   -0.611048    0.000002
      2          6           0       -1.230398    0.640747    0.000049
      3          6           0        0.106265    0.732955    0.000032
      4          6           0        1.058151   -0.375229   -0.000037
      5          6           0        2.382403   -0.198847   -0.000042
      6          1           0       -2.708922   -0.640807    0.879723
      7          1           0       -2.708961   -0.640714   -0.879694
      8          1           0       -1.450358   -1.518829   -0.000060
      9          1           0       -1.797138    1.570285    0.000105
     10          1           0        0.552622    1.726562    0.000073
     11          1           0        0.661873   -1.387892   -0.000084
     12          1           0        3.070562   -1.037183   -0.000092
     13          1           0        2.818111    0.797111    0.000004
 ---------------------------------------------------------------------

 The electronic state is 1-A.
 Alpha  occ. eigenvalues --  -10.54401 -10.54283 -10.53770 -10.53418 -10.53299
 Alpha  occ. eigenvalues --   -0.90594  -0.84783  -0.77022  -0.66964  -0.60491
 Alpha  occ. eigenvalues --   -0.54553  -0.51238  -0.47812  -0.46379  -0.44127
 Alpha  occ. eigenvalues --   -0.42681  -0.38700  -0.37214  -0.27023
 Alpha virt. eigenvalues --    0.02282   0.13614   0.14964   0.15666   0.18039
 Alpha virt. eigenvalues --    0.21162   0.22193   0.22521   0.24588   0.28040
 Alpha virt. eigenvalues --    0.29980   0.37841   0.42421   0.48642   0.52450

 Mulliken charges:
               1
     1  C   -0.528069
     2  C   -0.148694
     3  C   -0.142250
     4  C   -0.092352
     5  C   -0.389829
     6  H    0.177271
     7  H    0.177271
     8  H    0.170172
     9  H    0.153130
    10  H    0.148262
    11  H    0.153325
    12  H    0.162603
    13  H    0.159158
 Sum of Mulliken charges =  -0.00000

 Dipole moment (field-independent basis, Debye):
    X=             -0.4532    Y=             -0.1335    Z=              0.0000  Tot=              0.4725
 Quadrupole moment (field-independent basis, Debye-Ang):
   XX=            -28.6650   YY=            -29.4323   ZZ=            -34.4603
   XY=              0.0530   XZ=             -0.0001   YZ=              0.0003

 Normal termination of Gaussian 16 at Wed Oct  7 14:20:44 2020.
