 Gaussian 16, Revision A.03,
 Gaussian 16:  ES64L-G16RevA.03 25-Dec-2016

 ----------------------------------------------------------------------
 #P Opt(MaxCyc=100) M062X/6-31G* 5D 7F Integral=UltraFineGrid SCF=(NoSy
 mm,XQC,MaxCyc=120) EmpiricalDispersion=GD3 IOp(1/33=1)
 ----------------------------------------------------------------------

 TstMul:  Mul=     2
 TstMul:  ICh=     0
 TstMul:  Mul=     2
 Symbolic Z-matrix:
 Charge =  0 Multiplicity = 2

 SCF Done:  E(UM062X) =  -118.391202527     A.U. after   15 cycles
 SCF Done:  E(UM062X) =  -118.391300681     A.U. after   13 cycles
 SCF Done:  E(UM062X) =  -118.391311489     A.U. after   10 cycles
 SCF Done:  E(UM062X) =  -118.391312625     A.U. after    9 cycles
 Optimization completed.
    -- Stationary point found.

                         Standard orientation:
 ---------------------------------------------------------------------
 Center     Atomic      Atomic             Coordinates (Angstroms)
 Number     Number       Type             X           Y           Z
 ---------------------------------------------------------------------
      1          6           0        1.203256   -0.289212    0.000060
      2          6           0       -0.066525    0.581762   -0.000060
      3          6           0       -1.315963   -0.232560   -0.000016
      4          1           0        1.229293   -0.933544    0.884040
      5          1           0        1.229325   -0.933735   -0.883780
      6          1           0        2.106571    0.329002    0.000008
      7          1           0       -0.045608    1.236175   -0.879630
      8          1           0       -0.045666    1.236363    0.879367
      9          1           0       -1.699449   -0.646790    0.925250
     10          1           0       -1.699078   -0.647410   -0.925161
 ---------------------------------------------------------------------

 The electronic state is 2-A.
 Alpha  occ. eigenvalues --  -10.53760 -10.53575 -10.52588  -0.87747  -0.76080
 Alpha  occ. eigenvalues --   -0.66055  -0.53411  -0.49436  -0.45721  -0.44024
 Alpha  occ. eigenvalues --   -0.40808  -0.39085  -0.25025
 Alpha virt. eigenvalues --    0.14980   0.19075   0.19102   0.20777   0.22777
 Alpha virt. eigenvalues --    0.22822   0.26793   0.27620   0.31813   0.56319
 Alpha virt. eigenvalues --    0.58231   0.58551   0.60337   0.64308   0.65247

  Beta  occ. eigenvalues --  -10.53643 -10.53026 -10.52484  -0.86546  -0.73842
  Beta  occ. eigenvalues --   -0.64396  -0.52718  -0.48689  -0.45072  -0.42465
  Beta  occ. eigenvalues --   -0.40133  -0.38875
  Beta virt. eigenvalues --    0.01841   0.15266   0.19410   0.20265   0.20804
  Beta virt. eigenvalues --    0.22908   0.23136   0.27402   0.28007   0.33069
  Beta virt. eigenvalues --    0.56757   0.58495   0.60050   0.62631   0.65549

 Mulliken charges and spin densities:
               1          2
     1  C   -0.473989   0.047283
     2  C   -0.319810  -0.076288
     3  C   -0.315789   1.116360
     4  H    0.159061  -0.001423
     5  H    0.159059  -0.001424
     6  H    0.158727   0.011959
     7  H    0.160474   0.009259
     8  H    0.160471   0.009239
     9  H    0.155901  -0.057483
    10  H    0.155895  -0.057482
 Sum of Mulliken charges =  -0.00000   1.00000

 Dipole moment (field-independent basis, Debye):
    X=              0.2205    Y=             -0.0622    Z=              0.0001  Tot=              0.2291
 Quadrupole moment (field-independent basis, Debye-Ang):
   XX=            -21.6951   YY=            -21.1274   ZZ=            -19.9667
   XY=              0.8261   XZ=             -0.0005   YZ=              0.0004

 1\1\GINC-NODE52\FOpt\UM062X\6-31G(d)\C3H7(2)\RPEVERATI\07-Oct-2020\0\\
 #P Opt(MaxCyc=100) M062X/6-31G* 5D 7F Integral=UltraFineGrid SCF=(NoSy
 mm,XQC,MaxCyc=120) EmpiricalDispersion=GD3 IOp(1/33=1)\\TS search on B
 H76.\\0,2\C,1.1986882101,-0.2873673571,0.0000583376\C,-0.0683980084,0.
 5875227443,-0.0000622519\C,-1.3203440543,-0.2229376662,-0.0000183244\H
 ,1.2227353801,-0.9317764425,0.8840381174\H,1.2227672979,-0.9319674199,
 -0.8837820626\H,2.1039068155,0.328055608,0.0000059586\H,-0.0454606833,
 1.2418678844,-0.8796319931\H,-0.0455183977,1.2420561307,0.8793646302\H

 Normal termination of Gaussian 16 at Wed Oct  7 14:20:54 2020.
