 Gaussian 16, Revision A.03,

 ----------------------------------------------------------------------
 #P Opt(TS,MaxCyc=50,NoEigenTest,MaxStep=10,AddRedundant) M062X/6-31G*
 5D 7F Integral=UltraFineGrid SCF=(NoSymm,XQC,MaxCyc=120) EmpiricalDisp
 ersion=GD3 IOp(1/33=1)
 ----------------------------------------------------------------------

 TstMul:  Mul=     2
 TstMul:  ICh=     0
 TstMul:  Mul=     2
 Symbolic Z-matrix:
 Charge =  0 Multiplicity = 2

 SCF Done:  E(UM062X) =  -79.0284701666     A.U. after   18 cycles
 SCF Done:  E(UM062X) =  -79.0285384991     A.U. after   11 cycles
 SCF Done:  E(UM062X) =  -79.0285464745     A.U. after   11 cycles
 SCF Done:  E(UM062X) =  -79.0285416399     A.U. after   15 cycles
 SCF Done:  E(UM062X) =  -79.0285426321     A.U. after   10 cycles
 Optimization completed.
    -- Stationary point found.
 Normal termination of Gaussian 16 at Wed Oct  7 14:20:18 2020.
 Gaussian 16:  ES64L-G16RevA.03 25-Dec-2016

 ----------------------------------------------------------------------
 #P Freq M062X/6-31G* 5D 7F Integral=UltraFineGrid SCF=(NoSymm,XQC,MaxC
 yc=120) EmpiricalDispersion=GD3 IOp(1/33=1) Geom=Check Guess=Read
 ----------------------------------------------------------------------

 TstMul:  Mul=     2
 TstMul:  ICh=     0
 TstMul:  Mul=     2
 Structure from the checkpoint file:  "MN_13_c2h5ts_BH76_M062XD30_631Gs.chk"
 Charge =  0 Multiplicity = 2

                         Standard orientation:
 ---------------------------------------------------------------------
 Center     Atomic      Atomic             Coordinates (Angstroms)
 Number     Number       Type             X           Y           Z
 ---------------------------------------------------------------------
      1          6           0       -0.565611    0.000723   -0.220233
      2          6           0        0.748854   -0.000163    0.043785
      3          1           0       -1.494828   -0.004823    1.534958
      4          1           0       -1.104291    0.924773   -0.407081
      5          1           0       -1.104699   -0.922134   -0.411708
      6          1           0        1.302153   -0.925368    0.168333
      7          1           0        1.302208    0.924188    0.174185
 ---------------------------------------------------------------------

 SCF Done:  E(UM062X) =  -79.0285426321     A.U. after    1 cycles

 The electronic state is 2-A.
 Alpha  occ. eigenvalues --  -10.54977 -10.54484  -0.86043  -0.66821  -0.54251
 Alpha  occ. eigenvalues --   -0.48637  -0.42117  -0.38838  -0.27404
 Alpha virt. eigenvalues --    0.06452   0.16501   0.18525   0.20419   0.29084
 Alpha virt. eigenvalues --    0.36369   0.51913   0.60447   0.61254   0.66370
 Alpha virt. eigenvalues --    0.73290   0.81534   0.82884   0.90831   0.93571

  Beta  occ. eigenvalues --  -10.55026 -10.54305  -0.85594  -0.66357  -0.54006
  Beta  occ. eigenvalues --   -0.48258  -0.41955  -0.33723
  Beta virt. eigenvalues --   -0.03561   0.07622   0.16513   0.18554   0.20411
  Beta virt. eigenvalues --    0.29061   0.36441   0.51997   0.60544   0.62228
  Beta virt. eigenvalues --    0.65768   0.73755   0.77528   0.82514   0.90980

 Mulliken charges and spin densities:
               1          2
     1  C   -0.355544  -0.157458
     2  C   -0.304783   0.297548
     3  H   -0.041514   0.875227
     4  H    0.182608   0.007176
     5  H    0.182624   0.007163
     6  H    0.168303  -0.014828
     7  H    0.168306  -0.014828
 Sum of Mulliken charges =  -0.00000   1.00000

 Dipole moment (field-independent basis, Debye):
    X=              0.3249    Y=              0.0014    Z=             -0.4667  Tot=              0.5687
 Quadrupole moment (field-independent basis, Debye-Ang):
   XX=            -13.9016   YY=            -13.2721   ZZ=            -16.8226
   XY=             -0.0040   XZ=              1.4333   YZ=              0.0100

  Exact polarizability:  36.276   0.010  20.608  -3.071   0.004  18.182
 Approx polarizability:  41.469   0.009  21.176  -2.517   0.002  19.075

 ******    1 imaginary frequencies (negative Signs) ******

                      1                      2                      3
                      A                      A                      A
 Frequencies --   -705.1644               374.9032               413.1611
 Red. masses --      1.1524                 1.1850                 1.0436
 Frc consts  --      0.3376                 0.0981                 0.1050
 IR Inten    --     14.6472                 2.0316                 0.1954

                      4                      5                      6
                      A                      A                      A
 Frequencies --    827.4751               960.6308              1013.7623
 Red. masses --      1.0417                 1.3690                 1.1466
 Frc consts  --      0.4202                 0.7443                 0.6943
 IR Inten    --      0.7489                44.2455                41.4145

                      7                      8                      9
                      A                      A                      A
 Frequencies --   1063.6012              1243.9954              1376.4916
 Red. masses --      1.0129                 1.5047                 1.2985
 Frc consts  --      0.6751                 1.3720                 1.4496
 IR Inten    --      0.0676                 0.0008                 0.3003

                     10                     11                     12
                      A                      A                      A
 Frequencies --   1487.6977              1687.3211              3191.9642
 Red. masses --      1.1130                 2.6577                 1.0482
 Frc consts  --      1.4513                 4.4582                 6.2921
 IR Inten    --      7.0020                 1.3575                 6.1268

                     13                     14                     15
                      A                      A                      A
 Frequencies --   3203.6181              3271.7783              3295.0171
 Red. masses --      1.0695                 1.1166                 1.1182
 Frc consts  --      6.4672                 7.0424                 7.1527
 IR Inten    --      1.8280                 0.0000                16.2072

 - Thermochemistry -
 -------------------
 Temperature   298.150 Kelvin.  Pressure   1.00000 Atm.
 Atom     1 has atomic number  6 and mass  12.00000

 Molecular mass:    29.03913 amu.
 Principal axes and moments of inertia in atomic units:
                           1         2         3
     Eigenvalues --    23.99509  78.54465  79.13797
           X            0.99799   0.00047  -0.06334
           Y           -0.00022   0.99999   0.00397
           Z            0.06335  -0.00395   0.99798
 This molecule is an asymmetric top.
 Rotational symmetry number  1.
 Rotational temperatures (Kelvin)      3.60965     1.10273     1.09447
 Rotational constants (GHZ):          75.21293    22.97726    22.80500
    1 imaginary frequencies ignored.
 Zero-point vibrational energy     140031.4 (Joules/Mol)
                                   33.46830 (Kcal/Mol)
 Warning -- explicit consideration of   2 degrees of freedom as
           vibrations may cause significant error
 Vibrational temperatures:    539.40   594.45  1190.55  1382.13  1458.58
          (Kelvin)           1530.28  1789.83  1980.46  2140.47  2427.68
                             4592.52  4609.29  4707.36  4740.79

 Zero-point correction=                           0.053335 (Hartree/Particle)
 Thermal correction to Energy=                    0.057006
 Thermal correction to Enthalpy=                  0.057950
 Thermal correction to Gibbs Free Energy=         0.029655
 Sum of electronic and zero-point Energies=            -78.975207
 Sum of electronic and thermal Energies=               -78.971537
 Sum of electronic and thermal Enthalpies=             -78.970592
 Sum of electronic and thermal Free Energies=          -78.998888

                     E (Thermal)             CV                S
                      KCal/Mol        Cal/Mol-Kelvin    Cal/Mol-Kelvin
 Total                   35.772             11.040             59.553
 Electronic               0.000              0.000              1.377
 Translational            0.889              2.981             36.032
 Rotational               0.889              2.981             19.639
 Vibrational             33.994              5.078              2.504
 Vibration     1          0.746              1.524              1.060
 Vibration     2          0.777              1.442              0.916

                           ! Non-Optimized Parameters !

 1\1\GINC-NODE38\Freq\UM062X\6-31G(d)\C2H5(2)\RPEVERATI\07-Oct-2020\0\\
 #P Freq M062X/6-31G* 5D 7F Integral=UltraFineGrid SCF=(NoSymm,XQC,MaxC
 yc=120) EmpiricalDispersion=GD3 IOp(1/33=1) Geom=Check Guess=Read\\TS
 search on BH76.\\0,2\C,-0.5653117911,0.000173807,-0.2202137493\C,0.748
 914832,0.0000388197,0.0449921775\H,-1.4961124285,-0.0007248111,1.53414
 5501\H,-1.1038530935,0.9237029986,-0.4100119055\H,-1.1041959186,-0.923
 2099195,-0.4097138486\H,1.3021316308,-0.9248110381,0.1725066693\H,1.30
 21193859,0.9247540259,0.173425534\\Version=ES64L-G16RevA.03\State=2-A\

 Normal termination of Gaussian 16 at Wed Oct  7 14:20:54 2020.
