 Gaussian 16, Revision A.03,
 Gaussian 16:  ES64L-G16RevA.03 25-Dec-2016

 ----------------------------------------------------------------------
 #P Opt(MaxCyc=100) M062X/6-31G* 5D 7F Integral=UltraFineGrid SCF=(NoSy
 mm,XQC,MaxCyc=120) EmpiricalDispersion=GD3 IOp(1/33=1)
 ----------------------------------------------------------------------

 TstMul:  Mul=     1
 TstMul:  ICh=     0
 TstMul:  Mul=     1
 Symbolic Z-matrix:
 Charge =  0 Multiplicity = 1

 SCF Done:  E(RM062X) =  -79.7709315860     A.U. after   10 cycles
 SCF Done:  E(RM062X) =  -79.7709817200     A.U. after    7 cycles
 Optimization completed.
    -- Stationary point found.

                         Standard orientation:
 ---------------------------------------------------------------------
 Center     Atomic      Atomic             Coordinates (Angstroms)
 Number     Number       Type             X           Y           Z
 ---------------------------------------------------------------------
      1          6           0       -0.763338    0.000002   -0.000001
      2          6           0        0.763338   -0.000002    0.000001
      3          1           0        1.159245    0.483005   -0.898118
      4          1           0       -1.159225   -0.535584   -0.867799
      5          1           0        1.159202   -1.019320    0.030771
      6          1           0        1.159225    0.536295    0.867360
      7          1           0       -1.159246   -0.483740    0.897722
      8          1           0       -1.159202    1.019344   -0.029936
 ---------------------------------------------------------------------

 The electronic state is 1-A.
 Alpha  occ. eigenvalues --  -10.52321 -10.52292  -0.84469  -0.69665  -0.49904
 Alpha  occ. eigenvalues --   -0.49904  -0.42334  -0.40006  -0.40006
 Alpha virt. eigenvalues --    0.15079   0.20664   0.21263   0.21263   0.23673
 Alpha virt. eigenvalues --    0.23674   0.28806   0.56095   0.58884   0.58885
 Alpha virt. eigenvalues --    0.68607   0.68608   0.73480   0.95110   0.95110

 Mulliken charges:
               1
     1  C   -0.481252
     2  C   -0.481252
     3  H    0.160417
     4  H    0.160417
     5  H    0.160418
     6  H    0.160417
     7  H    0.160417
     8  H    0.160418
 Sum of Mulliken charges =  -0.00000

 Dipole moment (field-independent basis, Debye):
    X=             -0.0000    Y=              0.0000    Z=             -0.0000  Tot=              0.0000
 Quadrupole moment (field-independent basis, Debye-Ang):
   XX=            -15.2854   YY=            -14.7418   ZZ=            -14.7419
   XY=              0.0001   XZ=             -0.0000   YZ=              0.0000

 Normal termination of Gaussian 16 at Wed Oct  7 14:19:36 2020.
