 Gaussian 16, Revision A.03,
 Gaussian 16:  ES64L-G16RevA.03 25-Dec-2016

 ----------------------------------------------------------------------
 #P Opt(MaxCyc=100) M062X/6-31G* 5D 7F Integral=UltraFineGrid SCF=(NoSy
 mm,XQC,MaxCyc=120) EmpiricalDispersion=GD3 IOp(1/33=1)
 ----------------------------------------------------------------------

 TstMul:  Mul=     2
 TstMul:  ICh=     0
 TstMul:  Mul=     2
 Symbolic Z-matrix:
 Charge =  0 Multiplicity = 2

 SCF Done:  E(UM062X) =  -79.0994799989     A.U. after   14 cycles
 SCF Done:  E(UM062X) =  -79.0995573472     A.U. after   13 cycles
 SCF Done:  E(UM062X) =  -79.0995651600     A.U. after   10 cycles
 SCF Done:  E(UM062X) =  -79.0995658141     A.U. after    9 cycles
 Optimization completed.
    -- Stationary point found.

                         Standard orientation:
 ---------------------------------------------------------------------
 Center     Atomic      Atomic             Coordinates (Angstroms)
 Number     Number       Type             X           Y           Z
 ---------------------------------------------------------------------
      1          6           0       -0.014722   -0.693645    0.000000
      2          6           0       -0.014722    0.795107   -0.000000
      3          1           0        1.005956   -1.108121    0.000000
      4          1           0       -0.516637   -1.096086    0.885567
      5          1           0       -0.516637   -1.096086   -0.885567
      6          1           0        0.101993    1.345759   -0.925026
      7          1           0        0.101993    1.345759    0.925026
 ---------------------------------------------------------------------

 The electronic state is 2-A'.
 Alpha  occ. eigenvalues --  -10.53814 -10.52974  -0.84720  -0.68852  -0.51749
 Alpha  occ. eigenvalues --   -0.47619  -0.44938  -0.41523  -0.24905
 Alpha virt. eigenvalues --    0.16434   0.19359   0.19691   0.22781   0.26700
 Alpha virt. eigenvalues --    0.30358   0.56115   0.58435   0.60439   0.66524
 Alpha virt. eigenvalues --    0.67510   0.78538   0.84771   0.93948   0.94204

  Beta  occ. eigenvalues --  -10.53082 -10.53034  -0.82701  -0.65928  -0.50729
  Beta  occ. eigenvalues --   -0.45718  -0.43870  -0.41052
  Beta virt. eigenvalues --    0.02296   0.16522   0.20140   0.20277   0.23076
  Beta virt. eigenvalues --    0.27346   0.31635   0.56298   0.58591   0.64272
  Beta virt. eigenvalues --    0.68213   0.69802   0.78906   0.87468   0.94447

 Mulliken charges and spin densities:
               1          2
     1  C   -0.506877  -0.082111
     2  C   -0.318372   1.118303
     3  H    0.169623   0.055576
     4  H    0.169952   0.012210
     5  H    0.169952   0.012210
     6  H    0.157861  -0.058094
     7  H    0.157861  -0.058094
 Sum of Mulliken charges =   0.00000   1.00000

 Dipole moment (field-independent basis, Debye):
    X=              0.1657    Y=             -0.1789    Z=             -0.0000  Tot=              0.2439
 Quadrupole moment (field-independent basis, Debye-Ang):
   XX=            -14.9628   YY=            -14.0287   ZZ=            -13.4601
   XY=              0.2571   XZ=              0.0000   YZ=              0.0000

 1\1\GINC-NODE37\FOpt\UM062X\6-31G(d)\C2H5(2)\RPEVERATI\07-Oct-2020\0\\
 #P Opt(MaxCyc=100) M062X/6-31G* 5D 7F Integral=UltraFineGrid SCF=(NoSy
 mm,XQC,MaxCyc=120) EmpiricalDispersion=GD3 IOp(1/33=1)\\TS search on B
 H76.\\0,2\C,-0.0128243472,-0.6925201522,0.\C,-0.0315666182,0.796114200
 6,0.\H,1.0129907179,-1.0941140996,0.\H,-0.5096326462,-1.1012477299,0.8
 85567312\H,-0.5096326462,-1.1012477299,-0.885567312\H,0.0782076804,1.3
 481913493,-0.9250256314\H,0.0782076804,1.3481913493,0.9250256314\\Vers
 ion=ES64L-G16RevA.03\State=2-A'\HF=-79.0995658\S2=0.754942\S2-1=0.\S2A

 Normal termination of Gaussian 16 at Wed Oct  7 14:19:53 2020.
