 Gaussian 16, Revision A.03,

 ----------------------------------------------------------------------
 #P Opt(TS,MaxCyc=50,NoEigenTest,MaxStep=10,AddRedundant) M062X/6-31G*
 5D 7F Integral=UltraFineGrid SCF=(NoSymm,XQC,MaxCyc=120) EmpiricalDisp
 ersion=GD3 IOp(1/33=1)
 ----------------------------------------------------------------------

 TstMul:  Mul=     2
 TstMul:  ICh=     0
 TstMul:  Mul=     2
 Symbolic Z-matrix:
 Charge =  0 Multiplicity = 2

 SCF Done:  E(UM062X) =  -118.332167473     A.U. after   21 cycles
 SCF Done:  E(UM062X) =  -118.332351316     A.U. after   17 cycles
 SCF Done:  E(UM062X) =  -118.332247440     A.U. after   17 cycles
 SCF Done:  E(UM062X) =  -118.332266750     A.U. after   12 cycles
 SCF Done:  E(UM062X) =  -118.332271317     A.U. after   11 cycles
 SCF Done:  E(UM062X) =  -118.332272083     A.U. after    8 cycles
 SCF Done:  E(UM062X) =  -118.332272599     A.U. after   10 cycles
 SCF Done:  E(UM062X) =  -118.332272769     A.U. after   10 cycles
 SCF Done:  E(UM062X) =  -118.332273161     A.U. after   10 cycles
 SCF Done:  E(UM062X) =  -118.332273307     A.U. after   10 cycles
 SCF Done:  E(UM062X) =  -118.332273377     A.U. after   10 cycles
 Optimization completed.
    -- Stationary point found.
 Normal termination of Gaussian 16 at Wed Oct  7 14:22:48 2020.
 Gaussian 16:  ES64L-G16RevA.03 25-Dec-2016

 ----------------------------------------------------------------------
 #P Freq M062X/6-31G* 5D 7F Integral=UltraFineGrid SCF=(NoSymm,XQC,MaxC
 yc=120) EmpiricalDispersion=GD3 IOp(1/33=1) Geom=Check Guess=Read
 ----------------------------------------------------------------------

 TstMul:  Mul=     2
 TstMul:  ICh=     0
 TstMul:  Mul=     2
 Structure from the checkpoint file:  "MN_17_c3h7ts_BH76_M062XD30_631Gs.chk"
 Charge =  0 Multiplicity = 2

                         Standard orientation:
 ---------------------------------------------------------------------
 Center     Atomic      Atomic             Coordinates (Angstroms)
 Number     Number       Type             X           Y           Z
 ---------------------------------------------------------------------
      1          6           0       -0.479033    0.641637    0.000003
      2          6           0       -1.386521   -0.362258   -0.000001
      3          1           0       -0.230597    1.161612   -0.920313
      4          1           0       -0.230585    1.161596    0.920325
      5          1           0       -1.741690   -0.805777    0.924367
      6          1           0       -1.741701   -0.805761   -0.924372
      7          6           0        1.619673   -0.239114   -0.000002
      8          1           0        2.216644    0.666451   -0.000088
      9          1           0        1.601574   -0.809921   -0.920184
     10          1           0        1.601644   -0.809790    0.920263
 ---------------------------------------------------------------------

 SCF Done:  E(UM062X) =  -118.332273377     A.U. after    1 cycles

 The electronic state is 2-A.
 Alpha  occ. eigenvalues --  -10.54096 -10.53794 -10.52851  -0.84927  -0.76392
 Alpha  occ. eigenvalues --   -0.65461  -0.53192  -0.48258  -0.47072  -0.46185
 Alpha  occ. eigenvalues --   -0.40907  -0.35758  -0.22529
 Alpha virt. eigenvalues --    0.08616   0.14860   0.19153   0.19204   0.22092
 Alpha virt. eigenvalues --    0.22890   0.23071   0.29503   0.37217   0.50826
 Alpha virt. eigenvalues --    0.57428   0.58690   0.60881   0.64939   0.65084

  Beta  occ. eigenvalues --  -10.54215 -10.53120 -10.52580  -0.84265  -0.72942
  Beta  occ. eigenvalues --   -0.64830  -0.52867  -0.47471  -0.45864  -0.45305
  Beta  occ. eigenvalues --   -0.40673  -0.31954
  Beta virt. eigenvalues --   -0.00364   0.11690   0.15288   0.19296   0.19567
  Beta virt. eigenvalues --    0.22231   0.23925   0.24094   0.29658   0.37439
  Beta virt. eigenvalues --    0.51405   0.57917   0.60433   0.63227   0.65420

 Mulliken charges and spin densities:
               1          2
     1  C   -0.323539  -0.222526
     2  C   -0.325587   0.444193
     3  H    0.170381   0.014235
     4  H    0.170382   0.014235
     5  H    0.155647  -0.022179
     6  H    0.155647  -0.022179
     7  C   -0.501521   0.912939
     8  H    0.162116  -0.036836
     9  H    0.168238  -0.040941
    10  H    0.168237  -0.040941
 Sum of Mulliken charges =   0.00000   1.00000

 Dipole moment (field-independent basis, Debye):
    X=              0.3294    Y=              0.0452    Z=              0.0000  Tot=              0.3325
 Quadrupole moment (field-independent basis, Debye-Ang):
   XX=            -22.0186   YY=            -20.5452   ZZ=            -19.3871
   XY=              1.4435   XZ=              0.0000   YZ=             -0.0000

  Exact polarizability:  51.519   7.418  31.595   0.000  -0.000  31.260
 Approx polarizability:  51.858  10.197  35.515   0.000  -0.000  33.424

 ******    1 imaginary frequencies (negative Signs) ******

                      1                      2                      3
                      A                      A                      A
 Frequencies --   -578.9495                95.5641               227.7234
 Red. masses --     10.4424                 1.0892                 2.4520
 Frc consts  --      2.0622                 0.0059                 0.0749
 IR Inten    --      1.8445                 0.0033                 0.4238

                      4                      5                      6
                      A                      A                      A
 Frequencies --    372.7747               506.2247               544.4554
 Red. masses --      1.0596                 1.1366                 1.1086
 Frc consts  --      0.0867                 0.1716                 0.1936
 IR Inten    --      0.1357                 1.3417                 0.7719

                      7                      8                      9
                      A                      A                      A
 Frequencies --    820.8809               823.5884               891.1022
 Red. masses --      1.0435                 1.0875                 1.3114
 Frc consts  --      0.4143                 0.4346                 0.6135
 IR Inten    --      0.6579                 3.5494                50.5499

                     10                     11                     12
                      A                      A                      A
 Frequencies --    973.8076              1045.5475              1245.8341
 Red. masses --      1.2193                 1.0312                 1.4726
 Frc consts  --      0.6813                 0.6641                 1.3466
 IR Inten    --     31.9140                 0.0930                 0.0498

                     13                     14                     15
                      A                      A                      A
 Frequencies --   1332.3559              1455.0410              1461.3193
 Red. masses --      1.5218                 1.0918                 1.0913
 Frc consts  --      1.5916                 1.3619                 1.3731
 IR Inten    --      0.4507                 1.9761                 1.7130

                     16                     17                     18
                      A                      A                      A
 Frequencies --   1485.4966              1628.3063              3149.4380
 Red. masses --      1.1135                 2.0021                 1.0130
 Frc consts  --      1.4477                 3.1275                 5.9203
 IR Inten    --      4.4976                 0.0974                 2.3481

                     19                     20                     21
                      A                      A                      A
 Frequencies --   3185.3822              3198.9545              3264.0871
 Red. masses --      1.0519                 1.0614                 1.1164
 Frc consts  --      6.2885                 6.3992                 7.0081
 IR Inten    --      7.9743                 4.6436                 0.6731

                     22                     23                     24
                      A                      A                      A
 Frequencies --   3291.0504              3307.2335              3318.3285
 Red. masses --      1.1180                 1.1153                 1.1156
 Frc consts  --      7.1342                 7.1876                 7.2378
 IR Inten    --     20.0523                 9.5264                10.8842

 - Thermochemistry -
 -------------------
 Temperature   298.150 Kelvin.  Pressure   1.00000 Atm.
 Atom     1 has atomic number  6 and mass  12.00000

 Molecular mass:    43.05478 amu.
 Principal axes and moments of inertia in atomic units:
                           1         2         3
     Eigenvalues --    64.68297 281.23943 309.23762
           X            0.99982   0.01875   0.00000
           Y           -0.01875   0.99982  -0.00000
           Z           -0.00000   0.00000   1.00000
 This molecule is an asymmetric top.
 Rotational symmetry number  1.
 Rotational temperatures (Kelvin)      1.33905     0.30797     0.28009
 Rotational constants (GHZ):          27.90133     6.41710     5.83610
    1 imaginary frequencies ignored.
 Zero-point vibrational energy     225044.5 (Joules/Mol)
                                   53.78692 (Kcal/Mol)
 Warning -- explicit consideration of   5 degrees of freedom as
           vibrations may cause significant error
 Vibrational temperatures:    137.50   327.64   536.34   728.34   783.35
          (Kelvin)           1181.06  1184.96  1282.10  1401.09  1504.31
                             1792.48  1916.96  2093.48  2102.51  2137.30
                             2342.77  4531.34  4583.05  4602.58  4696.29
                             4735.09  4758.37  4774.33

 Zero-point correction=                           0.085715 (Hartree/Particle)
 Thermal correction to Energy=                    0.090874
 Thermal correction to Enthalpy=                  0.091818
 Thermal correction to Gibbs Free Energy=         0.058394
 Sum of electronic and zero-point Energies=           -118.246558
 Sum of electronic and thermal Energies=              -118.241399
 Sum of electronic and thermal Enthalpies=            -118.240455
 Sum of electronic and thermal Free Energies=         -118.273880

                     E (Thermal)             CV                S
                      KCal/Mol        Cal/Mol-Kelvin    Cal/Mol-Kelvin
 Total                   57.024             16.717             70.348
 Electronic               0.000              0.000              1.377
 Translational            0.889              2.981             37.206
 Rotational               0.889              2.981             23.246
 Vibrational             55.247             10.756              8.518
 Vibration     1          0.603              1.952              3.543
 Vibration     2          0.651              1.799              1.897
 Vibration     3          0.744              1.528              1.068
 Vibration     4          0.861              1.236              0.643
 Vibration     5          0.900              1.152              0.556

 Optimization completed.
    -- Stationary point found.

 1\1\GINC-NODE54\Freq\UM062X\6-31G(d)\C3H7(2)\RPEVERATI\07-Oct-2020\0\\
 #P Freq M062X/6-31G* 5D 7F Integral=UltraFineGrid SCF=(NoSymm,XQC,MaxC
 yc=120) EmpiricalDispersion=GD3 IOp(1/33=1) Geom=Check Guess=Read\\TS
 search on BH76.\\0,2\C,-0.4814637285,0.6410601715,-0.0002304362\C,-1.3
 876510417,-0.3640102994,0.0001698669\H,-0.2337227248,1.161005472,-0.92
 07505039\H,-0.2336688942,1.1616916577,0.9198871095\H,-1.7422240892,-0.
 8076365129,0.9247145287\H,-1.742276777,-0.808324916,-0.924023936\C,1.6
 183808802,-0.2369713352,0.0000522185\H,2.2141788767,0.6693670552,-0.00

 Normal termination of Gaussian 16 at Wed Oct  7 14:23:53 2020.
