 Gaussian 16, Revision A.03,
 Gaussian 16:  ES64L-G16RevA.03 25-Dec-2016

 ----------------------------------------------------------------------
 #P Opt(MaxCyc=100) M062X/6-31G* 5D 7F Integral=UltraFineGrid SCF=(NoSy
 mm,XQC,MaxCyc=120) EmpiricalDispersion=GD3 IOp(1/33=1)
 ----------------------------------------------------------------------

 TstMul:  Mul=     2
 TstMul:  ICh=     0
 TstMul:  Mul=     2
 Symbolic Z-matrix:
 Charge =  0 Multiplicity = 2

 SCF Done:  E(UM062X) =  -79.0994909541     A.U. after   14 cycles
 SCF Done:  E(UM062X) =  -79.0995579974     A.U. after   10 cycles
 SCF Done:  E(UM062X) =  -79.0995647779     A.U. after   10 cycles
 SCF Done:  E(UM062X) =  -79.0995655597     A.U. after    9 cycles
 Optimization completed.
    -- Stationary point found.

                         Standard orientation:
 ---------------------------------------------------------------------
 Center     Atomic      Atomic             Coordinates (Angstroms)
 Number     Number       Type             X           Y           Z
 ---------------------------------------------------------------------
      1          6           0        0.794566   -0.000001   -0.032909
      2          6           0       -0.693802    0.000131    0.001176
      3          1           0       -1.107331    0.890790   -0.482228
      4          1           0        1.347384   -0.925282    0.071055
      5          1           0       -1.084885   -0.010827    1.030976
      6          1           0       -1.107867   -0.880246   -0.500589
      7          1           0        1.348115    0.924785    0.071183
 ---------------------------------------------------------------------

 The electronic state is 2-A.
 Alpha  occ. eigenvalues --  -10.53815 -10.52974  -0.84720  -0.68852  -0.51749
 Alpha  occ. eigenvalues --   -0.47619  -0.44938  -0.41523  -0.24905
 Alpha virt. eigenvalues --    0.16434   0.19357   0.19693   0.22781   0.26700
 Alpha virt. eigenvalues --    0.30358   0.56115   0.58435   0.60439   0.66525
 Alpha virt. eigenvalues --    0.67510   0.78538   0.84771   0.93948   0.94204

  Beta  occ. eigenvalues --  -10.53082 -10.53034  -0.82701  -0.65928  -0.50728
  Beta  occ. eigenvalues --   -0.45718  -0.43870  -0.41052
  Beta virt. eigenvalues --    0.02296   0.16522   0.20133   0.20284   0.23077
  Beta virt. eigenvalues --    0.27347   0.31635   0.56298   0.58591   0.64272
  Beta virt. eigenvalues --    0.68214   0.69802   0.78907   0.87467   0.94447

 Mulliken charges and spin densities:
               1          2
     1  C   -0.318375   1.118306
     2  C   -0.506876  -0.082114
     3  H    0.169915   0.011784
     4  H    0.157793  -0.058086
     5  H    0.169625   0.055568
     6  H    0.169985   0.012645
     7  H    0.157932  -0.058103
 Sum of Mulliken charges =  -0.00000   1.00000

 Dipole moment (field-independent basis, Debye):
    X=             -0.1751    Y=             -0.0002    Z=              0.1696  Tot=              0.2438
 Quadrupole moment (field-independent basis, Debye-Ang):
   XX=            -14.0174   YY=            -13.4601   ZZ=            -14.9741
   XY=              0.0008   XZ=              0.2352   YZ=              0.0002

 1\1\GINC-NODE61\FOpt\UM062X\6-31G(d)\C2H5(2)\RPEVERATI\07-Oct-2020\0\\
 #P Opt(MaxCyc=100) M062X/6-31G* 5D 7F Integral=UltraFineGrid SCF=(NoSy
 mm,XQC,MaxCyc=120) EmpiricalDispersion=GD3 IOp(1/33=1)\\TS search on B
 H76.\\0,2\C,0.7954238831,0.0000566953,-0.0427998309\C,-0.6927915318,0.
 0001293268,-0.0026160958\H,-1.108295988,0.8915414403,-0.4829274261\H,1
 .3486616164,-0.9253834764,0.0574498089\H,-1.07965114,-0.0124408736,1.0
 287601698\H,-1.1089117964,-0.8794631493,-0.5040563065\H,1.3493978204,0
 .9246806463,0.0604685824\\Version=ES64L-G16RevA.03\State=2-A\HF=-79.09

 Normal termination of Gaussian 16 at Wed Oct  7 14:20:11 2020.
