 Gaussian 16, Revision A.03,
 Gaussian 16:  ES64L-G16RevA.03 25-Dec-2016

 ----------------------------------------------------------------------
 #P Opt(MaxCyc=100) M062X/6-31G* 5D 7F Integral=UltraFineGrid SCF=(NoSy
 mm,XQC,MaxCyc=120) EmpiricalDispersion=GD3 IOp(1/33=1)
 ----------------------------------------------------------------------

 TstMul:  Mul=     1
 TstMul:  ICh=     0
 TstMul:  Mul=     1
 Symbolic Z-matrix:
 Charge =  0 Multiplicity = 1

 SCF Done:  E(RM062X) =  -78.5357224617     A.U. after   10 cycles
 SCF Done:  E(RM062X) =  -78.5357888549     A.U. after    7 cycles
 SCF Done:  E(RM062X) =  -78.5357902164     A.U. after    6 cycles
 Optimization completed.
    -- Stationary point found.

                         Standard orientation:
 ---------------------------------------------------------------------
 Center     Atomic      Atomic             Coordinates (Angstroms)
 Number     Number       Type             X           Y           Z
 ---------------------------------------------------------------------
      1          6           0        0.000000   -0.000000    0.663799
      2          6           0        0.000000   -0.000000   -0.663799
      3          1           0        0.000000    0.924151    1.234063
      4          1           0       -0.000000   -0.924151    1.234063
      5          1           0        0.000000    0.924151   -1.234063
      6          1           0       -0.000000   -0.924151   -1.234063
 ---------------------------------------------------------------------

 The electronic state is 1-AG.
 Alpha  occ. eigenvalues --  -10.53671 -10.53565  -0.85127  -0.65647  -0.53533
 Alpha  occ. eigenvalues --   -0.47776  -0.41226  -0.32514
 Alpha virt. eigenvalues --    0.06336   0.16991   0.18965   0.20964   0.29685
 Alpha virt. eigenvalues --    0.37564   0.52665   0.60458   0.61576   0.69927
 Alpha virt. eigenvalues --    0.70682   0.76552   0.91274   0.94987   1.00656

 Mulliken charges:
               1
     1  C   -0.325023
     2  C   -0.325023
     3  H    0.162511
     4  H    0.162511
     5  H    0.162511
     6  H    0.162511
 Sum of Mulliken charges =  -0.00000

 Dipole moment (field-independent basis, Debye):
    X=             -0.0000    Y=              0.0000    Z=             -0.0000  Tot=              0.0000
 Quadrupole moment (field-independent basis, Debye-Ang):
   XX=            -15.1573   YY=            -12.0848   ZZ=            -11.9554
   XY=              0.0000   XZ=             -0.0000   YZ=              0.0000

 Normal termination of Gaussian 16 at Wed Oct  7 14:19:36 2020.
