 Gaussian 16, Revision A.03,

 ----------------------------------------------------------------------
 #P Opt(TS,MaxCyc=50,NoEigenTest,MaxStep=10,AddRedundant) M062X/6-31G*
 5D 7F Integral=UltraFineGrid SCF=(NoSymm,XQC,MaxCyc=120) EmpiricalDisp
 ersion=GD3 IOp(1/33=1)
 ----------------------------------------------------------------------

 TstMul:  Mul=     2
 TstMul:  ICh=     0
 TstMul:  Mul=     2
 Symbolic Z-matrix:
 Charge =  0 Multiplicity = 2

 SCF Done:  E(UM062X) =  -599.670458470     A.U. after   21 cycles
 SCF Done:  E(UM062X) =  -599.670479679     A.U. after   14 cycles
 SCF Done:  E(UM062X) =  -599.670461486     A.U. after   15 cycles
 SCF Done:  E(UM062X) =  -599.670283008     A.U. after   19 cycles
 SCF Done:  E(UM062X) =  -599.670246808     A.U. after   17 cycles
 SCF Done:  E(UM062X) =  -599.670274379     A.U. after   17 cycles
 SCF Done:  E(UM062X) =  -599.670274781     A.U. after   12 cycles
 SCF Done:  E(UM062X) =  -599.670274598     A.U. after   10 cycles
 Optimization completed.
    -- Stationary point found.
 Normal termination of Gaussian 16 at Wed Oct  7 14:22:11 2020.
 Gaussian 16:  ES64L-G16RevA.03 25-Dec-2016

 ----------------------------------------------------------------------
 #P Freq M062X/6-31G* 5D 7F Integral=UltraFineGrid SCF=(NoSymm,XQC,MaxC
 yc=120) EmpiricalDispersion=GD3 IOp(1/33=1) Geom=Check Guess=Read
 ----------------------------------------------------------------------

 TstMul:  Mul=     2
 TstMul:  ICh=     0
 TstMul:  Mul=     2
 Structure from the checkpoint file:  "MN_21_ch3fclts_BH76_M062XD30_631Gs.chk"
 Charge =  0 Multiplicity = 2

                         Standard orientation:
 ---------------------------------------------------------------------
 Center     Atomic      Atomic             Coordinates (Angstroms)
 Number     Number       Type             X           Y           Z
 ---------------------------------------------------------------------
      1          6           0       -2.400511    0.000032    0.000053
      2          9           0       -0.303957   -0.000057   -0.000120
      3         17           0        1.451633    0.000010    0.000031
      4          1           0       -2.512949   -0.307541    1.029048
      5          1           0       -2.512804    1.044968   -0.248030
      6          1           0       -2.513328   -0.737279   -0.780787
 ---------------------------------------------------------------------

 SCF Done:  E(UM062X) =  -599.670274598     A.U. after    1 cycles

 The electronic state is 2-A.
 Alpha  occ. eigenvalues -- -102.68011 -25.27024 -10.58508  -9.83751  -7.56585
 Alpha  occ. eigenvalues --   -7.55101  -7.55101  -1.31500  -0.90345  -0.79936
 Alpha  occ. eigenvalues --   -0.55552  -0.53394  -0.53394  -0.50219  -0.50218
 Alpha  occ. eigenvalues --   -0.37264  -0.37264  -0.27298
 Alpha virt. eigenvalues --   -0.05128   0.15174   0.21066   0.21067   0.40510
 Alpha virt. eigenvalues --    0.46494   0.49798   0.49798   0.57103   0.57103
 Alpha virt. eigenvalues --    0.58495   0.78719   0.85332   0.85332   0.93025

  Beta  occ. eigenvalues -- -102.67647 -25.27037 -10.57971  -9.83632  -7.55616
  Beta  occ. eigenvalues --   -7.54985  -7.54985  -1.31350  -0.88950  -0.76210
  Beta  occ. eigenvalues --   -0.55088  -0.53184  -0.53184  -0.49392  -0.49391
  Beta  occ. eigenvalues --   -0.36597  -0.36597
  Beta virt. eigenvalues --   -0.07677   0.03178   0.16125   0.22054   0.22055
  Beta virt. eigenvalues --    0.40986   0.47151   0.49966   0.49966   0.57662
  Beta virt. eigenvalues --    0.57662   0.63246   0.81845   0.86980   0.86980

 Mulliken charges and spin densities:
               1          2
     1  C   -0.431116   0.901645
     2  F   -0.306007  -0.087889
     3  Cl   0.134123   0.318458
     4  H    0.200997  -0.044072
     5  H    0.201006  -0.044070
     6  H    0.200997  -0.044071
 Sum of Mulliken charges =  -0.00000   1.00000

 Dipole moment (field-independent basis, Debye):
    X=             -1.9017    Y=              0.0001    Z=              0.0001  Tot=              1.9017
 Quadrupole moment (field-independent basis, Debye-Ang):
   XX=            -18.6957   YY=            -24.2148   ZZ=            -24.2149
   XY=              0.0003   XZ=              0.0002   YZ=              0.0000

  Exact polarizability: 104.165   0.009  18.409   0.003  -0.012  18.414
 Approx polarizability:  90.977   0.002  19.239   0.001  -0.000  19.239

 ******    1 imaginary frequencies (negative Signs) ******

                      1                      2                      3
                      A                      A                      A
 Frequencies --   -539.8288               115.6661               115.8546
 Red. masses --     13.4093                 7.3265                 7.2833
 Frc consts  --      2.3023                 0.0578                 0.0576
 IR Inten    --   1132.9427                 2.7053                 2.7810

                      4                      5                      6
                      A                      A                      A
 Frequencies --    411.7834               445.7573               447.7433
 Red. masses --      5.8782                 1.0815                 1.0806
 Frc consts  --      0.5873                 0.1266                 0.1276
 IR Inten    --    129.1802                 0.2569                 0.1711

                      7                      8                      9
                      A                      A                      A
 Frequencies --    830.2014              1453.0383              1453.6251
 Red. masses --      1.2093                 1.0982                 1.0981
 Frc consts  --      0.4911                 1.3661                 1.3671
 IR Inten    --     20.3963                 3.6448                 3.6323

                     10                     11                     12
                      A                      A                      A
 Frequencies --   3188.2482              3365.5059              3366.7485
 Red. masses --      1.0097                 1.1190                 1.1190
 Frc consts  --      6.0468                 7.4677                 7.4728
 IR Inten    --      1.3547                 0.7584                 0.7609

 - Thermochemistry -
 -------------------
 Temperature   298.150 Kelvin.  Pressure   1.00000 Atm.
 Atom     1 has atomic number  6 and mass  12.00000

 Molecular mass:    68.99073 amu.
 Principal axes and moments of inertia in atomic units:
                           1         2         3
     Eigenvalues --    12.45332 586.94872 586.94883
           X            1.00000   0.00000  -0.00000
           Y           -0.00000   1.00000  -0.00262
           Z            0.00000   0.00262   1.00000
 This molecule is an asymmetric top.
 Rotational symmetry number  1.
 Rotational temperatures (Kelvin)      6.95509     0.14757     0.14757
 Rotational constants (GHZ):         144.92053     3.07479     3.07478
    1 imaginary frequencies ignored.
 Zero-point vibrational energy      90881.3 (Joules/Mol)
                                   21.72116 (Kcal/Mol)
 Warning -- explicit consideration of   5 degrees of freedom as
           vibrations may cause significant error
 Vibrational temperatures:    166.42   166.69   592.46   641.35   644.20
          (Kelvin)           1194.47  2090.60  2091.44  4587.18  4842.21
                             4844.00

 Zero-point correction=                           0.034615 (Hartree/Particle)
 Thermal correction to Energy=                    0.039771
 Thermal correction to Enthalpy=                  0.040715
 Thermal correction to Gibbs Free Energy=         0.006481
 Sum of electronic and zero-point Energies=           -599.635660
 Sum of electronic and thermal Energies=              -599.630504
 Sum of electronic and thermal Enthalpies=            -599.629560
 Sum of electronic and thermal Free Energies=         -599.663793

                     E (Thermal)             CV                S
                      KCal/Mol        Cal/Mol-Kelvin    Cal/Mol-Kelvin
 Total                   24.956             14.794             72.050
 Electronic               0.000              0.000              1.377
 Translational            0.889              2.981             38.612
 Rotational               0.889              2.981             22.977
 Vibrational             23.179              8.832              9.084
 Vibration     1          0.608              1.936              3.172
 Vibration     2          0.608              1.936              3.168
 Vibration     3          0.776              1.445              0.920
 Vibration     4          0.805              1.370              0.809
 Vibration     5          0.807              1.366              0.803

 Optimization completed.
    -- Stationary point found.
 Normal termination of Gaussian 16 at Wed Oct  7 14:22:49 2020.
