 Gaussian 16, Revision A.03,

 ----------------------------------------------------------------------
 #P Opt(TS,MaxCyc=50,NoEigenTest,MaxStep=10,AddRedundant) M062X/6-31G*
 5D 7F Integral=UltraFineGrid SCF=(NoSymm,XQC,MaxCyc=120) EmpiricalDisp
 ersion=GD3 IOp(1/33=1)
 ----------------------------------------------------------------------

 TstMul:  Mul=     1
 TstMul:  ICh=    -1
 TstMul:  Mul=     1
 Symbolic Z-matrix:
 Charge = -1 Multiplicity = 1

 SCF Done:  E(RM062X) =  -960.259129723     A.U. after   14 cycles
 SCF Done:  E(RM062X) =  -960.259213360     A.U. after   11 cycles
 SCF Done:  E(RM062X) =  -960.259251315     A.U. after   11 cycles
 SCF Done:  E(RM062X) =  -960.259243987     A.U. after    9 cycles
 Optimization completed.
    -- Stationary point found.
 Normal termination of Gaussian 16 at Wed Oct  7 14:21:04 2020.
 Gaussian 16:  ES64L-G16RevA.03 25-Dec-2016

 ----------------------------------------------------------------------
 #P Freq M062X/6-31G* 5D 7F Integral=UltraFineGrid SCF=(NoSymm,XQC,MaxC
 yc=120) EmpiricalDispersion=GD3 IOp(1/33=1) Geom=Check Guess=Read
 ----------------------------------------------------------------------

 TstMul:  Mul=     1
 TstMul:  ICh=    -1
 TstMul:  Mul=     1
 Structure from the checkpoint file:  "MN_28_clch3clts_BH76_M062XD30_631Gs.chk"
 Charge = -1 Multiplicity = 1

                         Standard orientation:
 ---------------------------------------------------------------------
 Center     Atomic      Atomic             Coordinates (Angstroms)
 Number     Number       Type             X           Y           Z
 ---------------------------------------------------------------------
      1         17           0        2.308818   -0.000220   -0.000297
      2          6           0       -0.000013    0.000814    0.001121
      3          1           0        0.000092   -0.201837   -1.054427
      4          1           0       -0.000094   -0.812050    0.704452
      5          1           0        0.000082    1.016432    0.353413
      6         17           0       -2.308818   -0.000217   -0.000301
 ---------------------------------------------------------------------

 SCF Done:  E(RM062X) =  -960.259243987     A.U. after    1 cycles

 The electronic state is 1-A.
 Alpha  occ. eigenvalues -- -102.39452-102.39451 -10.45189  -9.55571  -9.55569
 Alpha  occ. eigenvalues --   -7.27539  -7.27537  -7.27250  -7.27250  -7.27249
 Alpha  occ. eigenvalues --   -7.27249  -0.68986  -0.64977  -0.59092  -0.35678
 Alpha  occ. eigenvalues --   -0.35677  -0.22346  -0.15308  -0.15307  -0.14431
 Alpha  occ. eigenvalues --   -0.14430  -0.12099
 Alpha virt. eigenvalues --    0.18493   0.29578   0.36672   0.36678   0.62476
 Alpha virt. eigenvalues --    0.63175   0.68586   0.68593   0.69351   0.69354
 Alpha virt. eigenvalues --    0.72807   0.77288   0.77299   0.80332   0.96975

 Mulliken charges:
               1
     1  Cl  -0.643913
     2  C   -0.413821
     3  H    0.233993
     4  H    0.233863
     5  H    0.233755
     6  Cl  -0.643878
 Sum of Mulliken charges =  -1.00000

 Dipole moment (field-independent basis, Debye):
    X=             -0.0003    Y=              0.0025    Z=              0.0033  Tot=              0.0042
 Quadrupole moment (field-independent basis, Debye-Ang):
   XX=            -71.9631   YY=            -35.5231   ZZ=            -35.5230
   XY=              0.0002   XZ=             -0.0002   YZ=             -0.0000

  Exact polarizability:  96.232   0.000  22.679  -0.000   0.001  22.655
 Approx polarizability: 101.422   0.000  25.088  -0.000  -0.000  25.086

 ******    1 imaginary frequencies (negative Signs) ******

                      1                      2                      3
                      A                      A                      A
 Frequencies --   -414.4654               214.2258               216.9283
 Red. masses --     13.2650                 4.3313                 4.3358
 Frc consts  --      1.3426                 0.1171                 0.1202
 IR Inten    --   1317.3792                15.6205                15.5779

                      4                      5                      6
                      A                      A                      A
 Frequencies --    232.9197              1002.8360              1004.2999
 Red. masses --     34.9623                 1.0124                 1.0124
 Frc consts  --      1.1175                 0.5999                 0.6016
 IR Inten    --      0.0001                 0.0124                 0.0046

                      7                      8                      9
                      A                      A                      A
 Frequencies --   1089.9654              1423.2809              1424.6780
 Red. masses --      1.0437                 1.1045                 1.1045
 Frc consts  --      0.7305                 1.3183                 1.3208
 IR Inten    --    131.1128                 4.6802                 4.6836

                     10                     11                     12
                      A                      A                      A
 Frequencies --   3241.4611              3439.3915              3440.4710
 Red. masses --      1.0078                 1.1241                 1.1240
 Frc consts  --      6.2391                 7.8347                 7.8389
 IR Inten    --      0.0008                 0.7842                 0.7443

 - Thermochemistry -
 -------------------
 Temperature   298.150 Kelvin.  Pressure   1.00000 Atm.
 Atom     1 has atomic number 17 and mass  34.96885

 Molecular mass:    84.96118 amu.
 Principal axes and moments of inertia in atomic units:
                           1         2         3
     Eigenvalues --    12.475241337.575811337.57696
           X            1.00000   0.00000  -0.00000
           Y           -0.00000   0.99972  -0.02379
           Z            0.00000   0.02379   0.99972
 This molecule is an asymmetric top.
 Rotational symmetry number  1.
 Rotational temperatures (Kelvin)      6.94287     0.06475     0.06475
 Rotational constants (GHZ):         144.66586     1.34926     1.34926
    1 imaginary frequencies ignored.
 Zero-point vibrational energy     100070.4 (Joules/Mol)
                                   23.91739 (Kcal/Mol)
 Warning -- explicit consideration of   3 degrees of freedom as
           vibrations may cause significant error
 Vibrational temperatures:    308.22   312.11   335.12  1442.86  1444.96
          (Kelvin)           1568.22  2047.78  2049.79  4663.74  4948.52
                             4950.07

 Zero-point correction=                           0.038115 (Hartree/Particle)
 Thermal correction to Energy=                    0.042644
 Thermal correction to Enthalpy=                  0.043588
 Thermal correction to Gibbs Free Energy=         0.010339
 Sum of electronic and zero-point Energies=           -960.221129
 Sum of electronic and thermal Energies=              -960.216600
 Sum of electronic and thermal Enthalpies=            -960.215656
 Sum of electronic and thermal Free Energies=         -960.248905

                     E (Thermal)             CV                S
                      KCal/Mol        Cal/Mol-Kelvin    Cal/Mol-Kelvin
 Total                   26.759             12.617             69.978
 Electronic               0.000              0.000              0.000
 Translational            0.889              2.981             39.232
 Rotational               0.889              2.981             24.616
 Vibrational             24.982              6.656              6.130
 Vibration     1          0.644              1.819              2.007
 Vibration     2          0.646              1.815              1.985
 Vibration     3          0.654              1.791              1.856

 Optimization completed.
    -- Stationary point found.
 Normal termination of Gaussian 16 at Wed Oct  7 14:21:38 2020.
