 Gaussian 16, Revision A.03,
 Gaussian 16:  ES64L-G16RevA.03 25-Dec-2016

 ----------------------------------------------------------------------
 #P Opt(MaxCyc=100) M062X/6-31G* 5D 7F Integral=UltraFineGrid SCF=(NoSy
 mm,XQC,MaxCyc=120) EmpiricalDispersion=GD3 IOp(1/33=1)
 ----------------------------------------------------------------------

 TstMul:  Mul=     1
 TstMul:  ICh=    -1
 TstMul:  Mul=     1
 Symbolic Z-matrix:
 Charge = -1 Multiplicity = 1

 SCF Done:  E(RM062X) =  -960.276715475     A.U. after   13 cycles
 SCF Done:  E(RM062X) =  -960.276941319     A.U. after   11 cycles
 SCF Done:  E(RM062X) =  -960.277150196     A.U. after   11 cycles
 SCF Done:  E(RM062X) =  -960.277185405     A.U. after   10 cycles
 SCF Done:  E(RM062X) =  -960.277192189     A.U. after    7 cycles
 SCF Done:  E(RM062X) =  -960.277192917     A.U. after    7 cycles
 Optimization completed.
    -- Stationary point found.

                         Standard orientation:
 ---------------------------------------------------------------------
 Center     Atomic      Atomic             Coordinates (Angstroms)
 Number     Number       Type             X           Y           Z
 ---------------------------------------------------------------------
      1         17           0        0.000000    0.000000   -2.338811
      2          6           0        0.000000    0.000000   -0.506457
      3          1           0       -0.000000    1.027618   -0.159895
      4          1           0       -0.889943   -0.513809   -0.159895
      5          1           0        0.889943   -0.513809   -0.159895
      6         17           0        0.000000    0.000000    2.545777
 ---------------------------------------------------------------------

 The electronic state is 1-A1.
 Alpha  occ. eigenvalues -- -102.49465-102.31562 -10.43956  -9.65886  -9.47458
 Alpha  occ. eigenvalues --   -7.38021  -7.37438  -7.37438  -7.19292  -7.19263
 Alpha  occ. eigenvalues --   -7.19263  -0.79958  -0.61554  -0.56147  -0.36024
 Alpha  occ. eigenvalues --   -0.36024  -0.32075  -0.22444  -0.22444  -0.07752
 Alpha  occ. eigenvalues --   -0.07718  -0.07718
 Alpha virt. eigenvalues --    0.22122   0.31258   0.35254   0.35254   0.57715
 Alpha virt. eigenvalues --    0.61092   0.63238   0.63238   0.67680   0.71260
 Alpha virt. eigenvalues --    0.71260   0.77150   0.77921   0.77921   0.99665

 Mulliken charges:
               1
     1  Cl  -0.221586
     2  C   -0.508797
     3  H    0.224096
     4  H    0.224096
     5  H    0.224096
     6  Cl  -0.941904
 Sum of Mulliken charges =  -1.00000

 Dipole moment (field-independent basis, Debye):
    X=             -0.0000    Y=             -0.0000    Z=             -7.9416  Tot=              7.9416
 Quadrupole moment (field-independent basis, Debye-Ang):
   XX=            -35.5764   YY=            -35.5764   ZZ=            -74.0040
   XY=             -0.0000   XZ=             -0.0000   YZ=              0.0000

 Normal termination of Gaussian 16 at Wed Oct  7 14:21:21 2020.
