 Gaussian 16, Revision A.03,
 Gaussian 16:  ES64L-G16RevA.03 25-Dec-2016

 ----------------------------------------------------------------------
 #P Opt(MaxCyc=100) M062X/6-31G* 5D 7F Integral=UltraFineGrid SCF=(NoSy
 mm,XQC,MaxCyc=120) EmpiricalDispersion=GD3 IOp(1/33=1)
 ----------------------------------------------------------------------

 TstMul:  Mul=     1
 TstMul:  ICh=     0
 TstMul:  Mul=     1
 Symbolic Z-matrix:
 Charge =  0 Multiplicity = 1

 SCF Done:  E(RM062X) =  -40.4815385909     A.U. after   10 cycles
 SCF Done:  E(RM062X) =  -40.4815711046     A.U. after    6 cycles
 Optimization completed.
    -- Stationary point found.

                         Standard orientation:
 ---------------------------------------------------------------------
 Center     Atomic      Atomic             Coordinates (Angstroms)
 Number     Number       Type             X           Y           Z
 ---------------------------------------------------------------------
      1          6           0        0.000000    0.000000    0.000000
      2          1           0        0.629968    0.629968    0.629968
      3          1           0       -0.629968   -0.629968    0.629968
      4          1           0        0.629968   -0.629968   -0.629968
      5          1           0       -0.629968    0.629968   -0.629968
 ---------------------------------------------------------------------

 The electronic state is 1-A1.
 Alpha  occ. eigenvalues --  -10.51572  -0.78178  -0.45262  -0.45262  -0.45262
 Alpha virt. eigenvalues --    0.16802   0.22553   0.22553   0.22553   0.58256
 Alpha virt. eigenvalues --    0.58256   0.58256   0.97001   0.97001   0.97001
 Alpha virt. eigenvalues --    1.02952   1.15138   1.71363   1.71363   2.30362

 Mulliken charges:
               1
     1  C   -0.679793
     2  H    0.169948
     3  H    0.169948
     4  H    0.169948
     5  H    0.169948
 Sum of Mulliken charges =  -0.00000

 Dipole moment (field-independent basis, Debye):
    X=              0.0000    Y=              0.0000    Z=             -0.0000  Tot=              0.0000
 Quadrupole moment (field-independent basis, Debye-Ang):
   XX=             -8.2768   YY=             -8.2768   ZZ=             -8.2768
   XY=              0.0000   XZ=              0.0000   YZ=             -0.0000

 Normal termination of Gaussian 16 at Wed Oct  7 14:20:25 2020.
