 Gaussian 16, Revision A.03,
 Gaussian 16:  ES64L-G16RevA.03 25-Dec-2016

 ----------------------------------------------------------------------
 #P Opt(MaxCyc=100) M062X/6-31G* 5D 7F Integral=UltraFineGrid SCF=(NoSy
 mm,XQC,MaxCyc=120) EmpiricalDispersion=GD3 IOp(1/33=1)
 ----------------------------------------------------------------------

 TstMul:  Mul=     2
 TstMul:  ICh=     0
 TstMul:  Mul=     2
 Symbolic Z-matrix:
 Charge =  0 Multiplicity = 2

 SCF Done:  E(UM062X) =  -39.8036943331     A.U. after   12 cycles
 SCF Done:  E(UM062X) =  -39.8037069570     A.U. after    7 cycles
 Optimization completed.
    -- Stationary point found.

                         Standard orientation:
 ---------------------------------------------------------------------
 Center     Atomic      Atomic             Coordinates (Angstroms)
 Number     Number       Type             X           Y           Z
 ---------------------------------------------------------------------
      1          6           0        0.000000    0.000000    0.000000
      2          1           0        0.000000    1.079966    0.000000
      3          1           0        0.935278   -0.539983    0.000000
      4          1           0       -0.935278   -0.539983    0.000000
 ---------------------------------------------------------------------

 The electronic state is 2-A2".
 Alpha  occ. eigenvalues --  -10.53973  -0.77022  -0.48328  -0.48328  -0.27640
 Alpha virt. eigenvalues --    0.16919   0.23056   0.23056   0.59269   0.59269
 Alpha virt. eigenvalues --    0.59596   0.73701   0.98225   0.98225   1.02010
 Alpha virt. eigenvalues --    1.69713   1.69713   2.05252   2.23597   2.23597
  Beta  occ. eigenvalues --  -10.53236  -0.72062  -0.47043  -0.47043
  Beta virt. eigenvalues --    0.01063   0.18336   0.24124   0.24124   0.59467
  Beta virt. eigenvalues --    0.59467   0.64928   0.76538   1.01481   1.01481
  Beta virt. eigenvalues --    1.06173   1.77213   1.77213   2.18240   2.30211

 Mulliken charges and spin densities:
               1          2
     1  C   -0.516397   1.178002
     2  H    0.172132  -0.059334
     3  H    0.172132  -0.059334
     4  H    0.172132  -0.059334
 Sum of Mulliken charges =  -0.00000   1.00000

 Dipole moment (field-independent basis, Debye):
    X=              0.0000    Y=              0.0000    Z=             -0.0000  Tot=              0.0000
 Quadrupole moment (field-independent basis, Debye-Ang):
   XX=             -7.0282   YY=             -7.0282   ZZ=             -8.6940
   XY=             -0.0000   XZ=             -0.0000   YZ=             -0.0000

 1\1\GINC-NODE63\FOpt\UM062X\6-31G(d)\C1H3(2)\RPEVERATI\07-Oct-2020\0\\
 #P Opt(MaxCyc=100) M062X/6-31G* 5D 7F Integral=UltraFineGrid SCF=(NoSy
 mm,XQC,MaxCyc=120) EmpiricalDispersion=GD3 IOp(1/33=1)\\TS search on B
 H76.\\0,2\C,0.,0.,0.\H,0.5399832002,0.9352783379,0.\H,0.5399832002,-0.
 9352783379,0.\H,-1.0799664003,0.,0.\\Version=ES64L-G16RevA.03\State=2-
 A2"\HF=-39.803707\S2=0.75505\S2-1=0.\S2A=0.750017\RMSD=4.628e-09\RMSF=
 6.680e-05\Dipole=0.,0.,0.\Quadrupole=0.4128177,0.4128177,-0.8256353,0.
 ,0.,0.\PG=D03H [O(C1),3C2(H1)]\\@

 Normal termination of Gaussian 16 at Wed Oct  7 14:19:58 2020.
