 Gaussian 16, Revision A.03,
 Gaussian 16:  ES64L-G16RevA.03 25-Dec-2016

 ----------------------------------------------------------------------
 #P Opt(MaxCyc=100) M062X/6-31G* 5D 7F Integral=UltraFineGrid SCF=(NoSy
 mm,XQC,MaxCyc=120) EmpiricalDispersion=GD3 IOp(1/33=1)
 ----------------------------------------------------------------------

 TstMul:  Mul=     1
 TstMul:  ICh=    -1
 TstMul:  Mul=     1
 Symbolic Z-matrix:
 Charge = -1 Multiplicity = 1

 SCF Done:  E(RM062X) =  -599.901142365     A.U. after   12 cycles
 SCF Done:  E(RM062X) =  -599.901374889     A.U. after   10 cycles
 SCF Done:  E(RM062X) =  -599.901514832     A.U. after   10 cycles
 SCF Done:  E(RM062X) =  -599.901540548     A.U. after    9 cycles
 SCF Done:  E(RM062X) =  -599.901550408     A.U. after    8 cycles
 SCF Done:  E(RM062X) =  -599.901551249     A.U. after    7 cycles
 Optimization completed.
    -- Stationary point found.

                         Standard orientation:
 ---------------------------------------------------------------------
 Center     Atomic      Atomic             Coordinates (Angstroms)
 Number     Number       Type             X           Y           Z
 ---------------------------------------------------------------------
      1          9           0        0.000000    0.000000   -2.594415
      2          6           0        0.000000    0.000000   -1.195294
      3          1           0       -0.000000    1.024742   -0.823594
      4          1           0       -0.887453   -0.512371   -0.823594
      5          1           0        0.887453   -0.512371   -0.823594
      6         17           0        0.000000    0.000000    1.940722
 ---------------------------------------------------------------------

 The electronic state is 1-A1.
 Alpha  occ. eigenvalues -- -102.30678 -25.06804 -10.43835  -9.46562  -7.18391
 Alpha  occ. eigenvalues --   -7.18373  -7.18373  -1.16209  -0.62684  -0.55332
 Alpha  occ. eigenvalues --   -0.39901  -0.39901  -0.39688  -0.25682  -0.25682
 Alpha  occ. eigenvalues --   -0.06971  -0.06856  -0.06856
 Alpha virt. eigenvalues --    0.31557   0.36420   0.38202   0.38202   0.67464
 Alpha virt. eigenvalues --    0.74130   0.74130   0.75635   0.78621   0.78621
 Alpha virt. eigenvalues --    0.87845   1.08692   1.08692   1.18029   1.18978

 Mulliken charges:
               1
     1  F   -0.409658
     2  C   -0.111845
     3  H    0.160041
     4  H    0.160041
     5  H    0.160041
     6  Cl  -0.958621
 Sum of Mulliken charges =  -1.00000

 Dipole moment (field-independent basis, Debye):
    X=             -0.0000    Y=             -0.0000    Z=             -6.3420  Tot=              6.3420
 Quadrupole moment (field-independent basis, Debye-Ang):
   XX=            -27.3530   YY=            -27.3530   ZZ=            -53.7179
   XY=             -0.0000   XZ=             -0.0000   YZ=              0.0000

 Normal termination of Gaussian 16 at Wed Oct  7 14:21:52 2020.
