 Gaussian 16, Revision A.03,

 ----------------------------------------------------------------------
 #P Opt(TS,MaxCyc=50,NoEigenTest,MaxStep=10,AddRedundant) M062X/6-31G*
 5D 7F Integral=UltraFineGrid SCF=(NoSymm,XQC,MaxCyc=120) EmpiricalDisp
 ersion=GD3 IOp(1/33=1)
 ----------------------------------------------------------------------

 TstMul:  Mul=     1
 TstMul:  ICh=    -1
 TstMul:  Mul=     1
 Symbolic Z-matrix:
 Charge = -1 Multiplicity = 1

 SCF Done:  E(RM062X) =  -599.824892372     A.U. after   15 cycles
 SCF Done:  E(RM062X) =  -599.824928783     A.U. after    9 cycles
 SCF Done:  E(RM062X) =  -599.824908266     A.U. after   10 cycles
 SCF Done:  E(RM062X) =  -599.823585788     A.U. after   13 cycles
 SCF Done:  E(RM062X) =  -599.822297645     A.U. after   12 cycles
 SCF Done:  E(RM062X) =  -599.821200585     A.U. after   12 cycles
 SCF Done:  E(RM062X) =  -599.820370890     A.U. after   14 cycles
 SCF Done:  E(RM062X) =  -599.819786133     A.U. after   14 cycles
 SCF Done:  E(RM062X) =  -599.819343436     A.U. after   13 cycles
 SCF Done:  E(RM062X) =  -599.818943210     A.U. after   13 cycles
 SCF Done:  E(RM062X) =  -599.817260106     A.U. after   13 cycles
 SCF Done:  E(RM062X) =  -599.817503680     A.U. after   13 cycles
 SCF Done:  E(RM062X) =  -599.817690892     A.U. after   13 cycles
 SCF Done:  E(RM062X) =  -599.817838110     A.U. after   12 cycles
 SCF Done:  E(RM062X) =  -599.817976001     A.U. after   13 cycles
 SCF Done:  E(RM062X) =  -599.818063279     A.U. after   13 cycles
 SCF Done:  E(RM062X) =  -599.818129455     A.U. after   12 cycles
 SCF Done:  E(RM062X) =  -599.818156612     A.U. after   13 cycles
 SCF Done:  E(RM062X) =  -599.818157120     A.U. after    9 cycles
 Optimization completed.
    -- Stationary point found.
 Normal termination of Gaussian 16 at Wed Oct  7 14:30:12 2020.
 Gaussian 16:  ES64L-G16RevA.03 25-Dec-2016

 ----------------------------------------------------------------------
 #P Freq M062X/6-31G* 5D 7F Integral=UltraFineGrid SCF=(NoSymm,XQC,MaxC
 yc=120) EmpiricalDispersion=GD3 IOp(1/33=1) Geom=Check Guess=Read
 ----------------------------------------------------------------------

 TstMul:  Mul=     1
 TstMul:  ICh=    -1
 TstMul:  Mul=     1
 Structure from the checkpoint file:  "MN_37_fch3clts_BH76_M062XD30_631Gs.chk"
 Charge = -1 Multiplicity = 1

                         Standard orientation:
 ---------------------------------------------------------------------
 Center     Atomic      Atomic             Coordinates (Angstroms)
 Number     Number       Type             X           Y           Z
 ---------------------------------------------------------------------
      1          6           0        0.293552   -0.218255   -0.000107
      2          9           0        2.606341    0.106893    0.000071
      3         17           0       -1.591994    0.072455    0.000046
      4          1           0        0.871153    0.699833    0.001563
      5          1           0        0.487431   -0.790246   -0.898893
      6          1           0        0.486939   -0.793834    0.896543
 ---------------------------------------------------------------------

 SCF Done:  E(RM062X) =  -599.818157120     A.U. after    1 cycles

 The electronic state is 1-A.
 Alpha  occ. eigenvalues -- -102.44633 -24.77012 -10.39556  -9.61010  -7.33093
 Alpha  occ. eigenvalues --   -7.32599  -7.32596  -0.81932  -0.74033  -0.56946
 Alpha  occ. eigenvalues --   -0.31785  -0.30585  -0.26496  -0.18438  -0.18403
 Alpha  occ. eigenvalues --   -0.05188  -0.05155  -0.04128
 Alpha virt. eigenvalues --    0.25421   0.34395   0.38395   0.42739   0.61064
 Alpha virt. eigenvalues --    0.66539   0.66959   0.68645   0.76739   0.76900
 Alpha virt. eigenvalues --    0.94781   1.10888   1.11063   1.12686   1.15556

 Mulliken charges:
               1
     1  C   -0.471596
     2  F   -0.792069
     3  Cl  -0.347475
     4  H    0.258684
     5  H    0.176265
     6  H    0.176191
 Sum of Mulliken charges =  -1.00000

 Dipole moment (field-independent basis, Debye):
    X=             -5.8562    Y=             -0.7558    Z=             -0.0007  Tot=              5.9048
 Quadrupole moment (field-independent basis, Debye-Ang):
   XX=            -57.9760   YY=            -26.3839   ZZ=            -26.2660
   XY=             -0.8243   XZ=             -0.0008   YZ=             -0.0005

  Exact polarizability:  52.968  -1.324  18.382  -0.002  -0.002  18.651
 Approx polarizability:  57.583  -1.608  20.178  -0.003  -0.002  20.387

 ******    1 imaginary frequencies (negative Signs) ******

                      1                      2                      3
                      A                      A                      A
 Frequencies --   -195.2793               163.4177               281.1474
 Red. masses --      2.7341                 2.1193                17.2617
 Frc consts  --      0.0614                 0.0333                 0.8039
 IR Inten    --     50.4680                 8.0244                97.3160

                      4                      5                      6
                      A                      A                      A
 Frequencies --    436.8809               767.3608               975.3666
 Red. masses --     10.6434                 1.2590                 1.1301
 Frc consts  --      1.1969                 0.4368                 0.6334
 IR Inten    --    314.0493               100.8832                 0.0018

                      7                      8                      9
                      A                      A                      A
 Frequencies --   1194.7433              1443.8653              1451.3998
 Red. masses --      1.0666                 1.0638                 1.0704
 Frc consts  --      0.8970                 1.3067                 1.3285
 IR Inten    --      6.7296                10.8133                17.6082

                     10                     11                     12
                      A                      A                      A
 Frequencies --   3180.5378              3311.3985              3313.2658
 Red. masses --      1.0232                 1.1124                 1.1127
 Frc consts  --      6.0982                 7.1870                 7.1965
 IR Inten    --     10.8316                47.4921                14.0349

 - Thermochemistry -
 -------------------
 Temperature   298.150 Kelvin.  Pressure   1.00000 Atm.
 Atom     1 has atomic number  6 and mass  12.00000

 Molecular mass:    68.99073 amu.
 Principal axes and moments of inertia in atomic units:
                           1         2         3
     Eigenvalues --    15.49174 791.26471 795.15468
           X            1.00000  -0.00156  -0.00000
           Y            0.00156   1.00000  -0.00024
           Z            0.00000   0.00024   1.00000
 This molecule is an asymmetric top.
 Rotational symmetry number  1.
 Rotational temperatures (Kelvin)      5.59097     0.10946     0.10893
 Rotational constants (GHZ):         116.49696     2.28083     2.26967
    1 imaginary frequencies ignored.
 Zero-point vibrational energy      98807.9 (Joules/Mol)
                                   23.61564 (Kcal/Mol)
 Warning -- explicit consideration of   3 degrees of freedom as
           vibrations may cause significant error
 Vibrational temperatures:    235.12   404.51   628.57  1104.06  1403.33
          (Kelvin)           1718.97  2077.40  2088.24  4576.08  4764.36
                             4767.05

 Zero-point correction=                           0.037634 (Hartree/Particle)
 Thermal correction to Energy=                    0.041964
 Thermal correction to Enthalpy=                  0.042909
 Thermal correction to Gibbs Free Energy=         0.010748
 Sum of electronic and zero-point Energies=           -599.780523
 Sum of electronic and thermal Energies=              -599.776193
 Sum of electronic and thermal Enthalpies=            -599.775248
 Sum of electronic and thermal Free Energies=         -599.807409

                     E (Thermal)             CV                S
                      KCal/Mol        Cal/Mol-Kelvin    Cal/Mol-Kelvin
 Total                   26.333             12.447             67.687
 Electronic               0.000              0.000              0.000
 Translational            0.889              2.981             38.612
 Rotational               0.889              2.981             23.792
 Vibrational             24.556              6.485              5.284
 Vibration     1          0.623              1.887              2.510
 Vibration     2          0.681              1.709              1.527
 Vibration     3          0.797              1.390              0.836

 Optimization completed.
    -- Stationary point found.
 Normal termination of Gaussian 16 at Wed Oct  7 14:30:46 2020.
