 Gaussian 16, Revision A.03,
 Gaussian 16:  ES64L-G16RevA.03 25-Dec-2016

 ----------------------------------------------------------------------
 #P Opt(MaxCyc=100) M062X/6-31G* 5D 7F Integral=UltraFineGrid SCF=(NoSy
 mm,XQC,MaxCyc=120) EmpiricalDispersion=GD3 IOp(1/33=1)
 ----------------------------------------------------------------------

 TstMul:  Mul=     1
 TstMul:  ICh=    -1
 TstMul:  Mul=     1
 Symbolic Z-matrix:
 Charge = -1 Multiplicity = 1

 SCF Done:  E(RM062X) =  -599.815186466     A.U. after   15 cycles
 SCF Done:  E(RM062X) =  -599.816476921     A.U. after   13 cycles
 SCF Done:  E(RM062X) =  -599.818704125     A.U. after   14 cycles
 SCF Done:  E(RM062X) =  -599.819214212     A.U. after   14 cycles
 SCF Done:  E(RM062X) =  -599.821588391     A.U. after   14 cycles
 SCF Done:  E(RM062X) =  -599.842278786     A.U. after   14 cycles
 SCF Done:  E(RM062X) =  -599.876463126     A.U. after   15 cycles
 SCF Done:  E(RM062X) =  -599.889319967     A.U. after   13 cycles
 SCF Done:  E(RM062X) =  -599.898548049     A.U. after   12 cycles
 SCF Done:  E(RM062X) =  -599.899926091     A.U. after   10 cycles
 SCF Done:  E(RM062X) =  -599.901407062     A.U. after   11 cycles
 SCF Done:  E(RM062X) =  -599.901549817     A.U. after   10 cycles
 SCF Done:  E(RM062X) =  -599.901551400     A.U. after    7 cycles
 SCF Done:  E(RM062X) =  -599.901551455     A.U. after    7 cycles
 Optimization completed.
    -- Stationary point found.

                         Standard orientation:
 ---------------------------------------------------------------------
 Center     Atomic      Atomic             Coordinates (Angstroms)
 Number     Number       Type             X           Y           Z
 ---------------------------------------------------------------------
      1         17           0        0.000000    0.000000    1.940380
      2          6           0        0.000000    0.000000   -1.194787
      3          1           0        0.000000    1.025095   -0.823664
      4          1           0        0.887758   -0.512548   -0.823664
      5          1           0       -0.887758   -0.512548   -0.823664
      6          9           0        0.000000    0.000000   -2.594083
 ---------------------------------------------------------------------

 The electronic state is 1-A1.
 Alpha  occ. eigenvalues -- -102.30678 -25.06793 -10.43839  -9.46562  -7.18391
 Alpha  occ. eigenvalues --   -7.18373  -7.18373  -1.16196  -0.62677  -0.55332
 Alpha  occ. eigenvalues --   -0.39894  -0.39894  -0.39671  -0.25679  -0.25679
 Alpha  occ. eigenvalues --   -0.06971  -0.06856  -0.06856
 Alpha virt. eigenvalues --    0.31549   0.36423   0.38196   0.38196   0.67464
 Alpha virt. eigenvalues --    0.74133   0.74133   0.75642   0.78626   0.78626
 Alpha virt. eigenvalues --    0.87844   1.08690   1.08690   1.17995   1.18962

 Mulliken charges:
               1
     1  Cl  -0.958608
     2  C   -0.111612
     3  H    0.160020
     4  H    0.160020
     5  H    0.160020
     6  F   -0.409839
 Sum of Mulliken charges =  -1.00000

 Dipole moment (field-independent basis, Debye):
    X=             -0.0000    Y=             -0.0000    Z=             -6.3397  Tot=              6.3397
 Quadrupole moment (field-independent basis, Debye-Ang):
   XX=            -27.3521   YY=            -27.3521   ZZ=            -53.7158
   XY=             -0.0000   XZ=              0.0000   YZ=              0.0000

 Normal termination of Gaussian 16 at Wed Oct  7 14:23:21 2020.
