 Gaussian 16, Revision A.03,

 ----------------------------------------------------------------------
 #P Opt(TS,MaxCyc=50,NoEigenTest,MaxStep=10,AddRedundant) M062X/6-31G*
 5D 7F Integral=UltraFineGrid SCF=(NoSymm,XQC,MaxCyc=120) EmpiricalDisp
 ersion=GD3 IOp(1/33=1)
 ----------------------------------------------------------------------

 TstMul:  Mul=     1
 TstMul:  ICh=    -1
 TstMul:  Mul=     1
 Symbolic Z-matrix:
 Charge = -1 Multiplicity = 1

 SCF Done:  E(RM062X) =  -239.416719005     A.U. after   12 cycles
 SCF Done:  E(RM062X) =  -239.417847333     A.U. after   12 cycles
 SCF Done:  E(RM062X) =  -239.418296745     A.U. after   11 cycles
 SCF Done:  E(RM062X) =  -239.418447522     A.U. after   12 cycles
 SCF Done:  E(RM062X) =  -239.418423379     A.U. after   11 cycles
 SCF Done:  E(RM062X) =  -239.418425621     A.U. after    8 cycles
 Optimization completed.
    -- Stationary point found.
 Normal termination of Gaussian 16 at Wed Oct  7 14:21:52 2020.
 Gaussian 16:  ES64L-G16RevA.03 25-Dec-2016

 ----------------------------------------------------------------------
 #P Freq M062X/6-31G* 5D 7F Integral=UltraFineGrid SCF=(NoSymm,XQC,MaxC
 yc=120) EmpiricalDispersion=GD3 IOp(1/33=1) Geom=Check Guess=Read
 ----------------------------------------------------------------------

 TstMul:  Mul=     1
 TstMul:  ICh=    -1
 TstMul:  Mul=     1
 Structure from the checkpoint file:  "MN_39_fch3fts_BH76_M062XD30_631Gs.chk"
 Charge = -1 Multiplicity = 1

                         Standard orientation:
 ---------------------------------------------------------------------
 Center     Atomic      Atomic             Coordinates (Angstroms)
 Number     Number       Type             X           Y           Z
 ---------------------------------------------------------------------
      1          9           0        1.760109   -0.000101    0.000112
      2          6           0       -0.000078    0.000207   -0.000209
      3          1           0        0.000052   -0.839476    0.678773
      4          1           0        0.000059    1.008144    0.387321
      5          1           0        0.000047   -0.168100   -1.066857
      6          9           0       -1.760075   -0.000100    0.000112
 ---------------------------------------------------------------------

 SCF Done:  E(RM062X) =  -239.418425621     A.U. after    1 cycles

 The electronic state is 1-A.
 Alpha  occ. eigenvalues --  -24.85313 -24.85304 -10.37668  -0.91765  -0.91056
 Alpha  occ. eigenvalues --   -0.53738  -0.28641  -0.28639  -0.21190  -0.13423
 Alpha  occ. eigenvalues --   -0.13422  -0.10850  -0.10849  -0.07730
 Alpha virt. eigenvalues --    0.36943   0.39919   0.42657   0.42659   0.83154
 Alpha virt. eigenvalues --    0.83159   0.89483   1.11539   1.19114   1.19118
 Alpha virt. eigenvalues --    1.39703   1.51260   1.51261   1.67363   1.67366

 Mulliken charges:
               1
     1  F   -0.665576
     2  C   -0.018994
     3  H    0.116710
     4  H    0.116659
     5  H    0.116658
     6  F   -0.665457
 Sum of Mulliken charges =  -1.00000

 Dipole moment (field-independent basis, Debye):
    X=             -0.0013    Y=              0.0007    Z=             -0.0008  Tot=              0.0017
 Quadrupole moment (field-independent basis, Debye-Ang):
   XX=            -37.2429   YY=            -17.7221   ZZ=            -17.7225
   XY=              0.0000   XZ=              0.0000   YZ=              0.0000

  Exact polarizability:  27.348   0.000  15.050   0.000   0.012  15.010
 Approx polarizability:  30.729   0.000  15.481   0.000   0.000  15.480

 ******    1 imaginary frequencies (negative Signs) ******

                      1                      2                      3
                      A                      A                      A
 Frequencies --   -507.5749               377.6185               377.9441
 Red. masses --     11.0701                 4.2893                 4.2825
 Frc consts  --      1.6804                 0.3604                 0.3604
 IR Inten    --    860.0835                19.5472                19.6366

                      4                      5                      6
                      A                      A                      A
 Frequencies --    405.7158              1151.0012              1151.4672
 Red. masses --     18.9411                 1.0221                 1.0221
 Frc consts  --      1.8370                 0.7978                 0.7985
 IR Inten    --      0.0001                 0.0000                 0.0000

                      7                      8                      9
                      A                      A                      A
 Frequencies --   1264.6231              1383.8716              1384.9300
 Red. masses --      1.0814                 1.1269                 1.1262
 Frc consts  --      1.0190                 1.2715                 1.2727
 IR Inten    --      1.1004                 0.8000                 0.8017

                     10                     11                     12
                      A                      A                      A
 Frequencies --   3135.0237              3316.2039              3316.7388
 Red. masses --      1.0080                 1.1284                 1.1282
 Frc consts  --      5.8370                 7.3113                 7.3125
 IR Inten    --      0.0032                71.0194                70.2998

 - Thermochemistry -
 -------------------
 Temperature   298.150 Kelvin.  Pressure   1.00000 Atm.
 Atom     1 has atomic number  9 and mass  18.99840

 Molecular mass:    53.02028 amu.
 Principal axes and moments of inertia in atomic units:
                           1         2         3
     Eigenvalues --    12.59030 426.64880 426.65023
           X            1.00000   0.00000   0.00000
           Y           -0.00000   1.00000   0.00116
           Z           -0.00000  -0.00116   1.00000
 This molecule is an asymmetric top.
 Rotational symmetry number  1.
 Rotational temperatures (Kelvin)      6.87942     0.20301     0.20301
 Rotational constants (GHZ):         143.34382     4.23004     4.23003
    1 imaginary frequencies ignored.
 Zero-point vibrational energy     103268.5 (Joules/Mol)
                                   24.68175 (Kcal/Mol)
 Warning -- explicit consideration of   3 degrees of freedom as
           vibrations may cause significant error
 Vibrational temperatures:    543.31   543.78   583.73  1656.03  1656.70
          (Kelvin)           1819.51  1991.08  1992.61  4510.60  4771.28
                             4772.05

 Zero-point correction=                           0.039333 (Hartree/Particle)
 Thermal correction to Energy=                    0.043202
 Thermal correction to Enthalpy=                  0.044146
 Thermal correction to Gibbs Free Energy=         0.014028
 Sum of electronic and zero-point Energies=           -239.379093
 Sum of electronic and thermal Energies=              -239.375224
 Sum of electronic and thermal Enthalpies=            -239.374279
 Sum of electronic and thermal Free Energies=         -239.404398

                     E (Thermal)             CV                S
                      KCal/Mol        Cal/Mol-Kelvin    Cal/Mol-Kelvin
 Total                   27.110             11.322             63.390
 Electronic               0.000              0.000              0.000
 Translational            0.889              2.981             37.827
 Rotational               0.889              2.981             22.354
 Vibrational             25.332              5.360              3.209
 Vibration     1          0.748              1.518              1.049
 Vibration     2          0.748              1.517              1.047
 Vibration     3          0.771              1.458              0.942

 Optimization completed.
    -- Stationary point found.
 Normal termination of Gaussian 16 at Wed Oct  7 14:22:18 2020.
