 Gaussian 16, Revision A.03,
 Gaussian 16:  ES64L-G16RevA.03 25-Dec-2016

 ----------------------------------------------------------------------
 #P Opt(MaxCyc=100) M062X/6-31G* 5D 7F Integral=UltraFineGrid SCF=(NoSy
 mm,XQC,MaxCyc=120) EmpiricalDispersion=GD3 IOp(1/33=1)
 ----------------------------------------------------------------------

 TstMul:  Mul=     1
 TstMul:  ICh=    -1
 TstMul:  Mul=     1
 Symbolic Z-matrix:
 Charge = -1 Multiplicity = 1

 SCF Done:  E(RM062X) =  -239.434767278     A.U. after   14 cycles
 SCF Done:  E(RM062X) =  -239.435748713     A.U. after   11 cycles
 SCF Done:  E(RM062X) =  -239.436900439     A.U. after   12 cycles
 SCF Done:  E(RM062X) =  -239.436939589     A.U. after    9 cycles
 SCF Done:  E(RM062X) =  -239.436957111     A.U. after    9 cycles
 Optimization completed.
    -- Stationary point found.

                         Standard orientation:
 ---------------------------------------------------------------------
 Center     Atomic      Atomic             Coordinates (Angstroms)
 Number     Number       Type             X           Y           Z
 ---------------------------------------------------------------------
      1          9           0        0.000000    0.000000   -1.789583
      2          6           0        0.000000    0.000000   -0.367625
      3          1           0       -0.000000    1.017684    0.010516
      4          1           0       -0.881340   -0.508842    0.010516
      5          1           0        0.881340   -0.508842    0.010516
      6          9           0        0.000000    0.000000    2.031162
 ---------------------------------------------------------------------

 The electronic state is 1-A1.
 Alpha  occ. eigenvalues --  -25.01871 -24.72425 -10.38586  -1.10837  -0.77523
 Alpha  occ. eigenvalues --   -0.57287  -0.34674  -0.34674  -0.34405  -0.21084
 Alpha  occ. eigenvalues --   -0.21084  -0.00977  -0.00977  -0.00879
 Alpha virt. eigenvalues --    0.36168   0.42374   0.43039   0.43039   0.79740
 Alpha virt. eigenvalues --    0.79740   0.82962   1.13599   1.13599   1.19967
 Alpha virt. eigenvalues --    1.29162   1.52161   1.53282   1.53282   1.71223

 Mulliken charges:
               1
     1  F   -0.440797
     2  C   -0.117102
     3  H    0.138264
     4  H    0.138264
     5  H    0.138264
     6  F   -0.856893
 Sum of Mulliken charges =  -1.00000

 Dipole moment (field-independent basis, Debye):
    X=             -0.0000    Y=             -0.0000    Z=             -5.6156  Tot=              5.6156
 Quadrupole moment (field-independent basis, Debye-Ang):
   XX=            -17.7787   YY=            -17.7787   ZZ=            -40.7127
   XY=             -0.0000   XZ=             -0.0000   YZ=             -0.0000

 Normal termination of Gaussian 16 at Wed Oct  7 14:21:38 2020.
