 Gaussian 16, Revision A.03,
 Gaussian 16:  ES64L-G16RevA.03 25-Dec-2016

 ----------------------------------------------------------------------
 #P Opt(MaxCyc=100) M062X/6-31G* 5D 7F Integral=UltraFineGrid SCF=(NoSy
 mm,XQC,MaxCyc=120) EmpiricalDispersion=GD3 IOp(1/33=1)
 ----------------------------------------------------------------------

 TstMul:  Mul=     1
 TstMul:  ICh=     0
 TstMul:  Mul=     1
 Symbolic Z-matrix:
 Charge =  0 Multiplicity = 1

 SCF Done:  E(RM062X) =  -399.333605125     A.U. after   11 cycles
 SCF Done:  E(RM062X) =  -399.333636111     A.U. after    7 cycles
 SCF Done:  E(RM062X) =  -399.333636479     A.U. after    6 cycles
 Optimization completed.
    -- Stationary point found.

                         Standard orientation:
 ---------------------------------------------------------------------
 Center     Atomic      Atomic             Coordinates (Angstroms)
 Number     Number       Type             X           Y           Z
 ---------------------------------------------------------------------
      1         16           0        0.000000   -0.000000    0.102773
      2          1           0        0.000000    0.971615   -0.822187
      3          1           0       -0.000000   -0.971615   -0.822187
 ---------------------------------------------------------------------

 The electronic state is 1-A1.
 Alpha  occ. eigenvalues --  -89.90005  -8.26750  -6.18576  -6.18368  -6.17865
 Alpha  occ. eigenvalues --   -0.83398  -0.51107  -0.42467  -0.31593
 Alpha virt. eigenvalues --    0.06808   0.10823   0.36264   0.37015   0.39053
 Alpha virt. eigenvalues --    0.40977   0.72773   0.78850   0.81568   0.82149
 Alpha virt. eigenvalues --    0.82656   1.09200   1.27922

 Mulliken charges:
               1
     1  S   -0.246795
     2  H    0.123397
     3  H    0.123397
 Sum of Mulliken charges =  -0.00000

 Dipole moment (field-independent basis, Debye):
    X=             -0.0000    Y=              0.0000    Z=             -1.4473  Tot=              1.4473
 Quadrupole moment (field-independent basis, Debye-Ang):
   XX=            -16.6072   YY=            -12.2035   ZZ=            -13.5859
   XY=              0.0000   XZ=              0.0000   YZ=             -0.0000

 Normal termination of Gaussian 16 at Wed Oct  7 14:21:33 2020.
