 Gaussian 16, Revision A.03,
 Gaussian 16:  ES64L-G16RevA.03 25-Dec-2016

 ----------------------------------------------------------------------
 #P Opt(MaxCyc=100) M062X/6-31G* 5D 7F Integral=UltraFineGrid SCF=(NoSy
 mm,XQC,MaxCyc=120) EmpiricalDispersion=GD3 IOp(1/33=1)
 ----------------------------------------------------------------------

 TstMul:  Mul=     1
 TstMul:  ICh=     0
 TstMul:  Mul=     1
 Symbolic Z-matrix:
 Charge =  0 Multiplicity = 1

 SCF Done:  E(RM062X) =  -460.752236588     A.U. after   10 cycles
 SCF Done:  E(RM062X) =  -460.752284637     A.U. after    7 cycles
 Optimization completed.
    -- Stationary point found.

                         Standard orientation:
 ---------------------------------------------------------------------
 Center     Atomic      Atomic             Coordinates (Angstroms)
 Number     Number       Type             X           Y           Z
 ---------------------------------------------------------------------
      1         17           0        0.000000    0.000000    0.071322
      2          1           0        0.000000    0.000000   -1.212474
 ---------------------------------------------------------------------

 The electronic state is 1-SG.
 Alpha  occ. eigenvalues -- -102.64953  -9.81564  -7.53779  -7.53040  -7.53040
 Alpha  occ. eigenvalues --   -0.94286  -0.53752  -0.39434  -0.39434
 Alpha virt. eigenvalues --    0.06504   0.42150   0.45580   0.48712   0.48712
 Alpha virt. eigenvalues --    0.74717   0.90358   0.90358   0.93550   0.93553
 Alpha virt. eigenvalues --    1.25476

 Mulliken charges:
               1
     1  Cl  -0.238062
     2  H    0.238062
 Sum of Mulliken charges =   0.00000

 Dipole moment (field-independent basis, Debye):
    X=              0.0000    Y=             -0.0000    Z=             -1.5067  Tot=              1.5067
 Quadrupole moment (field-independent basis, Debye-Ang):
   XX=            -13.9191   YY=            -13.9191   ZZ=            -10.3315
   XY=             -0.0000   XZ=              0.0000   YZ=              0.0000

 Normal termination of Gaussian 16 at Wed Oct  7 14:21:27 2020.
