 Gaussian 16, Revision A.03,

 ----------------------------------------------------------------------
 #P Opt(TS,MaxCyc=50,NoEigenTest,MaxStep=10,AddRedundant) M062X/6-31G*
 5D 7F Integral=UltraFineGrid SCF=(NoSymm,XQC,MaxCyc=120) EmpiricalDisp
 ersion=GD3 IOp(1/33=1)
 ----------------------------------------------------------------------

 TstMul:  Mul=     2
 TstMul:  ICh=     0
 TstMul:  Mul=     2
 Symbolic Z-matrix:
 Charge =  0 Multiplicity = 2

 SCF Done:  E(UM062X) =  -140.109192176     A.U. after   17 cycles
 SCF Done:  E(UM062X) =  -140.109312949     A.U. after   15 cycles
 SCF Done:  E(UM062X) =  -140.109213398     A.U. after   17 cycles
 SCF Done:  E(UM062X) =  -140.109255885     A.U. after   11 cycles
 SCF Done:  E(UM062X) =  -140.109278976     A.U. after   15 cycles
 SCF Done:  E(UM062X) =  -140.109270078     A.U. after   15 cycles
 Optimization completed.
    -- Stationary point found.
 Normal termination of Gaussian 16 at Wed Oct  7 14:22:54 2020.
 Gaussian 16:  ES64L-G16RevA.03 25-Dec-2016

 ----------------------------------------------------------------------
 #P Freq M062X/6-31G* 5D 7F Integral=UltraFineGrid SCF=(NoSymm,XQC,MaxC
 yc=120) EmpiricalDispersion=GD3 IOp(1/33=1) Geom=Check Guess=Read
 ----------------------------------------------------------------------

 TstMul:  Mul=     2
 TstMul:  ICh=     0
 TstMul:  Mul=     2
 Structure from the checkpoint file:  "MN_53_hfch3ts_BH76_M062XD30_631Gs.chk"
 Charge =  0 Multiplicity = 2

                         Standard orientation:
 ---------------------------------------------------------------------
 Center     Atomic      Atomic             Coordinates (Angstroms)
 Number     Number       Type             X           Y           Z
 ---------------------------------------------------------------------
      1          1           0        0.001265    2.006358    0.000000
      2          9           0       -0.000051    0.768909    0.000000
      3          6           0       -0.000051   -0.908691    0.000000
      4          1           0        1.054361   -1.158113    0.000000
      5          1           0       -0.527429   -1.158140    0.913081
      6          1           0       -0.527429   -1.158140   -0.913081
 ---------------------------------------------------------------------

 SCF Done:  E(UM062X) =  -140.109270078     A.U. after    1 cycles

 The electronic state is 2-A'.
 Alpha  occ. eigenvalues --  -25.23334 -10.58417  -1.28434  -0.79833  -0.57274
 Alpha  occ. eigenvalues --   -0.52451  -0.52448  -0.44730  -0.44727  -0.20476
 Alpha virt. eigenvalues --    0.08003   0.16345   0.21710   0.21713   0.54497
 Alpha virt. eigenvalues --    0.59257   0.59263   0.74792   0.90134   0.94679
 Alpha virt. eigenvalues --    0.94687   1.05752   1.29653   1.29656   1.59187

  Beta  occ. eigenvalues --  -25.23110 -10.58013  -1.27562  -0.77904  -0.55554
  Beta  occ. eigenvalues --   -0.51857  -0.51853  -0.44360  -0.44357
  Beta virt. eigenvalues --   -0.00898   0.11855   0.16560   0.22421   0.22424
  Beta virt. eigenvalues --    0.57586   0.59778   0.59784   0.76914   0.91256
  Beta virt. eigenvalues --    0.96419   0.96428   1.07647   1.30295   1.30297

 Mulliken charges and spin densities:
               1          2
     1  H    0.119667   0.634537
     2  F   -0.356464  -0.116324
     3  C   -0.310756   0.560913
     4  H    0.182528  -0.026379
     5  H    0.182513  -0.026373
     6  H    0.182513  -0.026373
 Sum of Mulliken charges =  -0.00000   1.00000

 Dipole moment (field-independent basis, Debye):
    X=              0.0004    Y=             -1.3181    Z=              0.0000  Tot=              1.3181
 Quadrupole moment (field-independent basis, Debye-Ang):
   XX=            -12.8463   YY=            -12.0909   ZZ=            -12.8474
   XY=              0.0012   XZ=             -0.0000   YZ=              0.0000

  Exact polarizability:  13.085   0.020  56.734  -0.000   0.000  13.087
 Approx polarizability:  13.181   0.022  52.520  -0.000  -0.000  13.179

 ******    1 imaginary frequencies (negative Signs) ******

                      1                      2                      3
                     A'                     A'                     A"
 Frequencies --  -1783.0178               319.5459               319.6893
 Red. masses --      1.7358                 1.1469                 1.1470
 Frc consts  --      3.2514                 0.0690                 0.0691
 IR Inten    --   3898.9036                 9.6571                 9.6172

                      4                      5                      6
                     A'                     A"                     A'
 Frequencies --    826.0914               827.4056               992.7980
 Red. masses --      1.1448                 1.1447                 1.5945
 Frc consts  --      0.4603                 0.4617                 0.9260
 IR Inten    --      0.1973                 0.1682               264.2969

                      7                      8                      9
                     A'                     A"                     A'
 Frequencies --   1220.3291              1483.7282              1484.6981
 Red. masses --      1.3249                 1.0842                 1.0842
 Frc consts  --      1.1625                 1.4062                 1.4081
 IR Inten    --     85.3985                 2.8422                 2.8311

                     10                     11                     12
                     A'                     A"                     A'
 Frequencies --   3159.0248              3306.6594              3307.2559
 Red. masses --      1.0169                 1.1150                 1.1150
 Frc consts  --      5.9791                 7.1830                 7.1858
 IR Inten    --      0.7501                10.3172                10.2932

 - Thermochemistry -
 -------------------
 Temperature   298.150 Kelvin.  Pressure   1.00000 Atm.
 Atom     1 has atomic number  1 and mass   1.00783

 Molecular mass:    35.02970 amu.
 Principal axes and moments of inertia in atomic units:
                           1         2         3
     Eigenvalues --    12.00441 109.96164 109.96382
           X            0.00011   1.00000   0.00000
           Y            1.00000  -0.00011   0.00000
           Z            0.00000   0.00000   1.00000
 This molecule is an asymmetric top.
 Rotational symmetry number  1.
 Rotational temperatures (Kelvin)      7.21518     0.78767     0.78766
 Rotational constants (GHZ):         150.33986    16.41246    16.41214
    1 imaginary frequencies ignored.
 Zero-point vibrational energy     103161.3 (Joules/Mol)
                                   24.65615 (Kcal/Mol)
 Warning -- explicit consideration of   2 degrees of freedom as
           vibrations may cause significant error
 Vibrational temperatures:    459.76   459.96  1188.56  1190.45  1428.41
          (Kelvin)           1755.78  2134.75  2136.15  4545.13  4757.55
                             4758.40

 Zero-point correction=                           0.039292 (Hartree/Particle)
 Thermal correction to Energy=                    0.043123
 Thermal correction to Enthalpy=                  0.044067
 Thermal correction to Gibbs Free Energy=         0.015209
 Sum of electronic and zero-point Energies=           -140.069978
 Sum of electronic and thermal Energies=              -140.066147
 Sum of electronic and thermal Enthalpies=            -140.065203
 Sum of electronic and thermal Free Energies=         -140.094062

                     E (Thermal)             CV                S
                      KCal/Mol        Cal/Mol-Kelvin    Cal/Mol-Kelvin
 Total                   27.060             11.185             60.738
 Electronic               0.000              0.000              1.377
 Translational            0.889              2.981             36.591
 Rotational               0.889              2.981             19.612
 Vibrational             25.283              5.223              3.157
 Vibration     1          0.705              1.636              1.312
 Vibration     2          0.706              1.636              1.312

 Optimization completed.
    -- Stationary point found.
 Normal termination of Gaussian 16 at Wed Oct  7 14:23:24 2020.
