 Gaussian 16, Revision A.03,

 ----------------------------------------------------------------------
 #P Opt(TS,MaxCyc=50,NoEigenTest,MaxStep=10,AddRedundant) M062X/6-31G*
 5D 7F Integral=UltraFineGrid SCF=(NoSymm,XQC,MaxCyc=120) EmpiricalDisp
 ersion=GD3 IOp(1/33=1)
 ----------------------------------------------------------------------

 TstMul:  Mul=     2
 TstMul:  ICh=     0
 TstMul:  Mul=     2
 Symbolic Z-matrix:
 Charge =  0 Multiplicity = 2

 SCF Done:  E(UM062X) =  -100.814390286     A.U. after   12 cycles
 SCF Done:  E(UM062X) =  -100.815395737     A.U. after   10 cycles
 SCF Done:  E(UM062X) =  -100.815537648     A.U. after   10 cycles
 SCF Done:  E(UM062X) =  -100.815539360     A.U. after    7 cycles
 Optimization completed.
    -- Stationary point found.
 Normal termination of Gaussian 16 at Wed Oct  7 14:22:11 2020.
 Gaussian 16:  ES64L-G16RevA.03 25-Dec-2016

 ----------------------------------------------------------------------
 #P Freq M062X/6-31G* 5D 7F Integral=UltraFineGrid SCF=(NoSymm,XQC,MaxC
 yc=120) EmpiricalDispersion=GD3 IOp(1/33=1) Geom=Check Guess=Read
 ----------------------------------------------------------------------

 TstMul:  Mul=     2
 TstMul:  ICh=     0
 TstMul:  Mul=     2
 Structure from the checkpoint file:  "MN_54_hfhts_BH76_M062XD30_631Gs.chk"
 Charge =  0 Multiplicity = 2

                         Standard orientation:
 ---------------------------------------------------------------------
 Center     Atomic      Atomic             Coordinates (Angstroms)
 Number     Number       Type             X           Y           Z
 ---------------------------------------------------------------------
      1          1           0        0.000000    0.000000    1.177451
      2          9           0        0.000000    0.000000    0.000000
      3          1           0        0.000000    0.000000   -1.177451
 ---------------------------------------------------------------------

 SCF Done:  E(UM062X) =  -100.815539360     A.U. after    1 cycles

 The electronic state is 2-SGG.
 Alpha  occ. eigenvalues --  -25.26751  -1.32563  -0.66644  -0.51235  -0.51235
 Alpha  occ. eigenvalues --   -0.22490
 Alpha virt. eigenvalues --    0.06499   0.64322   0.81710   1.23679   1.23679
 Alpha virt. eigenvalues --    1.66828   1.74650   1.82955   1.82955   1.91147
 Alpha virt. eigenvalues --    1.91149   2.37886
  Beta  occ. eigenvalues --  -25.26419  -1.31293  -0.64301  -0.50999  -0.50999
  Beta virt. eigenvalues --   -0.03296   0.07678   0.66363   0.83820   1.23967
  Beta virt. eigenvalues --    1.23967   1.65799   1.75636   1.82609   1.82609
  Beta virt. eigenvalues --    1.90859   1.90861   2.41332

 Mulliken charges and spin densities:
               1          2
     1  H    0.195950   0.558304
     2  F   -0.391899  -0.116609
     3  H    0.195950   0.558304
 Sum of Mulliken charges =  -0.00000   1.00000

 Dipole moment (field-independent basis, Debye):
    X=              0.0000    Y=             -0.0000    Z=             -0.0000  Tot=              0.0000
 Quadrupole moment (field-independent basis, Debye-Ang):
   XX=             -7.0141   YY=             -7.0141   ZZ=             -4.8262
   XY=              0.0000   XZ=             -0.0000   YZ=              0.0000

  Exact polarizability:   1.966  -0.000   1.966   0.000   0.000  39.489
 Approx polarizability:   2.069  -0.000   2.069  -0.000  -0.000  38.417

 ******    1 imaginary frequencies (negative Signs) ******

                      1                      2                      3
                     SGU                    PIU                    PIU
 Frequencies --  -2636.8320               345.6427               345.6427
 Red. masses --      1.1085                 1.1085                 1.1085
 Frc consts  --      4.5410                 0.0780                 0.0780
 IR Inten    --   6806.0121                44.2797                44.2797

                      4
                     SGG
 Frequencies --   2204.2720
 Red. masses --      1.0078
 Frc consts  --      2.8851
 IR Inten    --      0.0000

 - Thermochemistry -
 -------------------
 Temperature   298.150 Kelvin.  Pressure   1.00000 Atm.
 Atom     1 has atomic number  1 and mass   1.00783

 Molecular mass:    21.01405 amu.
 Principal axes and moments of inertia in atomic units:
                           1         2         3
     Eigenvalues --     0.00000   9.97926   9.97926
           X           -0.00000   1.00000   0.00000
           Y            0.00000   0.00000   1.00000
           Z            1.00000   0.00000   0.00000
 This molecule is a prolate symmetric top.
 Rotational symmetry number  2.
 Rotational temperature (Kelvin)      8.67940
 Rotational constant (GHZ):         180.849253
    1 imaginary frequencies ignored.
 Zero-point vibrational energy      17319.3 (Joules/Mol)
                                    4.13941 (Kcal/Mol)
 Warning -- explicit consideration of   2 degrees of freedom as
           vibrations may cause significant error
 Vibrational temperatures:    497.30   497.30  3171.46
          (Kelvin)

 Zero-point correction=                           0.006597 (Hartree/Particle)
 Thermal correction to Energy=                    0.009690
 Thermal correction to Enthalpy=                  0.010634
 Thermal correction to Gibbs Free Energy=        -0.011439
 Sum of electronic and zero-point Energies=           -100.808943
 Sum of electronic and thermal Energies=              -100.805850
 Sum of electronic and thermal Enthalpies=            -100.804906
 Sum of electronic and thermal Free Energies=         -100.826978

                     E (Thermal)             CV                S
                      KCal/Mol        Cal/Mol-Kelvin    Cal/Mol-Kelvin
 Total                    6.080              8.142             46.456
 Electronic               0.000              0.000              1.377
 Translational            0.889              2.981             35.068
 Rotational               0.592              1.987              7.638
 Vibrational              4.599              3.174              2.373
 Vibration     1          0.724              1.584              1.186
 Vibration     2          0.724              1.584              1.186

 Optimization completed.
    -- Stationary point found.

 1\1\GINC-NODE22\Freq\UM062X\6-31G(d)\F1H2(2)\RPEVERATI\07-Oct-2020\0\\
 #P Freq M062X/6-31G* 5D 7F Integral=UltraFineGrid SCF=(NoSymm,XQC,MaxC
 yc=120) EmpiricalDispersion=GD3 IOp(1/33=1) Geom=Check Guess=Read\\TS
 search on BH76.\\0,2\H,0.,0.,1.1774505329\F,0.,0.,0.\H,0.,0.,-1.177450
 5329\\Version=ES64L-G16RevA.03\State=2-SGG\HF=-100.8155394\S2=0.761371
 \S2-1=0.\S2A=0.750001\RMSD=2.505e-10\RMSF=9.778e-06\ZeroPoint=0.006596
 6\Thermal=0.0096895\Dipole=0.,0.,0.\DipoleDeriv=0.1438493,0.,0.,0.,0.1
 438493,0.,0.,0.,-1.7834131,-0.2876986,0.,0.,0.,-0.2876986,0.,0.,0.,3.5

 Normal termination of Gaussian 16 at Wed Oct  7 14:22:32 2020.
