 Gaussian 16, Revision A.03,

 ----------------------------------------------------------------------
 #P Opt(TS,MaxCyc=50,NoEigenTest,MaxStep=10,AddRedundant) M062X/6-31G*
 5D 7F Integral=UltraFineGrid SCF=(NoSymm,XQC,MaxCyc=120) EmpiricalDisp
 ersion=GD3 IOp(1/33=1)
 ----------------------------------------------------------------------

 TstMul:  Mul=     2
 TstMul:  ICh=     0
 TstMul:  Mul=     2
 Symbolic Z-matrix:
 Charge =  0 Multiplicity = 2

 SCF Done:  E(UM062X) =  -199.911789742     A.U. after   19 cycles
 SCF Done:  E(UM062X) =  -199.912823387     A.U. after   17 cycles
 SCF Done:  E(UM062X) =  -199.911549373     A.U. after   17 cycles
 SCF Done:  E(UM062X) =  -199.911364540     A.U. after   17 cycles
 SCF Done:  E(UM062X) =  -199.911319213     A.U. after   11 cycles
 SCF Done:  E(UM062X) =  -199.911316626     A.U. after   10 cycles
 Optimization completed.
    -- Stationary point found.
 Normal termination of Gaussian 16 at Wed Oct  7 14:22:35 2020.
 Gaussian 16:  ES64L-G16RevA.03 25-Dec-2016

 ----------------------------------------------------------------------
 #P Freq M062X/6-31G* 5D 7F Integral=UltraFineGrid SCF=(NoSymm,XQC,MaxC
 yc=120) EmpiricalDispersion=GD3 IOp(1/33=1) Geom=Check Guess=Read
 ----------------------------------------------------------------------

 TstMul:  Mul=     2
 TstMul:  ICh=     0
 TstMul:  Mul=     2
 Structure from the checkpoint file:  "MN_52_hf2ts_BH76_M062XD30_631Gs.chk"
 Charge =  0 Multiplicity = 2

                         Standard orientation:
 ---------------------------------------------------------------------
 Center     Atomic      Atomic             Coordinates (Angstroms)
 Number     Number       Type             X           Y           Z
 ---------------------------------------------------------------------
      1          1           0        0.000000    0.000000   -2.259880
      2          9           0        0.000000    0.000000   -0.594290
      3          9           0        0.000000    0.000000    0.845388
 ---------------------------------------------------------------------

 SCF Done:  E(UM062X) =  -199.911316626     A.U. after    1 cycles

 The electronic state is 2-SG.
 Alpha  occ. eigenvalues --  -25.33982 -25.32240  -1.45866  -1.23142  -0.66356
 Alpha  occ. eigenvalues --   -0.60953  -0.60953  -0.48570  -0.48570  -0.37443
 Alpha virt. eigenvalues --   -0.04563   0.72798   1.16075   1.16075   1.23837
 Alpha virt. eigenvalues --    1.33714   1.33714   1.37750   1.43888   1.61673
 Alpha virt. eigenvalues --    1.61673   1.78614   1.78618   1.83190   2.00095

  Beta  occ. eigenvalues --  -25.34053 -25.31656  -1.45053  -1.22210  -0.64045
  Beta  occ. eigenvalues --   -0.60702  -0.60702  -0.48017  -0.48017
  Beta virt. eigenvalues --   -0.13998  -0.01743   0.58346   1.16273   1.16273
  Beta virt. eigenvalues --    1.25102   1.33970   1.33970   1.37903   1.42462
  Beta virt. eigenvalues --    1.61788   1.61788   1.78649   1.78653   1.83181

 Mulliken charges and spin densities:
               1          2
     1  H    0.088213   0.866764
     2  F   -0.044033  -0.107265
     3  F   -0.044180   0.240501
 Sum of Mulliken charges =  -0.00000   1.00000

 Dipole moment (field-independent basis, Debye):
    X=              0.0000    Y=              0.0000    Z=             -0.8899  Tot=              0.8899
 Quadrupole moment (field-independent basis, Debye-Ang):
   XX=            -10.5261   YY=            -10.5261   ZZ=             -7.9563
   XY=              0.0000   XZ=              0.0000   YZ=              0.0000

  Exact polarizability:   2.874  -0.000   2.874   0.000  -0.000  28.436
 Approx polarizability:   3.163   0.000   3.163  -0.000   0.000  30.415

 ******    1 imaginary frequencies (negative Signs) ******

                      1                      2                      3
                     SG                     PI                     PI
 Frequencies --  -1053.9318               246.4032               246.4032
 Red. masses --      1.4606                 1.3061                 1.3061
 Frc consts  --      0.9559                 0.0467                 0.0467
 IR Inten    --    584.5099                 5.2094                 5.2094

                      4
                     SG
 Frequencies --    964.1574
 Red. masses --      2.9765
 Frc consts  --      1.6303
 IR Inten    --     20.6652

 - Thermochemistry -
 -------------------
 Temperature   298.150 Kelvin.  Pressure   1.00000 Atm.
 Atom     1 has atomic number  1 and mass   1.00783

 Molecular mass:    39.00463 amu.
 Principal axes and moments of inertia in atomic units:
                           1         2         3
     Eigenvalues --     0.00000  90.25986  90.25986
           X            0.00000   0.00000   1.00000
           Y            0.00000   1.00000   0.00000
           Z            1.00000   0.00000   0.00000
 This molecule is a prolate symmetric top.
 Rotational symmetry number  1.
 Rotational temperature (Kelvin)      0.95961
 Rotational constant (GHZ):          19.994947
    1 imaginary frequencies ignored.
 Zero-point vibrational energy       8714.6 (Joules/Mol)
                                    2.08283 (Kcal/Mol)
 Warning -- explicit consideration of   2 degrees of freedom as
           vibrations may cause significant error
 Vibrational temperatures:    354.52   354.52  1387.21
          (Kelvin)

 Zero-point correction=                           0.003319 (Hartree/Particle)
 Thermal correction to Energy=                    0.006705
 Thermal correction to Enthalpy=                  0.007649
 Thermal correction to Gibbs Free Energy=        -0.018626
 Sum of electronic and zero-point Energies=           -199.907997
 Sum of electronic and thermal Energies=              -199.904612
 Sum of electronic and thermal Enthalpies=            -199.903667
 Sum of electronic and thermal Free Energies=         -199.929943

                     E (Thermal)             CV                S
                      KCal/Mol        Cal/Mol-Kelvin    Cal/Mol-Kelvin
 Total                    4.207              8.924             55.301
 Electronic               0.000              0.000              1.377
 Translational            0.889              2.981             36.912
 Rotational               0.592              1.987             13.391
 Vibrational              2.726              3.956              3.620
 Vibration     1          0.661              1.769              1.756
 Vibration     2          0.661              1.769              1.756

 Optimization completed.
    -- Stationary point found.

 1\1\GINC-NODE06\Freq\UM062X\6-31G(d)\F2H1(2)\RPEVERATI\07-Oct-2020\0\\
 #P Freq M062X/6-31G* 5D 7F Integral=UltraFineGrid SCF=(NoSymm,XQC,MaxC
 yc=120) EmpiricalDispersion=GD3 IOp(1/33=1) Geom=Check Guess=Read\\TS
 search on BH76.\\0,2\H,0.,0.,-2.2514049495\F,0.,0.,-0.585814234\F,0.,0
 .,0.8538629976\\Version=ES64L-G16RevA.03\State=2-SG\HF=-199.9113166\S2
 =0.770193\S2-1=0.\S2A=0.750004\RMSD=2.188e-10\RMSF=4.087e-05\ZeroPoint
 =0.0033192\Thermal=0.0067051\Dipole=0.,0.,-0.3501194\DipoleDeriv=0.081
 0798,0.,0.,0.,0.0810798,0.,0.,0.,-0.5572657,-0.0463018,0.,0.,0.,-0.046

 Normal termination of Gaussian 16 at Wed Oct  7 14:23:00 2020.
