 Gaussian 16, Revision A.03,
 Gaussian 16:  ES64L-G16RevA.03 25-Dec-2016

 ----------------------------------------------------------------------
 #P Opt(MaxCyc=100) M062X/6-31G* 5D 7F Integral=UltraFineGrid SCF=(NoSy
 mm,XQC,MaxCyc=120) EmpiricalDispersion=GD3 IOp(1/33=1)
 ----------------------------------------------------------------------

 TstMul:  Mul=     2
 TstMul:  ICh=     0
 TstMul:  Mul=     2
 Symbolic Z-matrix:
 Charge =  0 Multiplicity = 2

 SCF Done:  E(UM062X) =  -113.795753974     A.U. after   16 cycles
 SCF Done:  E(UM062X) =  -113.795868411     A.U. after   14 cycles
 SCF Done:  E(UM062X) =  -113.795871342     A.U. after    9 cycles
 Optimization completed.
    -- Stationary point found.

                         Standard orientation:
 ---------------------------------------------------------------------
 Center     Atomic      Atomic             Coordinates (Angstroms)
 Number     Number       Type             X           Y           Z
 ---------------------------------------------------------------------
      1          1           0       -0.877795    1.203718    0.000000
      2          6           0        0.062700    0.586125    0.000000
      3          8           0        0.062700   -0.590058    0.000000
 ---------------------------------------------------------------------

 The electronic state is 2-A'.
 Alpha  occ. eigenvalues --  -19.70526 -10.64608  -1.23259  -0.70348  -0.58288
 Alpha  occ. eigenvalues --   -0.51510  -0.50397  -0.27158
 Alpha virt. eigenvalues --    0.01468   0.18284   0.28854   0.56809   0.57672
 Alpha virt. eigenvalues --    0.70063   0.78573   0.88013   0.94178   1.02172
 Alpha virt. eigenvalues --    1.05228   1.54108   1.56014   1.57019   1.58272

  Beta  occ. eigenvalues --  -19.69796 -10.63885  -1.21117  -0.67082  -0.54946
  Beta  occ. eigenvalues --   -0.49228  -0.45318
  Beta virt. eigenvalues --   -0.02647   0.03277   0.18742   0.28602   0.57367
  Beta virt. eigenvalues --    0.60861   0.71335   0.80632   0.89047   0.95509
  Beta virt. eigenvalues --    1.02339   1.07630   1.56507   1.57269   1.59306

 Mulliken charges and spin densities:
               1          2
     1  H    0.164122   0.162370
     2  C    0.091683   0.572378
     3  O   -0.255805   0.265252
 Sum of Mulliken charges =   0.00000   1.00000

 Dipole moment (field-independent basis, Debye):
    X=             -0.9429    Y=              1.3379    Z=              0.0000  Tot=              1.6368
 Quadrupole moment (field-independent basis, Debye-Ang):
   XX=            -11.1064   YY=            -11.2885   ZZ=            -10.6575
   XY=             -1.0288   XZ=              0.0000   YZ=              0.0000

 Normal termination of Gaussian 16 at Wed Oct  7 14:22:03 2020.
