 Gaussian 16, Revision A.03,

 ----------------------------------------------------------------------
 #P Opt(TS,MaxCyc=50,NoEigenTest,MaxStep=10,AddRedundant) M062X/6-31G*
 5D 7F Integral=UltraFineGrid SCF=(NoSymm,XQC,MaxCyc=120) EmpiricalDisp
 ersion=GD3 IOp(1/33=1)
 ----------------------------------------------------------------------

 TstMul:  Mul=     1
 TstMul:  ICh=    -1
 TstMul:  Mul=     1
 Symbolic Z-matrix:
 Charge = -1 Multiplicity = 1

 SCF Done:  E(RM062X) =  -215.376556772     A.U. after   14 cycles
 SCF Done:  E(RM062X) =  -215.377854227     A.U. after   14 cycles
 SCF Done:  E(RM062X) =  -215.378137127     A.U. after   13 cycles
 SCF Done:  E(RM062X) =  -215.378170779     A.U. after   10 cycles
 SCF Done:  E(RM062X) =  -215.378052402     A.U. after   13 cycles
 SCF Done:  E(RM062X) =  -215.378080563     A.U. after   12 cycles
 SCF Done:  E(RM062X) =  -215.378093636     A.U. after   13 cycles
 SCF Done:  E(RM062X) =  -215.378095608     A.U. after   10 cycles
 SCF Done:  E(RM062X) =  -215.378095622     A.U. after   12 cycles
 SCF Done:  E(RM062X) =  -215.378096181     A.U. after    9 cycles
 SCF Done:  E(RM062X) =  -215.378096174     A.U. after    7 cycles
 SCF Done:  E(RM062X) =  -215.378096187     A.U. after    7 cycles
 Optimization completed.
    -- Stationary point found.
 Normal termination of Gaussian 16 at Wed Oct  7 14:25:12 2020.
 Gaussian 16:  ES64L-G16RevA.03 25-Dec-2016

 ----------------------------------------------------------------------
 #P Freq M062X/6-31G* 5D 7F Integral=UltraFineGrid SCF=(NoSymm,XQC,MaxC
 yc=120) EmpiricalDispersion=GD3 IOp(1/33=1) Geom=Check Guess=Read
 ----------------------------------------------------------------------

 TstMul:  Mul=     1
 TstMul:  ICh=    -1
 TstMul:  Mul=     1
 Structure from the checkpoint file:  "MN_63_hoch3fts_BH76_M062XD30_631Gs.chk"
 Charge = -1 Multiplicity = 1

                         Standard orientation:
 ---------------------------------------------------------------------
 Center     Atomic      Atomic             Coordinates (Angstroms)
 Number     Number       Type             X           Y           Z
 ---------------------------------------------------------------------
      1          9           0        1.796256   -0.019590   -0.000006
      2          6           0        0.073992    0.023689    0.000017
      3          1           0        0.041150    1.102834   -0.000813
      4          1           0        0.026224   -0.508658   -0.938835
      5          1           0        0.026219   -0.507245    0.939661
      6          8           0       -1.830913    0.099131   -0.000009
      7          1           0       -2.056549   -0.845803    0.000008
 ---------------------------------------------------------------------

 SCF Done:  E(RM062X) =  -215.378096187     A.U. after    1 cycles

 The electronic state is 1-A.
 Alpha  occ. eigenvalues --  -24.86768 -19.30563 -10.37453  -0.92979  -0.76163
 Alpha  occ. eigenvalues --   -0.53587  -0.28869  -0.28582  -0.21827  -0.17636
 Alpha  occ. eigenvalues --   -0.13417  -0.12965  -0.05608  -0.04112
 Alpha virt. eigenvalues --    0.34661   0.37309   0.42260   0.42605   0.43480
 Alpha virt. eigenvalues --    0.82639   0.83512   0.93710   1.10727   1.15913
 Alpha virt. eigenvalues --    1.18370   1.20684   1.27667   1.29880   1.42089

 Mulliken charges:
               1
     1  F   -0.640569
     2  C   -0.069660
     3  H    0.131954
     4  H    0.116910
     5  H    0.116950
     6  O   -0.934878
     7  H    0.279294
 Sum of Mulliken charges =  -1.00000

 Dipole moment (field-independent basis, Debye):
    X=              0.4049    Y=             -1.2812    Z=              0.0001  Tot=              1.3437
 Quadrupole moment (field-independent basis, Debye-Ang):
   XX=            -39.6349   YY=            -18.2885   ZZ=            -19.7609
   XY=              3.1595   XZ=             -0.0001   YZ=             -0.0001

  Exact polarizability:  35.870   2.365  20.109  -0.000   0.000  16.033
 Approx polarizability:  38.467   0.990  21.616  -0.000   0.000  16.553

 ******    1 imaginary frequencies (negative Signs) ******

                      1                      2                      3
                      A                      A                      A
 Frequencies --   -511.8051               200.7695               339.7459
 Red. masses --     10.7931                 1.0536                 3.0740
 Frc consts  --      1.6657                 0.0250                 0.2091
 IR Inten    --    997.1786                50.5057                20.4926

                      4                      5                      6
                      A                      A                      A
 Frequencies --    368.8166               397.6487               817.8246
 Red. masses --      4.3705                12.6813                 1.1632
 Frc consts  --      0.3503                 1.1814                 0.4584
 IR Inten    --     28.6304                 6.9043                42.7368

                      7                      8                      9
                      A                      A                      A
 Frequencies --   1149.2908              1184.9651              1257.4209
 Red. masses --      1.0220                 1.0374                 1.0689
 Frc consts  --      0.7953                 0.8583                 0.9957
 IR Inten    --      0.4353                 0.3366                 9.2192

                     10                     11                     12
                      A                      A                      A
 Frequencies --   1381.5691              1383.2398              3133.7873
 Red. masses --      1.1306                 1.1207                 1.0086
 Frc consts  --      1.2714                 1.2634                 5.8360
 IR Inten    --      0.8687                 1.1997                 0.6522

                     13                     14                     15
                      A                      A                      A
 Frequencies --   3310.4186              3321.6676              3705.3505
 Red. masses --      1.1290                 1.1268                 1.0674
 Frc consts  --      7.2896                 7.3252                 8.6348
 IR Inten    --     68.3323                54.9227                68.8523

 - Thermochemistry -
 -------------------
 Temperature   298.150 Kelvin.  Pressure   1.00000 Atm.
 Atom     1 has atomic number  9 and mass  18.99840

 Molecular mass:    51.02462 amu.
 Principal axes and moments of inertia in atomic units:
                           1         2         3
     Eigenvalues --    15.62989 431.31502 434.24491
           X            0.99988   0.01574  -0.00000
           Y           -0.01574   0.99988   0.00000
           Z            0.00000  -0.00000   1.00000
 This molecule is an asymmetric top.
 Rotational symmetry number  1.
 Rotational temperatures (Kelvin)      5.54156     0.20081     0.19946
 Rotational constants (GHZ):         115.46731     4.18428     4.15604
    1 imaginary frequencies ignored.
 Zero-point vibrational energy     131305.2 (Joules/Mol)
                                   31.38270 (Kcal/Mol)
 Warning -- explicit consideration of   4 degrees of freedom as
           vibrations may cause significant error
 Vibrational temperatures:    288.86   488.82   530.64   572.13  1176.67
          (Kelvin)           1653.57  1704.90  1809.15  1987.77  1990.17
                             4508.82  4762.95  4779.14  5331.17

 Zero-point correction=                           0.050012 (Hartree/Particle)
 Thermal correction to Energy=                    0.054570
 Thermal correction to Enthalpy=                  0.055514
 Thermal correction to Gibbs Free Energy=         0.024125
 Sum of electronic and zero-point Energies=           -215.328085
 Sum of electronic and thermal Energies=              -215.323526
 Sum of electronic and thermal Enthalpies=            -215.322582
 Sum of electronic and thermal Free Energies=         -215.353971

                     E (Thermal)             CV                S
                      KCal/Mol        Cal/Mol-Kelvin    Cal/Mol-Kelvin
 Total                   34.243             13.880             66.065
 Electronic               0.000              0.000              0.000
 Translational            0.889              2.981             37.712
 Rotational               0.889              2.981             22.597
 Vibrational             32.466              7.919              5.755
 Vibration     1          0.638              1.839              2.126
 Vibration     2          0.720              1.596              1.213
 Vibration     3          0.741              1.536              1.085
 Vibration     4          0.764              1.475              0.971

 Optimization completed.
    -- Stationary point found.
 Normal termination of Gaussian 16 at Wed Oct  7 14:25:46 2020.
