 Gaussian 16, Revision A.03,
 Gaussian 16:  ES64L-G16RevA.03 25-Dec-2016

 ----------------------------------------------------------------------
 #P Opt(MaxCyc=100) M062X/6-31G* 5D 7F Integral=UltraFineGrid SCF=(NoSy
 mm,XQC,MaxCyc=120) EmpiricalDispersion=GD3 IOp(1/33=1)
 ----------------------------------------------------------------------

 TstMul:  Mul=     2
 TstMul:  ICh=     0
 TstMul:  Mul=     2
 Symbolic Z-matrix:
 Charge =  0 Multiplicity = 2

 SCF Done:  E(UM062X) =  -398.691058167     A.U. after   14 cycles
 SCF Done:  E(UM062X) =  -398.691075440     A.U. after    8 cycles
 Optimization completed.
    -- Stationary point found.

                         Standard orientation:
 ---------------------------------------------------------------------
 Center     Atomic      Atomic             Coordinates (Angstroms)
 Number     Number       Type             X           Y           Z
 ---------------------------------------------------------------------
      1         16           0        0.000000    0.000000    0.079202
      2          1           0        0.000000    0.000000   -1.267239
 ---------------------------------------------------------------------

 Unable to determine electronic state:  an orbital has unidentified symmetry.
 Alpha  occ. eigenvalues --  -89.93046  -8.29104  -6.21923  -6.20745  -6.20104
 Alpha  occ. eigenvalues --   -0.82410  -0.47306  -0.37280  -0.33126
 Alpha virt. eigenvalues --    0.08091   0.31270   0.37497   0.38435   0.40424
 Alpha virt. eigenvalues --    0.74714   0.76732   0.79439   0.79838   0.80307
 Alpha virt. eigenvalues --    1.16366
  Beta  occ. eigenvalues --  -89.92191  -8.28843  -6.20475  -6.19829  -6.19621
  Beta  occ. eigenvalues --   -0.77511  -0.45606  -0.31054
  Beta virt. eigenvalues --   -0.12763   0.09043   0.31070   0.37380   0.38577
  Beta virt. eigenvalues --    0.40574   0.76018   0.82450   0.82497   0.84738
  Beta virt. eigenvalues --    0.87119   1.19203

 Mulliken charges and spin densities:
               1          2
     1  S   -0.108189   1.031645
     2  H    0.108189  -0.031645
 Sum of Mulliken charges =  -0.00000   1.00000

 Dipole moment (field-independent basis, Debye):
    X=              0.0000    Y=             -0.0000    Z=             -1.0881  Tot=              1.0881
 Quadrupole moment (field-independent basis, Debye-Ang):
   XX=            -15.7019   YY=            -12.8237   ZZ=            -12.0538
   XY=             -0.0000   XZ=              0.0000   YZ=              0.0000

 1\1\GINC-NODE61\FOpt\UM062X\6-31G(d)\H1S1(2)\RPEVERATI\07-Oct-2020\0\\
 #P Opt(MaxCyc=100) M062X/6-31G* 5D 7F Integral=UltraFineGrid SCF=(NoSy
 mm,XQC,MaxCyc=120) EmpiricalDispersion=GD3 IOp(1/33=1)\\TS search on B
 H76.\\0,2\S,0.,0.,0.0819542878\H,0.,0.,-1.2644870213\\Version=ES64L-G1
 6RevA.03\HF=-398.6910754\S2=0.752665\S2-1=0.\S2A=0.750004\RMSD=6.212e-
 09\RMSF=9.734e-05\Dipole=0.,0.,-0.4280724\Quadrupole=-1.6173956,0.5225
 049,1.0948908,0.,0.,0.\PG=C*V [C*(H1S1)]\\@

 Normal termination of Gaussian 16 at Wed Oct  7 14:22:30 2020.
