 Gaussian 16, Revision A.03,
 Gaussian 16:  ES64L-G16RevA.03 25-Dec-2016

 ----------------------------------------------------------------------
 #P Opt(MaxCyc=100) M062X/6-31G* 5D 7F Integral=UltraFineGrid SCF=(NoSy
 mm,XQC,MaxCyc=120) EmpiricalDispersion=GD3 IOp(1/33=1)
 ----------------------------------------------------------------------

 TstMul:  Mul=     1
 TstMul:  ICh=     0
 TstMul:  Mul=     1
 Symbolic Z-matrix:
 Charge =  0 Multiplicity = 1

 SCF Done:  E(RM062X) =  -93.3576069852     A.U. after   11 cycles
 SCF Done:  E(RM062X) =  -93.3576431363     A.U. after    8 cycles
 Optimization completed.
    -- Stationary point found.

                         Standard orientation:
 ---------------------------------------------------------------------
 Center     Atomic      Atomic             Coordinates (Angstroms)
 Number     Number       Type             X           Y           Z
 ---------------------------------------------------------------------
      1          6           0        0.000000    0.000000   -0.740939
      2          7           0        0.000000    0.000000    0.430652
      3          1           0        0.000000    0.000000    1.431075
 ---------------------------------------------------------------------

 The electronic state is 1-SG.
 Alpha  occ. eigenvalues --  -14.79513 -10.59168  -1.04798  -0.73962  -0.43733
 Alpha  occ. eigenvalues --   -0.43733  -0.37487
 Alpha virt. eigenvalues --    0.08343   0.08343   0.11936   0.39178   0.57435
 Alpha virt. eigenvalues --    0.60994   0.60994   0.69642   0.80024   0.80024
 Alpha virt. eigenvalues --    0.99561   1.24441   1.47986   1.55708   1.55708

 Mulliken charges:
               1
     1  C    0.059852
     2  N   -0.450096
     3  H    0.390244
 Sum of Mulliken charges =  -0.00000

 Dipole moment (field-independent basis, Debye):
    X=              0.0000    Y=              0.0000    Z=              2.9267  Tot=              2.9267
 Quadrupole moment (field-independent basis, Debye-Ang):
   XX=            -11.5715   YY=            -11.5715   ZZ=             -9.7848
   XY=              0.0000   XZ=              0.0000   YZ=             -0.0000

 Normal termination of Gaussian 16 at Wed Oct  7 14:22:26 2020.
