 Gaussian 16, Revision A.03,
 Gaussian 16:  ES64L-G16RevA.03 25-Dec-2016

 ----------------------------------------------------------------------
 #P Opt(MaxCyc=100) M062X/6-31G* 5D 7F Integral=UltraFineGrid SCF=(NoSy
 mm,XQC,MaxCyc=120) EmpiricalDispersion=GD3 IOp(1/33=1)
 ----------------------------------------------------------------------

 TstMul:  Mul=     1
 TstMul:  ICh=    -1
 TstMul:  Mul=     1
 Symbolic Z-matrix:
 Charge = -1 Multiplicity = 1

 SCF Done:  E(RM062X) =  -215.462745196     A.U. after   14 cycles
 SCF Done:  E(RM062X) =  -215.463599732     A.U. after   13 cycles
 SCF Done:  E(RM062X) =  -215.465590637     A.U. after   12 cycles
 SCF Done:  E(RM062X) =  -215.466021952     A.U. after   13 cycles
 SCF Done:  E(RM062X) =  -215.465314986     A.U. after   14 cycles
 SCF Done:  E(RM062X) =  -215.468302677     A.U. after   12 cycles
 SCF Done:  E(RM062X) =  -215.468804476     A.U. after   12 cycles
 SCF Done:  E(RM062X) =  -215.468878585     A.U. after   11 cycles
 SCF Done:  E(RM062X) =  -215.468881359     A.U. after    8 cycles
 Optimization completed.
    -- Stationary point found.

                         Standard orientation:
 ---------------------------------------------------------------------
 Center     Atomic      Atomic             Coordinates (Angstroms)
 Number     Number       Type             X           Y           Z
 ---------------------------------------------------------------------
      1          6           0       -1.215153   -0.394937   -0.000062
      2          8           0       -0.489366    0.756769    0.000087
      3          1           0       -2.313443   -0.205033   -0.007113
      4          1           0       -1.032465   -1.062032   -0.878401
      5          1           0       -1.043356   -1.056050    0.885265
      6          1           0        0.665785    0.333428   -0.000285
      7          9           0        1.658814   -0.188316    0.000024
 ---------------------------------------------------------------------

 The electronic state is 1-A.
 Alpha  occ. eigenvalues --  -24.86159 -19.32827 -10.36425  -0.94036  -0.83383
 Alpha  occ. eigenvalues --   -0.52139  -0.32280  -0.27754  -0.25274  -0.20049
 Alpha  occ. eigenvalues --   -0.14386  -0.14260  -0.07055  -0.06396
 Alpha virt. eigenvalues --    0.34737   0.40770   0.41883   0.45473   0.59790
 Alpha virt. eigenvalues --    0.83252   0.84093   0.86959   1.00916   1.10575
 Alpha virt. eigenvalues --    1.11757   1.18607   1.27830   1.30737   1.31765

 Mulliken charges:
               1
     1  C   -0.102678
     2  O   -0.780974
     3  H    0.029653
     4  H    0.038619
     5  H    0.037924
     6  H    0.504972
     7  F   -0.727517
 Sum of Mulliken charges =  -1.00000

 Dipole moment (field-independent basis, Debye):
    X=             -2.0343    Y=             -1.1365    Z=             -0.0028  Tot=              2.3302
 Quadrupole moment (field-independent basis, Debye-Ang):
   XX=            -29.9115   YY=            -22.8626   ZZ=            -20.5924
   XY=              2.1146   XZ=              0.0021   YZ=              0.0025

 Normal termination of Gaussian 16 at Wed Oct  7 14:24:33 2020.
