 Gaussian 16, Revision A.03,

 ----------------------------------------------------------------------
 #P Opt(TS,MaxCyc=50,NoEigenTest,MaxStep=10,AddRedundant) M062X/6-31G*
 5D 7F Integral=UltraFineGrid SCF=(NoSymm,XQC,MaxCyc=120) EmpiricalDisp
 ersion=GD3 IOp(1/33=1)
 ----------------------------------------------------------------------

 TstMul:  Mul=     2
 TstMul:  ICh=     0
 TstMul:  Mul=     2
 Symbolic Z-matrix:
 Charge =  0 Multiplicity = 2

 SCF Done:  E(UM062X) =  -185.050059346     A.U. after   21 cycles
 SCF Done:  E(UM062X) =  -185.050851224     A.U. after   15 cycles
 SCF Done:  E(UM062X) =  -185.050005276     A.U. after   20 cycles
 SCF Done:  E(UM062X) =  -185.050028421     A.U. after   14 cycles
 Optimization completed.
    -- Stationary point found.
 Normal termination of Gaussian 16 at Wed Oct  7 14:23:14 2020.
 Gaussian 16:  ES64L-G16RevA.03 25-Dec-2016

 ----------------------------------------------------------------------
 #P Freq M062X/6-31G* 5D 7F Integral=UltraFineGrid SCF=(NoSymm,XQC,MaxC
 yc=120) EmpiricalDispersion=GD3 IOp(1/33=1) Geom=Check Guess=Read
 ----------------------------------------------------------------------

 TstMul:  Mul=     2
 TstMul:  ICh=     0
 TstMul:  Mul=     2
 Structure from the checkpoint file:  "MN_68_n2ohts_BH76_M062XD30_631Gs.chk"
 Charge =  0 Multiplicity = 2

                         Standard orientation:
 ---------------------------------------------------------------------
 Center     Atomic      Atomic             Coordinates (Angstroms)
 Number     Number       Type             X           Y           Z
 ---------------------------------------------------------------------
      1          1           0       -0.330453   -1.968110    0.000000
      2          8           0       -0.864031   -0.613251    0.000000
      3          7           0       -0.000000    0.258467   -0.000000
      4          7           0        1.034672    0.723550   -0.000000
 ---------------------------------------------------------------------

 SCF Done:  E(UM062X) =  -185.050028421     A.U. after    1 cycles

 The electronic state is 2-A'.
 Alpha  occ. eigenvalues --  -19.76269 -14.98217 -14.87181  -1.35657  -1.18959
 Alpha  occ. eigenvalues --   -0.73279  -0.64434  -0.63629  -0.56798  -0.45307
 Alpha  occ. eigenvalues --   -0.41877  -0.25872
 Alpha virt. eigenvalues --   -0.00008   0.02868   0.22834   0.49628   0.62925
 Alpha virt. eigenvalues --    0.65577   0.66529   0.73815   0.76717   0.80474
 Alpha virt. eigenvalues --    0.81557   0.82732   1.00224   1.01657   1.17987

  Beta  occ. eigenvalues --  -19.76197 -14.98086 -14.86794  -1.34966  -1.18045
  Beta  occ. eigenvalues --   -0.72186  -0.63325  -0.63315  -0.55247  -0.43223
  Beta  occ. eigenvalues --   -0.41584
  Beta virt. eigenvalues --   -0.05674   0.03554   0.03901   0.23347   0.49535
  Beta virt. eigenvalues --    0.64170   0.65781   0.67317   0.72886   0.76908
  Beta virt. eigenvalues --    0.80689   0.82415   0.82984   1.00143   1.01921

 Mulliken charges and spin densities:
               1          2
     1  H    0.051068   0.733433
     2  O   -0.409977  -0.117881
     3  N    0.442749   0.063406
     4  N   -0.083840   0.321042
 Sum of Mulliken charges =   0.00000   1.00000

 Dipole moment (field-independent basis, Debye):
    X=             -0.0208    Y=              0.0613    Z=             -0.0000  Tot=              0.0647
 Quadrupole moment (field-independent basis, Debye-Ang):
   XX=            -18.9744   YY=            -17.5555   ZZ=            -16.4462
   XY=             -1.5000   XZ=              0.0000   YZ=              0.0000

  Exact polarizability:  22.066  12.593  42.263  -0.000   0.000   7.434
 Approx polarizability:  38.266  21.627  49.132  -0.000  -0.000   8.991

 ******    1 imaginary frequencies (negative Signs) ******

                      1                      2                      3
                     A'                     A'                     A"
 Frequencies --  -1684.5226               443.2624               594.3186
 Red. masses --      1.4127                 1.3430                 4.5022
 Frc consts  --      2.3619                 0.1555                 0.9369
 IR Inten    --   1647.2941                12.9028                 8.1434

                      4                      5                      6
                     A'                     A'                     A'
 Frequencies --    852.9906              1261.4494              2265.1829
 Red. masses --      2.6519                 6.1422                13.9175
 Frc consts  --      1.1368                 5.7586                42.0744
 IR Inten    --      2.7956                56.9498               374.3446

 - Thermochemistry -
 -------------------
 Temperature   298.150 Kelvin.  Pressure   1.00000 Atm.
 Atom     1 has atomic number  1 and mass   1.00783

 Molecular mass:    45.00889 amu.
 Principal axes and moments of inertia in atomic units:
                           1         2         3
     Eigenvalues --     8.81132 152.38563 161.19694
           X            0.78177  -0.62356   0.00000
           Y            0.62356   0.78177   0.00000
           Z            0.00000  -0.00000   1.00000
 This molecule is an asymmetric top.
 Rotational symmetry number  1.
 Rotational temperatures (Kelvin)      9.82985     0.56839     0.53732
 Rotational constants (GHZ):         204.82083    11.84325    11.19588
    1 imaginary frequencies ignored.
 Zero-point vibrational energy      32402.1 (Joules/Mol)
                                    7.74428 (Kcal/Mol)
 Warning -- explicit consideration of   2 degrees of freedom as
           vibrations may cause significant error
 Vibrational temperatures:    637.76   855.09  1227.26  1814.94  3259.09
          (Kelvin)

 Zero-point correction=                           0.012341 (Hartree/Particle)
 Thermal correction to Energy=                    0.015684
 Thermal correction to Enthalpy=                  0.016628
 Thermal correction to Gibbs Free Energy=        -0.011975
 Sum of electronic and zero-point Energies=           -185.037687
 Sum of electronic and thermal Energies=              -185.034344
 Sum of electronic and thermal Enthalpies=            -185.033400
 Sum of electronic and thermal Free Energies=         -185.062004

                     E (Thermal)             CV                S
                      KCal/Mol        Cal/Mol-Kelvin    Cal/Mol-Kelvin
 Total                    9.842              9.121             60.202
 Electronic               0.000              0.000              1.377
 Translational            0.889              2.981             37.338
 Rotational               0.889              2.981             20.009
 Vibrational              8.065              3.159              1.477
 Vibration     1          0.803              1.376              0.816
 Vibration     2          0.952              1.044              0.460

 Optimization completed.
    -- Stationary point found.
 Normal termination of Gaussian 16 at Wed Oct  7 14:23:46 2020.
