 Gaussian 16, Revision A.03,
 Gaussian 16:  ES64L-G16RevA.03 25-Dec-2016

 ----------------------------------------------------------------------
 #P Opt(MaxCyc=100) M062X/6-31G* 5D 7F Integral=UltraFineGrid SCF=(NoSy
 mm,XQC,MaxCyc=120) EmpiricalDispersion=GD3 IOp(1/33=1)
 ----------------------------------------------------------------------

 TstMul:  Mul=     1
 TstMul:  ICh=    -1
 TstMul:  Mul=     1
 Symbolic Z-matrix:
 Charge = -1 Multiplicity = 1

 SCF Done:  E(RM062X) =  -215.388560620     A.U. after   14 cycles
 SCF Done:  E(RM062X) =  -215.390963575     A.U. after   15 cycles
 SCF Done:  E(RM062X) =  -215.391653171     A.U. after   15 cycles
 SCF Done:  E(RM062X) =  -215.392571164     A.U. after   16 cycles
 SCF Done:  E(RM062X) =  -215.393096939     A.U. after   15 cycles
 SCF Done:  E(RM062X) =  -215.393432459     A.U. after   14 cycles
 SCF Done:  E(RM062X) =  -215.393496694     A.U. after   14 cycles
 SCF Done:  E(RM062X) =  -215.393540791     A.U. after   14 cycles
 SCF Done:  E(RM062X) =  -215.393598861     A.U. after   13 cycles
 SCF Done:  E(RM062X) =  -215.393641799     A.U. after   14 cycles
 SCF Done:  E(RM062X) =  -215.393645414     A.U. after   13 cycles
 SCF Done:  E(RM062X) =  -215.393651665     A.U. after   13 cycles
 SCF Done:  E(RM062X) =  -215.393792793     A.U. after   16 cycles
 SCF Done:  E(RM062X) =  -215.392684330     A.U. after   16 cycles
 SCF Done:  E(RM062X) =  -215.393965231     A.U. after   15 cycles
 SCF Done:  E(RM062X) =  -215.393941950     A.U. after   14 cycles
 SCF Done:  E(RM062X) =  -215.393997155     A.U. after   14 cycles
 SCF Done:  E(RM062X) =  -215.394002234     A.U. after   11 cycles
 SCF Done:  E(RM062X) =  -215.394002820     A.U. after    9 cycles
 SCF Done:  E(RM062X) =  -215.394002898     A.U. after    8 cycles
 Optimization completed.
    -- Stationary point found.

                         Standard orientation:
 ---------------------------------------------------------------------
 Center     Atomic      Atomic             Coordinates (Angstroms)
 Number     Number       Type             X           Y           Z
 ---------------------------------------------------------------------
      1          9           0        1.842809    0.079728    0.000183
      2          6           0        0.434159   -0.101099   -0.000225
      3          1           0       -0.013689    0.346161   -0.883065
      4          1           0        0.216940   -1.168628   -0.000270
      5          1           0       -0.014482    0.346124    0.882236
      6          8           0       -2.152080   -0.068040    0.000126
      7          1           0       -2.162364    0.909700   -0.000214
 ---------------------------------------------------------------------

 The electronic state is 1-A.
 Alpha  occ. eigenvalues --  -25.02701 -19.21851 -10.39575  -1.11693  -0.66158
 Alpha  occ. eigenvalues --   -0.58157  -0.35636  -0.35499  -0.35262  -0.22016
 Alpha  occ. eigenvalues --   -0.21887  -0.12053   0.02272   0.02329
 Alpha virt. eigenvalues --    0.34798   0.39510   0.41441   0.42477   0.46384
 Alpha virt. eigenvalues --    0.78869   0.79001   0.82620   1.11737   1.12349
 Alpha virt. eigenvalues --    1.16825   1.24534   1.24898   1.36243   1.36754

 Mulliken charges:
               1
     1  F   -0.436338
     2  C   -0.105450
     3  H    0.141464
     4  H    0.126807
     5  H    0.141599
     6  O   -1.088831
     7  H    0.220749
 Sum of Mulliken charges =  -1.00000

 Dipole moment (field-independent basis, Debye):
    X=              6.2983    Y=              0.9672    Z=             -0.0012  Tot=              6.3722
 Quadrupole moment (field-independent basis, Debye-Ang):
   XX=            -45.4156   YY=            -18.4639   ZZ=            -19.9141
   XY=             -2.9176   XZ=              0.0011   YZ=             -0.0005

 Normal termination of Gaussian 16 at Wed Oct  7 14:27:05 2020.
