 Gaussian 16, Revision A.03,
 Gaussian 16:  ES64L-G16RevA.03 25-Dec-2016

 ----------------------------------------------------------------------
 #P Opt(MaxCyc=100) M062X/6-31G* 5D 7F Integral=UltraFineGrid SCF=(NoSy
 mm,XQC,MaxCyc=120) EmpiricalDispersion=GD3 IOp(1/33=1)
 ----------------------------------------------------------------------

 TstMul:  Mul=     1
 TstMul:  ICh=     0
 TstMul:  Mul=     1
 Symbolic Z-matrix:
 Charge =  0 Multiplicity = 1

 SCF Done:  E(RM062X) =  -343.080595120     A.U. after   13 cycles
 SCF Done:  E(RM062X) =  -343.080628891     A.U. after    8 cycles
 Optimization completed.
    -- Stationary point found.

                         Standard orientation:
 ---------------------------------------------------------------------
 Center     Atomic      Atomic             Coordinates (Angstroms)
 Number     Number       Type             X           Y           Z
 ---------------------------------------------------------------------
      1         15           0        0.000000    0.000000    0.127864
      2          1           0        0.000000    1.190377   -0.639320
      3          1           0        1.030897   -0.595189   -0.639320
      4          1           0       -1.030897   -0.595189   -0.639320
 ---------------------------------------------------------------------

 The electronic state is 1-A1.
 Alpha  occ. eigenvalues --  -78.01748  -6.84604  -4.95822  -4.95822  -4.95557
 Alpha  occ. eigenvalues --   -0.72862  -0.44384  -0.44384  -0.32449
 Alpha virt. eigenvalues --    0.07410   0.07410   0.16732   0.32802   0.32802
 Alpha virt. eigenvalues --    0.34049   0.42058   0.71130   0.71130   0.72533
 Alpha virt. eigenvalues --    0.72533   0.73218   1.01010   1.23664   1.23664

 Mulliken charges:
               1
     1  P   -0.096457
     2  H    0.032152
     3  H    0.032152
     4  H    0.032152
 Sum of Mulliken charges =  -0.00000

 Dipole moment (field-independent basis, Debye):
    X=              0.0000    Y=             -0.0000    Z=             -0.9414  Tot=              0.9414
 Quadrupole moment (field-independent basis, Debye-Ang):
   XX=            -14.6116   YY=            -14.6116   ZZ=            -17.0659
   XY=             -0.0000   XZ=             -0.0000   YZ=              0.0000

 Normal termination of Gaussian 16 at Wed Oct  7 14:23:13 2020.
