 Gaussian 16, Revision A.03,
 Gaussian 16:  ES64L-G16RevA.03 25-Dec-2016

 ----------------------------------------------------------------------
 #P M062X/6-31G* 5D 7F Integral=UltraFineGrid SCF=(NoSymm,XQC,MaxCyc=12
 0) EmpiricalDispersion=GD3 IOp(1/33=1) Stable=Opt
 ----------------------------------------------------------------------

 TstMul:  Mul=     3
 TstMul:  ICh=     0
 TstMul:  Mul=     3
 Symbolic Z-matrix:
 Charge =  0 Multiplicity = 3

                         Standard orientation:
 ---------------------------------------------------------------------
 Center     Atomic      Atomic             Coordinates (Angstroms)
 Number     Number       Type             X           Y           Z
 ---------------------------------------------------------------------
      1          8           0        0.000000    0.000000    0.000000
 ---------------------------------------------------------------------

 SCF Done:  E(UM062X) =  -75.0313191385     A.U. after   12 cycles

 Unable to determine electronic state:  partially filled degenerate orbitals.
 Alpha  occ. eigenvalues --  -19.76734  -1.12955  -0.53206  -0.53206  -0.46445
 Alpha virt. eigenvalues --    0.87675   0.87675   0.92155   0.99370   1.75185
 Alpha virt. eigenvalues --    1.75185   1.79256   1.79256   1.80434
  Beta  occ. eigenvalues --  -19.73095  -0.94950  -0.39471
  Beta virt. eigenvalues --   -0.07995  -0.07995   0.94127   0.96154   0.96154
  Beta virt. eigenvalues --    1.03694   1.84583   1.84583   1.85690   1.85874
  Beta virt. eigenvalues --    1.85874

 Mulliken charges and spin densities:
               1          2
     1  O   -0.000000   2.000000
 Sum of Mulliken charges =  -0.00000   2.00000

 Dipole moment (field-independent basis, Debye):
    X=             -0.0000    Y=             -0.0000    Z=             -0.0000  Tot=              0.0000
 Quadrupole moment (field-independent basis, Debye-Ang):
   XX=             -5.6706   YY=             -4.5536   ZZ=             -4.5536
   XY=             -0.0000   XZ=              0.0000   YZ=             -0.0000

 Normal termination of Gaussian 16 at Wed Oct  7 14:22:47 2020.
