 Gaussian 16, Revision A.03,
 Gaussian 16:  ES64L-G16RevA.03 25-Dec-2016

 ----------------------------------------------------------------------
 #P Opt(MaxCyc=100) M062X/6-31G* 5D 7F Integral=UltraFineGrid SCF=(NoSy
 mm,XQC,MaxCyc=120) EmpiricalDispersion=GD3 IOp(1/33=1)
 ----------------------------------------------------------------------

 TstMul:  Mul=     2
 TstMul:  ICh=     0
 TstMul:  Mul=     2
 Symbolic Z-matrix:
 Charge =  0 Multiplicity = 2

 SCF Done:  E(UM062X) =  -55.8363516616     A.U. after   14 cycles
 SCF Done:  E(UM062X) =  -55.8363970298     A.U. after    8 cycles
 SCF Done:  E(UM062X) =  -55.8363982890     A.U. after    8 cycles
 Optimization completed.
    -- Stationary point found.

                         Standard orientation:
 ---------------------------------------------------------------------
 Center     Atomic      Atomic             Coordinates (Angstroms)
 Number     Number       Type             X           Y           Z
 ---------------------------------------------------------------------
      1          7           0        0.000000    0.000000    0.142480
      2          1           0        0.000000    0.805727   -0.498679
      3          1           0       -0.000000   -0.805727   -0.498679
 ---------------------------------------------------------------------

 The electronic state is 2-B1.
 Alpha  occ. eigenvalues --  -14.77660  -0.95296  -0.53955  -0.39409  -0.37489
 Alpha virt. eigenvalues --    0.13173   0.20317   0.72424   0.73538   0.78561
 Alpha virt. eigenvalues --    0.89858   0.96020   1.13157   1.71831   1.72856
 Alpha virt. eigenvalues --    1.74568   2.14990   2.43421
  Beta  occ. eigenvalues --  -14.76558  -0.89008  -0.52138  -0.36042
  Beta virt. eigenvalues --   -0.03050   0.14029   0.21289   0.73316   0.78900
  Beta virt. eigenvalues --    0.79669   0.92459   0.98079   1.16986   1.76676
  Beta virt. eigenvalues --    1.77271   1.79877   2.21233   2.45458

 Mulliken charges and spin densities:
               1          2
     1  N   -0.617301   1.089181
     2  H    0.308651  -0.044590
     3  H    0.308651  -0.044590
 Sum of Mulliken charges =   0.00000   1.00000

 Dipole moment (field-independent basis, Debye):
    X=             -0.0000    Y=              0.0000    Z=             -2.0631  Tot=              2.0631
 Quadrupole moment (field-independent basis, Debye-Ang):
   XX=             -6.9750   YY=             -5.4647   ZZ=             -7.3488
   XY=              0.0000   XZ=              0.0000   YZ=             -0.0000

 1\1\GINC-NODE51\FOpt\UM062X\6-31G(d)\H2N1(2)\RPEVERATI\07-Oct-2020\0\\
 #P Opt(MaxCyc=100) M062X/6-31G* 5D 7F Integral=UltraFineGrid SCF=(NoSy
 mm,XQC,MaxCyc=120) EmpiricalDispersion=GD3 IOp(1/33=1)\\TS search on B
 H76.\\0,2\N,0.,0.,0.1446076804\H,0.,0.8057272466,-0.4965505018\H,0.,-0
 .8057272466,-0.4965505018\\Version=ES64L-G16RevA.03\State=2-B1\HF=-55.
 8363983\S2=0.753267\S2-1=0.\S2A=0.750007\RMSD=2.802e-09\RMSF=1.079e-05
 \Dipole=0.,0.,-0.8117018\Quadrupole=-0.2816737,0.8412358,-0.5595621,0.
 ,0.,0.\PG=C02V [C2(N1),SGV(H2)]\\@

 Normal termination of Gaussian 16 at Wed Oct  7 14:22:43 2020.
