 Gaussian 16, Revision A.03,
 Gaussian 16:  ES64L-G16RevA.03 25-Dec-2016

 ----------------------------------------------------------------------
 #P Opt(MaxCyc=100) M062X/6-31G* 5D 7F Integral=UltraFineGrid SCF=(NoSy
 mm,XQC,MaxCyc=120) EmpiricalDispersion=GD3 IOp(1/33=1)
 ----------------------------------------------------------------------

 TstMul:  Mul=     1
 TstMul:  ICh=    -1
 TstMul:  Mul=     1
 Symbolic Z-matrix:
 Charge = -1 Multiplicity = 1

 SCF Done:  E(RM062X) =  -75.6861353604     A.U. after   13 cycles
 SCF Done:  E(RM062X) =  -75.6864902400     A.U. after    7 cycles
 SCF Done:  E(RM062X) =  -75.6864974286     A.U. after    7 cycles
 Optimization completed.
    -- Stationary point found.

                         Standard orientation:
 ---------------------------------------------------------------------
 Center     Atomic      Atomic             Coordinates (Angstroms)
 Number     Number       Type             X           Y           Z
 ---------------------------------------------------------------------
      1          8           0        0.000000    0.000000    0.109228
      2          1           0        0.000000    0.000000   -0.873823
 ---------------------------------------------------------------------

 The electronic state is 1-SG.
 Alpha  occ. eigenvalues --  -19.15651  -0.59942  -0.06526   0.07902   0.07902
 Alpha virt. eigenvalues --    0.46692   1.26872   1.38428   1.38428   1.42030
 Alpha virt. eigenvalues --    1.73321   2.26653   2.26653   2.33056   2.33056
 Alpha virt. eigenvalues --    2.91961

 Mulliken charges:
               1
     1  O   -1.175381
     2  H    0.175381
 Sum of Mulliken charges =  -1.00000

 Dipole moment (field-independent basis, Debye):
    X=              0.0000    Y=             -0.0000    Z=             -1.2857  Tot=              1.2857
 Quadrupole moment (field-independent basis, Debye-Ang):
   XX=             -7.9955   YY=             -7.9955   ZZ=             -6.7460
   XY=              0.0000   XZ=              0.0000   YZ=              0.0000

 Normal termination of Gaussian 16 at Wed Oct  7 14:23:09 2020.
