 Gaussian 16, Revision A.03,
 Gaussian 16:  ES64L-G16RevA.03 25-Dec-2016

 ----------------------------------------------------------------------
 #P Opt(MaxCyc=100) M062X/6-31G* 5D 7F Integral=UltraFineGrid SCF=(NoSy
 mm,XQC,MaxCyc=120) EmpiricalDispersion=GD3 IOp(1/33=1)
 ----------------------------------------------------------------------

 TstMul:  Mul=     1
 TstMul:  ICh=     0
 TstMul:  Mul=     1
 Symbolic Z-matrix:
 Charge =  0 Multiplicity = 1

 SCF Done:  E(RM062X) =  -56.5121084433     A.U. after   11 cycles
 SCF Done:  E(RM062X) =  -56.5121995563     A.U. after    8 cycles
 SCF Done:  E(RM062X) =  -56.5122091174     A.U. after    7 cycles
 Optimization completed.
    -- Stationary point found.

                         Standard orientation:
 ---------------------------------------------------------------------
 Center     Atomic      Atomic             Coordinates (Angstroms)
 Number     Number       Type             X           Y           Z
 ---------------------------------------------------------------------
      1          7           0        0.000000    0.000000    0.116793
      2          1           0        0.000000    0.939451   -0.272518
      3          1           0        0.813589   -0.469726   -0.272518
      4          1           0       -0.813589   -0.469726   -0.272518
 ---------------------------------------------------------------------

 The electronic state is 1-A1.
 Alpha  occ. eigenvalues --  -14.72154  -0.94550  -0.52090  -0.52090  -0.32240
 Alpha virt. eigenvalues --    0.13228   0.22111   0.22111   0.73664   0.73664
 Alpha virt. eigenvalues --    0.79363   0.99627   0.99627   1.00237   1.28149
 Alpha virt. eigenvalues --    1.73338   1.73338   2.00988   2.46558   2.46558

 Mulliken charges:
               1
     1  N   -0.943566
     2  H    0.314522
     3  H    0.314522
     4  H    0.314522
 Sum of Mulliken charges =   0.00000

 Dipole moment (field-independent basis, Debye):
    X=             -0.0000    Y=             -0.0000    Z=             -1.9201  Tot=              1.9201
 Quadrupole moment (field-independent basis, Debye-Ang):
   XX=             -6.1114   YY=             -6.1114   ZZ=             -8.8358
   XY=             -0.0000   XZ=              0.0000   YZ=              0.0000

 Normal termination of Gaussian 16 at Wed Oct  7 14:23:08 2020.
