 Gaussian 16, Revision A.03,

 ----------------------------------------------------------------------
 #P Opt(TS,MaxCyc=50,NoEigenTest,MaxStep=10,AddRedundant) M062X/6-31G*
 5D 7F Integral=UltraFineGrid SCF=(NoSymm,XQC,MaxCyc=120) EmpiricalDisp
 ersion=GD3 IOp(1/33=1)
 ----------------------------------------------------------------------

 TstMul:  Mul=     2
 TstMul:  ICh=     0
 TstMul:  Mul=     2
 Symbolic Z-matrix:
 Charge =  0 Multiplicity = 2

 SCF Done:  E(UM062X) =  -343.571284733     A.U. after   16 cycles
 SCF Done:  E(UM062X) =  -343.571286978     A.U. after   13 cycles
 SCF Done:  E(UM062X) =  -343.571339438     A.U. after   15 cycles
 SCF Done:  E(UM062X) =  -343.571424235     A.U. after   14 cycles
 SCF Done:  E(UM062X) =  -343.571224937     A.U. after   14 cycles
 SCF Done:  E(UM062X) =  -343.571229233     A.U. after   14 cycles
 SCF Done:  E(UM062X) =  -343.571231510     A.U. after   10 cycles
 SCF Done:  E(UM062X) =  -343.571231510     A.U. after    8 cycles
 Optimization completed.
    -- Stationary point found.
 Normal termination of Gaussian 16 at Wed Oct  7 14:25:10 2020.
 Gaussian 16:  ES64L-G16RevA.03 25-Dec-2016

 ----------------------------------------------------------------------
 #P Freq M062X/6-31G* 5D 7F Integral=UltraFineGrid SCF=(NoSymm,XQC,MaxC
 yc=120) EmpiricalDispersion=GD3 IOp(1/33=1) Geom=Check Guess=Read
 ----------------------------------------------------------------------

 TstMul:  Mul=     2
 TstMul:  ICh=     0
 TstMul:  Mul=     2
 Structure from the checkpoint file:  "MN_88_RKT12_BH76_M062XD30_631Gs.chk"
 Charge =  0 Multiplicity = 2

                         Standard orientation:
 ---------------------------------------------------------------------
 Center     Atomic      Atomic             Coordinates (Angstroms)
 Number     Number       Type             X           Y           Z
 ---------------------------------------------------------------------
      1         15           0        0.220565    0.000002   -0.112007
      2          1           0        0.255101    1.028979    0.862326
      3          1           0        0.255505   -1.028740    0.862560
      4          1           0       -1.257917   -0.000276   -0.141561
      5          1           0       -2.561169    0.000000    0.096779
 ---------------------------------------------------------------------

 SCF Done:  E(UM062X) =  -343.571231510     A.U. after    1 cycles

 The electronic state is 2-A.
 Alpha  occ. eigenvalues --  -78.02554  -6.85284  -4.96717  -4.96475  -4.96270
 Alpha  occ. eigenvalues --   -0.73552  -0.48746  -0.44848  -0.35636  -0.29505
 Alpha virt. eigenvalues --    0.06914   0.07699   0.17641   0.32257   0.32910
 Alpha virt. eigenvalues --    0.36593   0.40658   0.70170   0.70522   0.71557
 Alpha virt. eigenvalues --    0.71748   0.75858   0.82802   1.05392   1.19429

  Beta  occ. eigenvalues --  -78.02337  -6.85213  -4.96401  -4.96286  -4.96010
  Beta  occ. eigenvalues --   -0.72655  -0.45306  -0.44670  -0.33271
  Beta virt. eigenvalues --   -0.07268   0.07068   0.08106   0.17625   0.32425
  Beta virt. eigenvalues --    0.32827   0.37679   0.40393   0.71165   0.71736
  Beta virt. eigenvalues --    0.72345   0.72886   0.73803   0.84230   1.04499

 Mulliken charges and spin densities:
               1          2
     1  P   -0.022178   0.263379
     2  H    0.039621  -0.006468
     3  H    0.039619  -0.006469
     4  H   -0.048208  -0.092765
     5  H   -0.008854   0.842322
 Sum of Mulliken charges =   0.00000   1.00000

 Dipole moment (field-independent basis, Debye):
    X=             -0.1100    Y=              0.0000    Z=              0.7679  Tot=              0.7757
 Quadrupole moment (field-independent basis, Debye-Ang):
   XX=            -17.9159   YY=            -15.8563   ZZ=            -17.5112
   XY=             -0.0001   XZ=              1.1240   YZ=              0.0000

  Exact polarizability:  40.712  -0.001  21.499  -0.578   0.000  19.701
 Approx polarizability:  42.524  -0.001  24.671  -0.380   0.000  21.697

 ******    1 imaginary frequencies (negative Signs) ******

                      1                      2                      3
                      A                      A                      A
 Frequencies --   -915.0787               354.0426               368.4432
 Red. masses --      1.0118                 1.0203                 1.0080
 Frc consts  --      0.4992                 0.0754                 0.0806
 IR Inten    --     59.0700                 3.6018                 3.8045

                      4                      5                      6
                      A                      A                      A
 Frequencies --   1018.0883              1159.0022              1172.8701
 Red. masses --      1.0839                 1.0237                 1.0298
 Frc consts  --      0.6620                 0.8102                 0.8346
 IR Inten    --     10.0629                15.5525                10.2144

                      7                      8                      9
                      A                      A                      A
 Frequencies --   1593.1408              2463.9701              2472.8271
 Red. masses --      1.0501                 1.0352                 1.0410
 Frc consts  --      1.5703                 3.7029                 3.7504
 IR Inten    --     45.8265                63.5270                98.4413

 - Thermochemistry -
 -------------------
 Temperature   298.150 Kelvin.  Pressure   1.00000 Atm.
 Atom     1 has atomic number 15 and mass  30.97376

 Molecular mass:    35.00506 amu.
 Principal axes and moments of inertia in atomic units:
                           1         2         3
     Eigenvalues --    14.12376  40.43096  41.54616
           X            0.99961  -0.00000   0.02792
           Y            0.00000   1.00000   0.00001
           Z           -0.02792  -0.00001   0.99961
 This molecule is an asymmetric top.
 Rotational symmetry number  1.
 Rotational temperatures (Kelvin)      6.13250     2.14227     2.08476
 Rotational constants (GHZ):         127.78054    44.63761    43.43942
    1 imaginary frequencies ignored.
 Zero-point vibrational energy      63416.3 (Joules/Mol)
                                   15.15687 (Kcal/Mol)
 Warning -- explicit consideration of   2 degrees of freedom as
           vibrations may cause significant error
 Vibrational temperatures:    509.39   530.11  1464.80  1667.55  1687.50
          (Kelvin)           2292.17  3545.10  3557.85

 Zero-point correction=                           0.024154 (Hartree/Particle)
 Thermal correction to Energy=                    0.027761
 Thermal correction to Enthalpy=                  0.028705
 Thermal correction to Gibbs Free Energy=         0.001051
 Sum of electronic and zero-point Energies=           -343.547078
 Sum of electronic and thermal Energies=              -343.543471
 Sum of electronic and thermal Enthalpies=            -343.542526
 Sum of electronic and thermal Free Energies=         -343.570181

                     E (Thermal)             CV                S
                      KCal/Mol        Cal/Mol-Kelvin    Cal/Mol-Kelvin
 Total                   17.420              9.938             58.204
 Electronic               0.000              0.000              1.377
 Translational            0.889              2.981             36.589
 Rotational               0.889              2.981             17.813
 Vibrational             15.643              3.976              2.425
 Vibration     1          0.730              1.567              1.148
 Vibration     2          0.741              1.537              1.086

 Optimization completed.
    -- Stationary point found.

 1\1\GINC-NODE61\Freq\UM062X\6-31G(d)\H4P1(2)\RPEVERATI\07-Oct-2020\0\\
 #P Freq M062X/6-31G* 5D 7F Integral=UltraFineGrid SCF=(NoSymm,XQC,MaxC
 yc=120) EmpiricalDispersion=GD3 IOp(1/33=1) Geom=Check Guess=Read\\TS
 search on BH76.\\0,2\P,0.2285695574,0.0004829654,-0.1156560605\H,0.261
 5846483,1.0340231383,0.8538879549\H,0.2685639004,-1.0236622225,0.86354
 81939\H,-1.249955095,-0.0046423805,-0.1425055425\H,-2.5527676019,-0.00
 74266529,0.0982135797\\Version=ES64L-G16RevA.03\State=2-A\HF=-343.5712
 315\S2=0.757265\S2-1=0.\S2A=0.750004\RMSD=1.054e-09\RMSF=1.232e-05\Zer

 Normal termination of Gaussian 16 at Wed Oct  7 14:25:34 2020.
