 Gaussian 16, Revision A.03,

 ----------------------------------------------------------------------
 #P Opt(TS,MaxCyc=50,NoEigenTest,MaxStep=10,AddRedundant) M062X/6-31G*
 5D 7F Integral=UltraFineGrid SCF=(NoSymm,XQC,MaxCyc=120) EmpiricalDisp
 ersion=GD3 IOp(1/33=1)
 ----------------------------------------------------------------------

 TstMul:  Mul=     2
 TstMul:  ICh=     0
 TstMul:  Mul=     2
 Symbolic Z-matrix:
 Charge =  0 Multiplicity = 2

 SCF Done:  E(UM062X) =  -116.156677105     A.U. after   19 cycles
 SCF Done:  E(UM062X) =  -116.156800008     A.U. after   16 cycles
 SCF Done:  E(UM062X) =  -116.156930837     A.U. after   19 cycles
 SCF Done:  E(UM062X) =  -116.156938645     A.U. after   15 cycles
 SCF Done:  E(UM062X) =  -116.156921268     A.U. after   19 cycles
 SCF Done:  E(UM062X) =  -116.156926585     A.U. after   16 cycles
 SCF Done:  E(UM062X) =  -116.156929338     A.U. after   15 cycles
 SCF Done:  E(UM062X) =  -116.156930041     A.U. after   11 cycles
 SCF Done:  E(UM062X) =  -116.156930936     A.U. after   12 cycles
 SCF Done:  E(UM062X) =  -116.156929483     A.U. after   16 cycles
 Optimization completed.
    -- Stationary point found.
 Normal termination of Gaussian 16 at Wed Oct  7 14:25:18 2020.
 Gaussian 16:  ES64L-G16RevA.03 25-Dec-2016

 ----------------------------------------------------------------------
 #P Freq M062X/6-31G* 5D 7F Integral=UltraFineGrid SCF=(NoSymm,XQC,MaxC
 yc=120) EmpiricalDispersion=GD3 IOp(1/33=1) Geom=Check Guess=Read
 ----------------------------------------------------------------------

 TstMul:  Mul=     2
 TstMul:  ICh=     0
 TstMul:  Mul=     2
 Structure from the checkpoint file:  "MN_81_RKT04_BH76_M062XD30_631Gs.chk"
 Charge =  0 Multiplicity = 2

                         Standard orientation:
 ---------------------------------------------------------------------
 Center     Atomic      Atomic             Coordinates (Angstroms)
 Number     Number       Type             X           Y           Z
 ---------------------------------------------------------------------
      1          6           0       -1.203458    0.008221    0.000102
      2          8           0        1.289598   -0.109143   -0.000034
      3          1           0        0.014727   -0.172766    0.007524
      4          1           0       -1.556232   -0.356312    0.963524
      5          1           0       -1.381700    1.074321   -0.133578
      6          1           0       -1.570307   -0.582417   -0.837897
      7          1           0        1.397475    0.860998    0.000091
 ---------------------------------------------------------------------

 SCF Done:  E(UM062X) =  -116.156929483     A.U. after    1 cycles

 The electronic state is 2-A.
 Alpha  occ. eigenvalues --  -19.65170 -10.54862  -1.10650  -0.80426  -0.56721
 Alpha  occ. eigenvalues --   -0.50149  -0.48452  -0.48133  -0.38756  -0.33579
 Alpha virt. eigenvalues --    0.13152   0.17805   0.20952   0.21221   0.33037
 Alpha virt. eigenvalues --    0.55993   0.56062   0.59715   0.82086   0.89024
 Alpha virt. eigenvalues --    0.94916   0.95083   0.97780   0.99221   1.03686

  Beta  occ. eigenvalues --  -19.63966 -10.54409  -1.06174  -0.78325  -0.52633
  Beta  occ. eigenvalues --   -0.47624  -0.47544  -0.43492  -0.36210
  Beta virt. eigenvalues --   -0.08211   0.13678   0.18213   0.21530   0.21774
  Beta virt. eigenvalues --    0.35438   0.56538   0.56695   0.62934   0.82145
  Beta virt. eigenvalues --    0.90822   0.96136   0.96273   0.98565   1.00562

 Mulliken charges and spin densities:
               1          2
     1  C   -0.687265   0.496553
     2  O   -0.639096   0.650267
     3  H    0.339518  -0.082937
     4  H    0.197855  -0.013509
     5  H    0.183250  -0.017718
     6  H    0.199252  -0.013055
     7  H    0.406486  -0.019600
 Sum of Mulliken charges =  -0.00000   1.00000

 Dipole moment (field-independent basis, Debye):
    X=             -1.2831    Y=              1.5843    Z=              0.0018  Tot=              2.0387
 Quadrupole moment (field-independent basis, Debye-Ang):
   XX=            -14.6193   YY=            -12.5791   ZZ=            -14.4848
   XY=              2.6541   XZ=             -0.0013   YZ=              0.0083

  Exact polarizability:  36.369   1.063  18.032  -0.025  -0.009  14.575
 Approx polarizability:  32.522   0.173  18.968  -0.043  -0.012  14.654

 ******    1 imaginary frequencies (negative Signs) ******

                      1                      2                      3
                      A                      A                      A
 Frequencies --  -1462.6867                86.5294               282.2234
 Red. masses --      1.0872                 1.0450                 1.0689
 Frc consts  --      1.3704                 0.0046                 0.0502
 IR Inten    --    985.9844                87.3850                 8.7725

                      4                      5                      6
                      A                      A                      A
 Frequencies --    349.8068               691.4005               925.0598
 Red. masses --      1.1533                 3.0658                 1.1954
 Frc consts  --      0.0831                 0.8635                 0.6027
 IR Inten    --     11.4210                67.6699               140.5885

                      7                      8                      9
                      A                      A                      A
 Frequencies --   1179.5609              1285.7127              1445.9169
 Red. masses --      1.1097                 1.1374                 1.1133
 Frc consts  --      0.9097                 1.1078                 1.3713
 IR Inten    --     38.4392                 7.7205                35.7905

                     10                     11                     12
                      A                      A                      A
 Frequencies --   1484.3430              1520.7315              3122.0259
 Red. masses --      1.0513                 1.0171                 1.0232
 Frc consts  --      1.3647                 1.3859                 5.8763
 IR Inten    --      1.4040                22.6337                 1.9991

                     13                     14                     15
                      A                      A                      A
 Frequencies --   3245.8090              3251.5675              3747.6138
 Red. masses --      1.1080                 1.1087                 1.0666
 Frc consts  --      6.8776                 6.9065                 8.8261
 IR Inten    --      9.1513                 6.4847                23.0150

 - Thermochemistry -
 -------------------
 Temperature   298.150 Kelvin.  Pressure   1.00000 Atm.
 Atom     1 has atomic number  6 and mass  12.00000

 Molecular mass:    33.03404 amu.
 Principal axes and moments of inertia in atomic units:
                           1         2         3
     Eigenvalues --    15.06420 193.55079 196.75014
           X            0.99976   0.02201   0.00002
           Y           -0.02201   0.99976  -0.00002
           Z           -0.00002   0.00002   1.00000
 This molecule is an asymmetric top.
 Rotational symmetry number  1.
 Rotational temperatures (Kelvin)      5.74965     0.44750     0.44022
 Rotational constants (GHZ):         119.80328     9.32438     9.17276
    1 imaginary frequencies ignored.
 Zero-point vibrational energy     135287.5 (Joules/Mol)
                                   32.33448 (Kcal/Mol)
 Warning -- explicit consideration of   3 degrees of freedom as
           vibrations may cause significant error
 Vibrational temperatures:    124.50   406.06   503.29   994.77  1330.95
          (Kelvin)           1697.13  1849.85  2080.35  2135.64  2187.99
                             4491.90  4670.00  4678.28  5391.98

 Zero-point correction=                           0.051528 (Hartree/Particle)
 Thermal correction to Energy=                    0.056137
 Thermal correction to Enthalpy=                  0.057081
 Thermal correction to Gibbs Free Energy=         0.025841
 Sum of electronic and zero-point Energies=           -116.105401
 Sum of electronic and thermal Energies=              -116.100792
 Sum of electronic and thermal Enthalpies=            -116.099848
 Sum of electronic and thermal Free Energies=         -116.131089

                     E (Thermal)             CV                S
                      KCal/Mol        Cal/Mol-Kelvin    Cal/Mol-Kelvin
 Total                   35.227             13.128             65.751
 Electronic               0.000              0.000              1.377
 Translational            0.889              2.981             36.416
 Rotational               0.889              2.981             20.978
 Vibrational             33.449              7.167              6.979
 Vibration     1          0.601              1.959              3.737
 Vibration     2          0.681              1.707              1.520
 Vibration     3          0.727              1.576              1.167

                           ! Non-Optimized Parameters !
 Normal termination of Gaussian 16 at Wed Oct  7 14:25:49 2020.
