 Gaussian 16, Revision A.03,

 ----------------------------------------------------------------------
 #P Opt(TS,MaxCyc=50,NoEigenTest,MaxStep=10,AddRedundant) M062X/6-31G*
 5D 7F Integral=UltraFineGrid SCF=(NoSymm,XQC,MaxCyc=120) EmpiricalDisp
 ersion=GD3 IOp(1/33=1)
 ----------------------------------------------------------------------

 TstMul:  Mul=     2
 TstMul:  ICh=     0
 TstMul:  Mul=     2
 Symbolic Z-matrix:
 Charge =  0 Multiplicity = 2

 SCF Done:  E(UM062X) =  -40.9522463757     A.U. after   15 cycles
 SCF Done:  E(UM062X) =  -40.9523955525     A.U. after   14 cycles
 SCF Done:  E(UM062X) =  -40.9520748726     A.U. after   14 cycles
 SCF Done:  E(UM062X) =  -40.9520422570     A.U. after   14 cycles
 SCF Done:  E(UM062X) =  -40.9520382715     A.U. after   10 cycles
 SCF Done:  E(UM062X) =  -40.9520506215     A.U. after    9 cycles
 SCF Done:  E(UM062X) =  -40.9520516352     A.U. after    9 cycles
 Optimization completed.
    -- Stationary point found.
 Normal termination of Gaussian 16 at Wed Oct  7 14:24:03 2020.
 Gaussian 16:  ES64L-G16RevA.03 25-Dec-2016

 ----------------------------------------------------------------------
 #P Freq M062X/6-31G* 5D 7F Integral=UltraFineGrid SCF=(NoSymm,XQC,MaxC
 yc=120) EmpiricalDispersion=GD3 IOp(1/33=1) Geom=Check Guess=Read
 ----------------------------------------------------------------------

 TstMul:  Mul=     2
 TstMul:  ICh=     0
 TstMul:  Mul=     2
 Structure from the checkpoint file:  "MN_80_RKT03_BH76_M062XD30_631Gs.chk"
 Charge =  0 Multiplicity = 2

                         Standard orientation:
 ---------------------------------------------------------------------
 Center     Atomic      Atomic             Coordinates (Angstroms)
 Number     Number       Type             X           Y           Z
 ---------------------------------------------------------------------
      1          6           0        0.000000    0.272811    0.000000
      2          1           0        1.058169    0.520007    0.000000
      3          1           0       -0.529398    0.518918    0.916538
      4          1           0       -0.529398    0.518918   -0.916538
      5          1           0        0.000195   -1.157194    0.000000
      6          1           0        0.000432   -2.037515    0.000000
 ---------------------------------------------------------------------

 SCF Done:  E(UM062X) =  -40.9520516352     A.U. after    1 cycles

 The electronic state is 2-A'.
 Alpha  occ. eigenvalues --  -10.54646  -0.79036  -0.51118  -0.48177  -0.48174
 Alpha  occ. eigenvalues --   -0.25896
 Alpha virt. eigenvalues --    0.16707   0.21869   0.21869   0.24871   0.57075
 Alpha virt. eigenvalues --    0.57075   0.60999   0.73495   0.96313   0.96316
 Alpha virt. eigenvalues --    0.99393   1.04920   1.23305   1.68449   1.68450

  Beta  occ. eigenvalues --  -10.54016  -0.76259  -0.47016  -0.47014  -0.46406
  Beta virt. eigenvalues --   -0.02868   0.17102   0.22744   0.22745   0.25834
  Beta virt. eigenvalues --    0.57791   0.57791   0.66156   0.77432   0.98327
  Beta virt. eigenvalues --    0.98330   1.02087   1.10021   1.29718   1.73549

 Mulliken charges and spin densities:
               1          2
     1  C   -0.567198   0.767269
     2  H    0.189142  -0.028011
     3  H    0.189139  -0.028010
     4  H    0.189139  -0.028010
     5  H   -0.003335  -0.156258
     6  H    0.003114   0.473019
 Sum of Mulliken charges =  -0.00000   1.00000

 Dipole moment (field-independent basis, Debye):
    X=             -0.0003    Y=              0.6873    Z=              0.0000  Tot=              0.6873
 Quadrupole moment (field-independent basis, Debye-Ang):
   XX=             -9.2758   YY=            -11.1165   ZZ=             -9.2761
   XY=              0.0012   XZ=              0.0000   YZ=              0.0000

  Exact polarizability:  12.407   0.005  27.905   0.000  -0.000  12.406
 Approx polarizability:  12.099   0.000  26.712   0.000  -0.000  12.099

 ******    1 imaginary frequencies (negative Signs) ******

                      1                      2                      3
                     A'                     A'                     A"
 Frequencies --  -1474.6266               561.9484               564.1946
 Red. masses --      1.1389                 1.0468                 1.0468
 Frc consts  --      1.4591                 0.1948                 0.1963
 IR Inten    --      3.1127                 1.6572                 1.5758

                      4                      5                      6
                     A'                     A'                     A"
 Frequencies --   1086.4244              1178.4800              1178.6544
 Red. masses --      1.0850                 1.0470                 1.0471
 Frc consts  --      0.7545                 0.8567                 0.8571
 IR Inten    --      7.7287                 0.5388                 0.5268

                      7                      8                      9
                     A"                     A'                     A'
 Frequencies --   1462.7666              1463.0336              1860.8312
 Red. masses --      1.0749                 1.0751                 1.0904
 Frc consts  --      1.3551                 1.3558                 2.2245
 IR Inten    --      3.7435                 3.7412                22.9899

                     10                     11                     12
                     A'                     A"                     A'
 Frequencies --   3132.9196              3281.4749              3281.9124
 Red. masses --      1.0170                 1.1128                 1.1128
 Frc consts  --      5.8812                 7.0597                 7.0617
 IR Inten    --      0.2595                 9.0757                 9.0353

 - Thermochemistry -
 -------------------
 Temperature   298.150 Kelvin.  Pressure   1.00000 Atm.
 Atom     1 has atomic number  6 and mass  12.00000

 Molecular mass:    17.03913 amu.
 Principal axes and moments of inertia in atomic units:
                           1         2         3
     Eigenvalues --    12.09385  31.35525  31.35584
           X           -0.00005   1.00000   0.00000
           Y            1.00000   0.00005   0.00000
           Z            0.00000   0.00000   1.00000
 This molecule is an asymmetric top.
 Rotational symmetry number  1.
 Rotational temperatures (Kelvin)      7.16182     2.76234     2.76229
 Rotational constants (GHZ):         149.22804    57.55786    57.55679
    1 imaginary frequencies ignored.
 Zero-point vibrational energy     113960.1 (Joules/Mol)
                                   27.23712 (Kcal/Mol)
 Warning -- explicit consideration of   2 degrees of freedom as
           vibrations may cause significant error
 Vibrational temperatures:    808.52   811.75  1563.12  1695.57  1695.82
          (Kelvin)           2104.59  2104.98  2677.32  4507.57  4721.31
                             4721.94

 Zero-point correction=                           0.043405 (Hartree/Particle)
 Thermal correction to Energy=                    0.046676
 Thermal correction to Enthalpy=                  0.047620
 Thermal correction to Gibbs Free Energy=         0.021883
 Sum of electronic and zero-point Energies=            -40.908647
 Sum of electronic and thermal Energies=               -40.905376
 Sum of electronic and thermal Enthalpies=             -40.904431
 Sum of electronic and thermal Free Energies=          -40.930169

                     E (Thermal)             CV                S
                      KCal/Mol        Cal/Mol-Kelvin    Cal/Mol-Kelvin
 Total                   29.290              9.105             54.169
 Electronic               0.000              0.000              1.377
 Translational            0.889              2.981             34.443
 Rotational               0.889              2.981             17.126
 Vibrational             27.512              3.144              1.222
 Vibration     1          0.918              1.114              0.520
 Vibration     2          0.920              1.109              0.516

 Optimization completed.
    -- Stationary point found.

 1\1\GINC-NODE63\Freq\UM062X\6-31G(d)\C1H5(2)\RPEVERATI\07-Oct-2020\0\\
 #P Freq M062X/6-31G* 5D 7F Integral=UltraFineGrid SCF=(NoSymm,XQC,MaxC
 yc=120) EmpiricalDispersion=GD3 IOp(1/33=1) Geom=Check Guess=Read\\TS
 search on BH76.\\0,2\C,-0.0003147732,0.2792174812,0.\H,1.0578715179,0.
 5263377038,0.\H,-0.5296948894,0.5253629235,0.9165377046\H,-0.529694889
 4,0.5253629235,-0.9165377046\H,-0.0002217497,-1.1507878262,0.\H,-0.000
 0485648,-2.0311085476,0.\\Version=ES64L-G16RevA.03\State=2-A'\HF=-40.9
 520516\S2=0.759904\S2-1=0.\S2A=0.750036\RMSD=6.929e-10\RMSF=1.452e-05\

 Normal termination of Gaussian 16 at Wed Oct  7 14:24:30 2020.
