 Gaussian 16, Revision A.03,

 ----------------------------------------------------------------------
 #P Opt(TS,MaxCyc=50,NoEigenTest,MaxStep=10,AddRedundant) M062X/6-31G*
 5D 7F Integral=UltraFineGrid SCF=(NoSymm,XQC,MaxCyc=120) EmpiricalDisp
 ersion=GD3 IOp(1/33=1)
 ----------------------------------------------------------------------

 TstMul:  Mul=     2
 TstMul:  ICh=     0
 TstMul:  Mul=     2
 Symbolic Z-matrix:
 Charge =  0 Multiplicity = 2

 SCF Done:  E(UM062X) =  -1.64324557692     A.U. after   12 cycles
 SCF Done:  E(UM062X) =  -1.64324938448     A.U. after    6 cycles
 Optimization completed.
    -- Stationary point found.
 Normal termination of Gaussian 16 at Wed Oct  7 14:23:24 2020.
 Gaussian 16:  ES64L-G16RevA.03 25-Dec-2016

 ----------------------------------------------------------------------
 #P Freq M062X/6-31G* 5D 7F Integral=UltraFineGrid SCF=(NoSymm,XQC,MaxC
 yc=120) EmpiricalDispersion=GD3 IOp(1/33=1) Geom=Check Guess=Read
 ----------------------------------------------------------------------

 TstMul:  Mul=     2
 TstMul:  ICh=     0
 TstMul:  Mul=     2
 Structure from the checkpoint file:  "MN_82_RKT06_BH76_M062XD30_631Gs.chk"
 Charge =  0 Multiplicity = 2

                         Standard orientation:
 ---------------------------------------------------------------------
 Center     Atomic      Atomic             Coordinates (Angstroms)
 Number     Number       Type             X           Y           Z
 ---------------------------------------------------------------------
      1          1           0        0.000000    0.000000    0.000000
      2          1           0        0.000000    0.000000    0.931470
      3          1           0        0.000000    0.000000   -0.931470
 ---------------------------------------------------------------------

 SCF Done:  E(UM062X) =  -1.64324938448     A.U. after    1 cycles

 The electronic state is 2-SGU.
 Alpha  occ. eigenvalues --   -0.57286  -0.30089
 Alpha virt. eigenvalues --    0.20358   0.70976   0.78526   1.05974
  Beta  occ. eigenvalues --   -0.51596
  Beta virt. eigenvalues --   -0.04769   0.19165   0.75432   0.93171   1.24592

 Mulliken charges and spin densities:
               1          2
     1  H   -0.088240  -0.189975
     2  H    0.044120   0.594988
     3  H    0.044120   0.594988
 Sum of Mulliken charges =  -0.00000   1.00000

 Dipole moment (field-independent basis, Debye):
    X=              0.0000    Y=              0.0000    Z=              0.0000  Tot=              0.0000
 Quadrupole moment (field-independent basis, Debye-Ang):
   XX=             -3.3043   YY=             -3.3043   ZZ=             -3.3286
   XY=              0.0000   XZ=              0.0000   YZ=              0.0000

  Exact polarizability:   0.000   0.000   0.000  -0.000   0.000  18.323
 Approx polarizability:   0.000  -0.000  -0.000  -0.000  -0.000  17.985

 ******    1 imaginary frequencies (negative Signs) ******

                      1                      2                      3
                     SGU                    PIU                    PIU
 Frequencies --  -2097.2400              1080.4052              1080.4052
 Red. masses --      1.0078                 1.0078                 1.0078
 Frc consts  --      2.6118                 0.6931                 0.6931
 IR Inten    --      3.1845                 6.5645                 6.5645

                      4
                     SGG
 Frequencies --   2079.9926
 Red. masses --      1.0078
 Frc consts  --      2.5690
 IR Inten    --      0.0000

 - Thermochemistry -
 -------------------
 Temperature   298.150 Kelvin.  Pressure   1.00000 Atm.
 Atom     1 has atomic number  1 and mass   1.00783

 Molecular mass:     3.02348 amu.
 Principal axes and moments of inertia in atomic units:
                           1         2         3
     Eigenvalues --     0.00000   6.24526   6.24526
           X           -0.00000   1.00000   0.00000
           Y            0.00000   0.00000   1.00000
           Z            1.00000   0.00000   0.00000
 This molecule is a prolate symmetric top.
 Rotational symmetry number  2.
 Rotational temperature (Kelvin)     13.86874
 Rotational constant (GHZ):         288.977579
    1 imaginary frequencies ignored.
 Zero-point vibrational energy      25365.6 (Joules/Mol)
                                    6.06253 (Kcal/Mol)
 Vibrational temperatures:   1554.46  1554.46  2992.65
          (Kelvin)

 Zero-point correction=                           0.009661 (Hartree/Particle)
 Thermal correction to Energy=                    0.012076
 Thermal correction to Enthalpy=                  0.013020
 Thermal correction to Gibbs Free Energy=        -0.004801
 Sum of electronic and zero-point Energies=             -1.633588
 Sum of electronic and thermal Energies=                -1.631173
 Sum of electronic and thermal Enthalpies=              -1.630229
 Sum of electronic and thermal Free Energies=           -1.648051

                     E (Thermal)             CV                S
                      KCal/Mol        Cal/Mol-Kelvin    Cal/Mol-Kelvin
 Total                    7.578              5.571             37.509
 Electronic               0.000              0.000              1.377
 Translational            0.889              2.981             29.289
 Rotational               0.592              1.987              6.706
 Vibrational              6.097              0.603              0.136

 Optimization completed.
    -- Stationary point found.
 Normal termination of Gaussian 16 at Wed Oct  7 14:23:41 2020.
