 Gaussian 16, Revision A.03,

 ----------------------------------------------------------------------
 #P Opt(TS,MaxCyc=50,NoEigenTest,MaxStep=10,AddRedundant) M062X/6-31G*
 5D 7F Integral=UltraFineGrid SCF=(NoSymm,XQC,MaxCyc=120) EmpiricalDisp
 ersion=GD3 IOp(1/33=1)
 ----------------------------------------------------------------------

 TstMul:  Mul=     3
 TstMul:  ICh=     0
 TstMul:  Mul=     3
 Symbolic Z-matrix:
 Charge =  0 Multiplicity = 3

 SCF Done:  E(UM062X) =  -115.488294410     A.U. after   15 cycles
 SCF Done:  E(UM062X) =  -115.488722752     A.U. after   13 cycles
 SCF Done:  E(UM062X) =  -115.488081262     A.U. after   14 cycles
 SCF Done:  E(UM062X) =  -115.487591605     A.U. after   14 cycles
 SCF Done:  E(UM062X) =  -115.487563041     A.U. after   13 cycles
 SCF Done:  E(UM062X) =  -115.487585460     A.U. after   12 cycles
 SCF Done:  E(UM062X) =  -115.487597274     A.U. after   11 cycles
 Optimization completed.
    -- Stationary point found.
 Normal termination of Gaussian 16 at Wed Oct  7 14:24:51 2020.
 Gaussian 16:  ES64L-G16RevA.03 25-Dec-2016

 ----------------------------------------------------------------------
 #P Freq M062X/6-31G* 5D 7F Integral=UltraFineGrid SCF=(NoSymm,XQC,MaxC
 yc=120) EmpiricalDispersion=GD3 IOp(1/33=1) Geom=Check Guess=Read
 ----------------------------------------------------------------------

 TstMul:  Mul=     3
 TstMul:  ICh=     0
 TstMul:  Mul=     3
 Structure from the checkpoint file:  "MN_87_RKT11_BH76_M062XD30_631Gs.chk"
 Charge =  0 Multiplicity = 3

                         Standard orientation:
 ---------------------------------------------------------------------
 Center     Atomic      Atomic             Coordinates (Angstroms)
 Number     Number       Type             X           Y           Z
 ---------------------------------------------------------------------
      1          6           0        0.000443   -1.155069   -0.000000
      2          1           0       -1.063082   -1.382171   -0.000000
      3          1           0        0.523267   -1.410357    0.918047
      4          1           0        0.523267   -1.410357   -0.918047
      5          1           0        0.010342    0.219793    0.000000
      6          8           0        0.000443    1.364189    0.000000
 ---------------------------------------------------------------------

 SCF Done:  E(UM062X) =  -115.487597274     A.U. after    1 cycles

 The electronic state is 3-A'.
 Alpha  occ. eigenvalues --  -19.69489 -10.56705  -1.10174  -0.81077  -0.55933
 Alpha  occ. eigenvalues --   -0.50464  -0.50292  -0.47502  -0.41156  -0.32964
 Alpha virt. eigenvalues --    0.15081   0.20305   0.20394   0.29817   0.54718
 Alpha virt. eigenvalues --    0.55047   0.58178   0.76028   0.92776   0.94466
 Alpha virt. eigenvalues --    0.94481   0.95272   0.97576   1.01135   1.19278

  Beta  occ. eigenvalues --  -19.66956 -10.56129  -0.98320  -0.77930  -0.49103
  Beta  occ. eigenvalues --   -0.49036  -0.46307  -0.36001
  Beta virt. eigenvalues --   -0.07615  -0.05394   0.15419   0.21216   0.21270
  Beta virt. eigenvalues --    0.32969   0.55848   0.55926   0.62751   0.77239
  Beta virt. eigenvalues --    0.96342   0.96418   0.96919   0.99358   1.01242

 Mulliken charges and spin densities:
               1          2
     1  C   -0.653808   0.734867
     2  H    0.206309  -0.025739
     3  H    0.207022  -0.026554
     4  H    0.207022  -0.026554
     5  H    0.387441  -0.097302
     6  O   -0.353985   1.441283
 Sum of Mulliken charges =  -0.00000   2.00000

 Dipole moment (field-independent basis, Debye):
    X=             -0.0003    Y=             -2.1280    Z=             -0.0000  Tot=              2.1280
 Quadrupole moment (field-independent basis, Debye-Ang):
   XX=            -12.4182   YY=            -15.3055   ZZ=            -13.5455
   XY=             -0.0015   XZ=              0.0000   YZ=             -0.0000

  Exact polarizability:  14.500  -0.070  31.881   0.000  -0.000  14.193
 Approx polarizability:  14.625  -0.079  29.771   0.000  -0.000  14.138

 ******    1 imaginary frequencies (negative Signs) ******

                      1                      2                      3
                     A'                     A"                     A'
 Frequencies --  -1530.1434               286.1421               388.1867
 Red. masses --      1.0993                 1.0579                 1.0700
 Frc consts  --      1.5164                 0.0510                 0.0950
 IR Inten    --    686.3722                 6.5232                 4.0938

                      4                      5                      6
                     A'                     A"                     A'
 Frequencies --    578.6288               975.5802              1129.2254
 Red. masses --      4.0586                 1.0717                 1.0667
 Frc consts  --      0.8006                 0.6010                 0.8014
 IR Inten    --      0.0441                36.6520                41.6728

                      7                      8                      9
                     A'                     A"                     A'
 Frequencies --   1224.7642              1456.5881              1458.1448
 Red. masses --      1.2509                 1.0790                 1.0759
 Frc consts  --      1.1055                 1.3488                 1.3478
 IR Inten    --     26.9596                 4.2265                 3.7764

                     10                     11                     12
                     A'                     A'                     A"
 Frequencies --   3129.8576              3275.8511              3281.6284
 Red. masses --      1.0173                 1.1120                 1.1125
 Frc consts  --      5.8717                 7.0308                 7.0591
 IR Inten    --      0.0086                 3.6247                 3.2630

 - Thermochemistry -
 -------------------
 Temperature   298.150 Kelvin.  Pressure   1.00000 Atm.
 Atom     1 has atomic number  6 and mass  12.00000

 Molecular mass:    32.02621 amu.
 Principal axes and moments of inertia in atomic units:
                           1         2         3
     Eigenvalues --    12.10523 189.14273 189.17062
           X           -0.00003   0.00000   1.00000
           Y            1.00000   0.00000   0.00003
           Z            0.00000   1.00000   0.00000
 This molecule is an asymmetric top.
 Rotational symmetry number  1.
 Rotational temperatures (Kelvin)      7.15508     0.45793     0.45786
 Rotational constants (GHZ):         149.08769     9.54169     9.54028
    1 imaginary frequencies ignored.
 Zero-point vibrational energy     102786.7 (Joules/Mol)
                                   24.56662 (Kcal/Mol)
 Warning -- explicit consideration of   3 degrees of freedom as
           vibrations may cause significant error
 Vibrational temperatures:    411.69   558.51   832.52  1403.64  1624.70
          (Kelvin)           1762.16  2095.71  2097.95  4503.17  4713.22
                             4721.53

 Zero-point correction=                           0.039149 (Hartree/Particle)
 Thermal correction to Energy=                    0.043002
 Thermal correction to Enthalpy=                  0.043947
 Thermal correction to Gibbs Free Energy=         0.014288
 Sum of electronic and zero-point Energies=           -115.448448
 Sum of electronic and thermal Energies=              -115.444595
 Sum of electronic and thermal Enthalpies=            -115.443651
 Sum of electronic and thermal Free Energies=         -115.473309

                     E (Thermal)             CV                S
                      KCal/Mol        Cal/Mol-Kelvin    Cal/Mol-Kelvin
 Total                   26.984             11.258             62.422
 Electronic               0.000              0.000              2.183
 Translational            0.889              2.981             36.324
 Rotational               0.889              2.981             20.699
 Vibrational             25.207              5.296              3.216
 Vibration     1          0.684              1.699              1.497
 Vibration     2          0.756              1.495              1.007
 Vibration     3          0.935              1.078              0.488

 Optimization completed.
    -- Stationary point found.
 Normal termination of Gaussian 16 at Wed Oct  7 14:25:21 2020.
