 Gaussian 16, Revision A.03,

 ----------------------------------------------------------------------
 #P Opt(TS,MaxCyc=50,NoEigenTest,MaxStep=10,AddRedundant) M062X/6-31G*
 5D 7F Integral=UltraFineGrid SCF=(NoSymm,XQC,MaxCyc=120) EmpiricalDisp
 ersion=GD3 IOp(1/33=1)
 ----------------------------------------------------------------------

 TstMul:  Mul=     3
 TstMul:  ICh=     0
 TstMul:  Mul=     3
 Symbolic Z-matrix:
 Charge =  0 Multiplicity = 3

 SCF Done:  E(UM062X) =  -76.1715664406     A.U. after   16 cycles
 SCF Done:  E(UM062X) =  -76.1717251250     A.U. after    9 cycles
 SCF Done:  E(UM062X) =  -76.1713330428     A.U. after   14 cycles
 SCF Done:  E(UM062X) =  -76.1713840323     A.U. after   14 cycles
 SCF Done:  E(UM062X) =  -76.1713849124     A.U. after    8 cycles
 Optimization completed.
    -- Stationary point found.
 Normal termination of Gaussian 16 at Wed Oct  7 14:24:15 2020.
 Gaussian 16:  ES64L-G16RevA.03 25-Dec-2016

 ----------------------------------------------------------------------
 #P Freq M062X/6-31G* 5D 7F Integral=UltraFineGrid SCF=(NoSymm,XQC,MaxC
 yc=120) EmpiricalDispersion=GD3 IOp(1/33=1) Geom=Check Guess=Read
 ----------------------------------------------------------------------

 TstMul:  Mul=     3
 TstMul:  ICh=     0
 TstMul:  Mul=     3
 Structure from the checkpoint file:  "MN_89_RKT14_BH76_M062XD30_631Gs.chk"
 Charge =  0 Multiplicity = 3

                         Standard orientation:
 ---------------------------------------------------------------------
 Center     Atomic      Atomic             Coordinates (Angstroms)
 Number     Number       Type             X           Y           Z
 ---------------------------------------------------------------------
      1          1           0        0.000000    0.000000   -0.832645
      2          8           0        0.000000    0.000000    0.327647
      3          1           0        0.000000    0.000000   -1.788531
 ---------------------------------------------------------------------

 SCF Done:  E(UM062X) =  -76.1713849124     A.U. after    1 cycles

 Unable to determine electronic state:  an orbital has unidentified symmetry.
 Alpha  occ. eigenvalues --  -19.72825  -1.12850  -0.61202  -0.50615  -0.44020
 Alpha  occ. eigenvalues --   -0.38978
 Alpha virt. eigenvalues --    0.23188   0.67073   0.83808   0.88289   0.92958
 Alpha virt. eigenvalues --    0.99426   1.43016   1.75219   1.79103   1.80625
 Alpha virt. eigenvalues --    1.80761   2.25059
  Beta  occ. eigenvalues --  -19.70168  -1.00258  -0.50807  -0.38549
  Beta virt. eigenvalues --   -0.10700  -0.07702   0.23378   0.67545   0.89704
  Beta virt. eigenvalues --    0.94741   0.96990   1.02999   1.47558   1.82249
  Beta virt. eigenvalues --    1.82353   1.85777   1.87559   2.29422

 Mulliken charges and spin densities:
               1          2
     1  H    0.227067  -0.133279
     2  O   -0.262013   1.513659
     3  H    0.034946   0.619621
 Sum of Mulliken charges =  -0.00000   2.00000

 Dipole moment (field-independent basis, Debye):
    X=              0.0000    Y=              0.0000    Z=             -1.1796  Tot=              1.1796
 Quadrupole moment (field-independent basis, Debye-Ang):
   XX=             -7.7350   YY=             -6.5966   ZZ=             -6.1787
   XY=             -0.0000   XZ=              0.0000   YZ=              0.0000

  Exact polarizability:   2.293   0.000   2.707   0.000   0.000  20.112
 Approx polarizability:   2.185   0.000   2.738   0.000   0.000  20.230

 ******    1 imaginary frequencies (negative Signs) ******

                      1                      2                      3
                     SG                     PI                     PI
 Frequencies --  -1713.6365               545.9885               880.6744
 Red. masses --      1.0340                 1.0172                 1.0172
 Frc consts  --      1.7890                 0.1787                 0.4648
 IR Inten    --    535.0660                17.9645                14.5124

                      4
                     SG
 Frequencies --   1542.6219
 Red. masses --      1.0949
 Frc consts  --      1.5351
 IR Inten    --     29.3962

 - Thermochemistry -
 -------------------
 Temperature   298.150 Kelvin.  Pressure   1.00000 Atm.
 Atom     1 has atomic number  1 and mass   1.00783

 Molecular mass:    18.01056 amu.
 Principal axes and moments of inertia in atomic units:
                           1         2         3
     Eigenvalues --     0.00000  18.80039  18.80039
           X            0.00000   0.00000   1.00000
           Y            0.00000   1.00000   0.00000
           Z            1.00000   0.00000   0.00000
 This molecule is a prolate symmetric top.
 Rotational symmetry number  1.
 Rotational temperature (Kelvin)      4.60703
 Rotational constant (GHZ):          95.994889
    1 imaginary frequencies ignored.
 Zero-point vibrational energy      17760.3 (Joules/Mol)
                                    4.24481 (Kcal/Mol)
 Warning -- explicit consideration of   1 degrees of freedom as
           vibrations may cause significant error
 Vibrational temperatures:    785.56  1267.09  2219.49
          (Kelvin)

 Zero-point correction=                           0.006765 (Hartree/Particle)
 Thermal correction to Energy=                    0.009379
 Thermal correction to Enthalpy=                  0.010324
 Thermal correction to Gibbs Free Energy=        -0.012377
 Sum of electronic and zero-point Energies=            -76.164620
 Sum of electronic and thermal Energies=               -76.162005
 Sum of electronic and thermal Enthalpies=             -76.161061
 Sum of electronic and thermal Free Energies=          -76.183762

                     E (Thermal)             CV                S
                      KCal/Mol        Cal/Mol-Kelvin    Cal/Mol-Kelvin
 Total                    5.886              6.708             47.778
 Electronic               0.000              0.000              2.183
 Translational            0.889              2.981             34.608
 Rotational               0.592              1.987             10.274
 Vibrational              4.404              1.740              0.713
 Vibration     1          0.901              1.148              0.553

 Optimization completed.
    -- Stationary point found.

 1\1\GINC-NODE62\Freq\UM062X\6-31G(d)\H2O1(3)\RPEVERATI\07-Oct-2020\0\\
 #P Freq M062X/6-31G* 5D 7F Integral=UltraFineGrid SCF=(NoSymm,XQC,MaxC
 yc=120) EmpiricalDispersion=GD3 IOp(1/33=1) Geom=Check Guess=Read\\TS
 search on BH76.\\0,3\H,0.,0.,-0.8358599036\O,0.,0.,0.324432562\H,0.,0.
 ,-1.7917450295\\Version=ES64L-G16RevA.03\HF=-76.1713849\S2=2.016368\S2
 -1=0.\S2A=2.000035\RMSD=1.107e-09\RMSF=4.490e-05\ZeroPoint=0.0067645\T
 hermal=0.0093794\Dipole=0.,0.,-0.4641053\DipoleDeriv=0.1651681,0.,0.,0
 .,0.1528249,0.,0.,0.,-0.6609637,-0.1914939,0.,0.,0.,-0.1851358,0.,0.,0

 Normal termination of Gaussian 16 at Wed Oct  7 14:24:39 2020.
