 Gaussian 16, Revision A.03,

 ----------------------------------------------------------------------
 #P Opt(TS,MaxCyc=50,NoEigenTest,MaxStep=10,AddRedundant) M062X/6-31G*
 5D 7F Integral=UltraFineGrid SCF=(NoSymm,XQC,MaxCyc=120) EmpiricalDisp
 ersion=GD3 IOp(1/33=1)
 ----------------------------------------------------------------------

 TstMul:  Mul=     2
 TstMul:  ICh=     0
 TstMul:  Mul=     2
 Symbolic Z-matrix:
 Charge =  0 Multiplicity = 2

 SCF Done:  E(UM062X) =  -132.195778151     A.U. after   23 cycles
 SCF Done:  E(UM062X) =  -132.195855466     A.U. after   18 cycles
 SCF Done:  E(UM062X) =  -132.195775894     A.U. after   20 cycles
 SCF Done:  E(UM062X) =  -132.195731793     A.U. after   16 cycles
 SCF Done:  E(UM062X) =  -132.195730706     A.U. after   14 cycles
 SCF Done:  E(UM062X) =  -132.195793170     A.U. after   19 cycles
 SCF Done:  E(UM062X) =  -132.195824962     A.U. after   19 cycles
 SCF Done:  E(UM062X) =  -132.195990552     A.U. after   18 cycles
 SCF Done:  E(UM062X) =  -132.196072403     A.U. after   19 cycles
 SCF Done:  E(UM062X) =  -132.196173283     A.U. after   20 cycles
 SCF Done:  E(UM062X) =  -132.196220820     A.U. after   21 cycles
 SCF Done:  E(UM062X) =  -132.196240877     A.U. after   19 cycles
 SCF Done:  E(UM062X) =  -132.196255446     A.U. after   14 cycles
 SCF Done:  E(UM062X) =  -132.196281102     A.U. after   19 cycles
 SCF Done:  E(UM062X) =  -132.196288977     A.U. after   15 cycles
 SCF Done:  E(UM062X) =  -132.196289792     A.U. after   14 cycles
 Optimization completed.
    -- Stationary point found.
 Normal termination of Gaussian 16 at Wed Oct  7 14:27:30 2020.
 Gaussian 16:  ES64L-G16RevA.03 25-Dec-2016

 ----------------------------------------------------------------------
 #P Freq M062X/6-31G* 5D 7F Integral=UltraFineGrid SCF=(NoSymm,XQC,MaxC
 yc=120) EmpiricalDispersion=GD3 IOp(1/33=1) Geom=Check Guess=Read
 ----------------------------------------------------------------------

 TstMul:  Mul=     2
 TstMul:  ICh=     0
 TstMul:  Mul=     2
 Structure from the checkpoint file:  "MN_83_RKT07_BH76_M062XD30_631Gs.chk"
 Charge =  0 Multiplicity = 2

                         Standard orientation:
 ---------------------------------------------------------------------
 Center     Atomic      Atomic             Coordinates (Angstroms)
 Number     Number       Type             X           Y           Z
 ---------------------------------------------------------------------
      1          7           0       -1.140444   -0.022068   -0.109127
      2          8           0        1.158321   -0.102304    0.009850
      3          1           0       -1.269488   -0.655762    0.681938
      4          1           0       -1.278776    0.920764    0.260063
      5          1           0       -0.045613   -0.139490   -0.422179
      6          1           0        1.310420    0.847394    0.165268
 ---------------------------------------------------------------------

 SCF Done:  E(UM062X) =  -132.196289792     A.U. after    1 cycles

 The electronic state is 2-A.
 Alpha  occ. eigenvalues --  -19.64598 -14.77487  -1.10737  -0.97430  -0.59947
 Alpha  occ. eigenvalues --   -0.55971  -0.50099  -0.41995  -0.38259  -0.34945
 Alpha virt. eigenvalues --    0.10488   0.16557   0.19729   0.31811   0.67691
 Alpha virt. eigenvalues --    0.69393   0.75003   0.88378   0.89537   0.90720
 Alpha virt. eigenvalues --    0.95251   1.01944   1.04119   1.16158   1.29163

  Beta  occ. eigenvalues --  -19.63476 -14.76796  -1.06859  -0.94367  -0.56519
  Beta  occ. eigenvalues --   -0.54461  -0.47184  -0.36014  -0.34241
  Beta virt. eigenvalues --   -0.09069   0.11171   0.17261   0.20417   0.33144
  Beta virt. eigenvalues --    0.69097   0.69623   0.79058   0.88906   0.90290
  Beta virt. eigenvalues --    0.93006   0.96632   1.03187   1.06552   1.18755

 Mulliken charges and spin densities:
               1          2
     1  N   -0.841662   0.537170
     2  O   -0.689051   0.576502
     3  H    0.346731  -0.021135
     4  H    0.329193  -0.021785
     5  H    0.450124  -0.052303
     6  H    0.404664  -0.018450
 Sum of Mulliken charges =  -0.00000   1.00000

 Dipole moment (field-independent basis, Debye):
    X=             -0.8621    Y=              1.9680    Z=              1.5122  Tot=              2.6274
 Quadrupole moment (field-independent basis, Debye-Ang):
   XX=            -14.6745   YY=            -10.7079   ZZ=            -13.9254
   XY=              1.7235   XZ=             -2.2055   YZ=             -0.0380

  Exact polarizability:  48.190   0.914  14.827   0.780   0.161  10.102
 Approx polarizability:  41.127  -0.442  15.835   1.434   0.193  10.499

 ******    1 imaginary frequencies (negative Signs) ******

                      1                      2                      3
                      A                      A                      A
 Frequencies --  -1288.3208               205.1426               426.9894
 Red. masses --      1.0635                 1.0641                 2.2165
 Frc consts  --      1.0400                 0.0264                 0.2381
 IR Inten    --    976.3145                78.2067                17.5489

                      4                      5                      6
                      A                      A                      A
 Frequencies --    533.0497               861.1440               917.0062
 Red. masses --      1.0245                 1.5012                 1.1573
 Frc consts  --      0.1715                 0.6559                 0.5734
 IR Inten    --     44.2007               129.9931                95.7616

                      7                      8                      9
                      A                      A                      A
 Frequencies --   1580.5767              1631.5630              1737.6143
 Red. masses --      1.1232                 1.0949                 1.0219
 Frc consts  --      1.6532                 1.7172                 1.8180
 IR Inten    --    233.1681                70.1698               150.8392

                     10                     11                     12
                      A                      A                      A
 Frequencies --   3491.2461              3588.0330              3765.2065
 Red. masses --      1.0508                 1.0908                 1.0666
 Frc consts  --      7.5463                 8.2741                 8.9091
 IR Inten    --      9.9757                 4.1568                42.3002

 - Thermochemistry -
 -------------------
 Temperature   298.150 Kelvin.  Pressure   1.00000 Atm.
 Atom     1 has atomic number  7 and mass  14.00307

 Molecular mass:    34.02929 amu.
 Principal axes and moments of inertia in atomic units:
                           1         2         3
     Eigenvalues --    10.86398 162.63464 167.23699
           X            0.99960   0.01706  -0.02248
           Y           -0.01716   0.99984  -0.00450
           Z            0.02240   0.00488   0.99974
 This molecule is an asymmetric top.
 Rotational symmetry number  1.
 Rotational temperatures (Kelvin)      7.97258     0.53257     0.51791
 Rotational constants (GHZ):         166.12162    11.09691    10.79152
    1 imaginary frequencies ignored.
 Zero-point vibrational energy     112075.6 (Joules/Mol)
                                   26.78670 (Kcal/Mol)
 Warning -- explicit consideration of   3 degrees of freedom as
           vibrations may cause significant error
 Vibrational temperatures:    295.15   614.34   766.94  1238.99  1319.37
          (Kelvin)           2274.10  2347.46  2500.04  5023.12  5162.38
                             5417.29

 Zero-point correction=                           0.042687 (Hartree/Particle)
 Thermal correction to Energy=                    0.046679
 Thermal correction to Enthalpy=                  0.047623
 Thermal correction to Gibbs Free Energy=         0.018141
 Sum of electronic and zero-point Energies=           -132.153602
 Sum of electronic and thermal Energies=              -132.149611
 Sum of electronic and thermal Enthalpies=            -132.148667
 Sum of electronic and thermal Free Energies=         -132.178148

                     E (Thermal)             CV                S
                      KCal/Mol        Cal/Mol-Kelvin    Cal/Mol-Kelvin
 Total                   29.291             11.550             62.049
 Electronic               0.000              0.000              1.377
 Translational            0.889              2.981             36.505
 Rotational               0.889              2.981             20.319
 Vibrational             27.514              5.589              3.848
 Vibration     1          0.640              1.833              2.086
 Vibration     2          0.789              1.412              0.869
 Vibration     3          0.888              1.177              0.580

 Optimization completed.
    -- Stationary point found.
 Normal termination of Gaussian 16 at Wed Oct  7 14:28:00 2020.
