 Gaussian 16, Revision A.03,

 ----------------------------------------------------------------------
 #P Opt(TS,MaxCyc=50,NoEigenTest,MaxStep=10,AddRedundant) M062X/6-31G*
 5D 7F Integral=UltraFineGrid SCF=(NoSymm,XQC,MaxCyc=120) EmpiricalDisp
 ersion=GD3 IOp(1/33=1)
 ----------------------------------------------------------------------

 TstMul:  Mul=     2
 TstMul:  ICh=     0
 TstMul:  Mul=     2
 Symbolic Z-matrix:
 Charge =  0 Multiplicity = 2

 SCF Done:  E(UM062X) =  -500.561738158     A.U. after   18 cycles
 SCF Done:  E(UM062X) =  -500.562394037     A.U. after   17 cycles
 SCF Done:  E(UM062X) =  -500.562108010     A.U. after   17 cycles
 SCF Done:  E(UM062X) =  -500.561572341     A.U. after   15 cycles
 SCF Done:  E(UM062X) =  -500.561054263     A.U. after   15 cycles
 SCF Done:  E(UM062X) =  -500.560576085     A.U. after   15 cycles
 SCF Done:  E(UM062X) =  -500.560217690     A.U. after   15 cycles
 SCF Done:  E(UM062X) =  -500.560085550     A.U. after   14 cycles
 SCF Done:  E(UM062X) =  -500.560145544     A.U. after   11 cycles
 SCF Done:  E(UM062X) =  -500.560258035     A.U. after   14 cycles
 SCF Done:  E(UM062X) =  -500.560345018     A.U. after   14 cycles
 SCF Done:  E(UM062X) =  -500.560394789     A.U. after   14 cycles
 SCF Done:  E(UM062X) =  -500.560402484     A.U. after   11 cycles
 SCF Done:  E(UM062X) =  -500.560404232     A.U. after   10 cycles
 SCF Done:  E(UM062X) =  -500.560403922     A.U. after   10 cycles
 Optimization completed.
    -- Stationary point found.
 Normal termination of Gaussian 16 at Wed Oct  7 14:27:04 2020.
 Gaussian 16:  ES64L-G16RevA.03 25-Dec-2016

 ----------------------------------------------------------------------
 #P Freq M062X/6-31G* 5D 7F Integral=UltraFineGrid SCF=(NoSymm,XQC,MaxC
 yc=120) EmpiricalDispersion=GD3 IOp(1/33=1) Geom=Check Guess=Read
 ----------------------------------------------------------------------

 TstMul:  Mul=     2
 TstMul:  ICh=     0
 TstMul:  Mul=     2
 Structure from the checkpoint file:  "MN_84_RKT08_BH76_M062XD30_631Gs.chk"
 Charge =  0 Multiplicity = 2

                         Standard orientation:
 ---------------------------------------------------------------------
 Center     Atomic      Atomic             Coordinates (Angstroms)
 Number     Number       Type             X           Y           Z
 ---------------------------------------------------------------------
      1          6           0        1.893719    0.000008   -0.000001
      2          1           0        2.073949   -0.828949    0.675709
      3          1           0        2.075161    0.999582    0.379633
      4          1           0        2.073197   -0.171102   -1.055827
      5          1           0        0.345548   -0.000005    0.000208
      6         17           0       -1.054716    0.000025    0.000017
 ---------------------------------------------------------------------

 SCF Done:  E(UM062X) =  -500.560403922     A.U. after    1 cycles

 The electronic state is 2-A.
 Alpha  occ. eigenvalues -- -102.62355 -10.59070  -9.78742  -7.51312  -7.50235
 Alpha  occ. eigenvalues --   -7.50235  -0.91375  -0.82097  -0.52911  -0.52349
 Alpha  occ. eigenvalues --   -0.52347  -0.37079  -0.37079  -0.32225
 Alpha virt. eigenvalues --    0.13770   0.16561   0.19382   0.19383   0.44052
 Alpha virt. eigenvalues --    0.47388   0.47392   0.48692   0.58224   0.58277
 Alpha virt. eigenvalues --    0.58282   0.88810   0.92417   0.92421   0.94162

  Beta  occ. eigenvalues -- -102.61994 -10.58482  -9.78620  -7.50365  -7.50121
  Beta  occ. eigenvalues --   -7.50121  -0.89637  -0.78443  -0.51102  -0.51100
  Beta  occ. eigenvalues --   -0.49314  -0.36463  -0.36463
  Beta virt. eigenvalues --   -0.09657   0.14570   0.19548   0.20413   0.20414
  Beta virt. eigenvalues --    0.44817   0.47708   0.47712   0.50573   0.58855
  Beta virt. eigenvalues --    0.58861   0.62581   0.90555   0.94381   0.94384

 Mulliken charges and spin densities:
               1          2
     1  C   -0.553079   0.890701
     2  H    0.221410  -0.034942
     3  H    0.221388  -0.034968
     4  H    0.221421  -0.034935
     5  H    0.101489  -0.071182
     6  Cl  -0.212629   0.285326
 Sum of Mulliken charges =  -0.00000   1.00000

 Dipole moment (field-independent basis, Debye):
    X=              3.1195    Y=             -0.0003    Z=             -0.0001  Tot=              3.1195
 Quadrupole moment (field-independent basis, Debye-Ang):
   XX=            -18.9754   YY=            -20.9500   ZZ=            -20.9503
   XY=              0.0008   XZ=              0.0009   YZ=             -0.0000

  Exact polarizability:  40.848   0.002  17.668  -0.000   0.006  17.670
 Approx polarizability:  39.647   0.005  18.319   0.005  -0.000  18.319

 ******    1 imaginary frequencies (negative Signs) ******

                      1                      2                      3
                      A                      A                      A
 Frequencies --   -714.5927               334.9672               340.4154
 Red. masses --      2.1052                 1.0322                 1.0321
 Frc consts  --      0.6334                 0.0682                 0.0705
 IR Inten    --     31.3231                 1.7906                 1.7389

                      4                      5                      6
                      A                      A                      A
 Frequencies --    709.6942               815.3738               816.3608
 Red. masses --      1.3181                 1.0473                 1.0475
 Frc consts  --      0.3911                 0.4102                 0.4113
 IR Inten    --     53.9290                21.2728                21.5315

                      7                      8                      9
                      A                      A                      A
 Frequencies --   1215.8383              1445.2443              1445.6529
 Red. masses --      1.3338                 1.0919                 1.0919
 Frc consts  --      1.1617                 1.3438                 1.3445
 IR Inten    --     31.6349                 5.1038                 5.0862

                     10                     11                     12
                      A                      A                      A
 Frequencies --   3145.6832              3313.4072              3313.9662
 Red. masses --      1.0125                 1.1157                 1.1156
 Frc consts  --      5.9031                 7.2166                 7.2189
 IR Inten    --      0.7412                 0.1603                 0.1628

 - Thermochemistry -
 -------------------
 Temperature   298.150 Kelvin.  Pressure   1.00000 Atm.
 Atom     1 has atomic number  6 and mass  12.00000

 Molecular mass:    51.00015 amu.
 Principal axes and moments of inertia in atomic units:
                           1         2         3
     Eigenvalues --    12.34846 341.66506 341.66550
           X            1.00000   0.00000   0.00000
           Y           -0.00000   1.00000  -0.00003
           Z           -0.00000   0.00003   1.00000
 This molecule is an asymmetric top.
 Rotational symmetry number  1.
 Rotational temperatures (Kelvin)      7.01415     0.25351     0.25351
 Rotational constants (GHZ):         146.15116     5.28219     5.28219
    1 imaginary frequencies ignored.
 Zero-point vibrational energy     101064.1 (Joules/Mol)
                                   24.15491 (Kcal/Mol)
 Warning -- explicit consideration of   2 degrees of freedom as
           vibrations may cause significant error
 Vibrational temperatures:    481.94   489.78  1021.09  1173.14  1174.56
          (Kelvin)           1749.32  2079.38  2079.97  4525.94  4767.25
                             4768.06

 Zero-point correction=                           0.038493 (Hartree/Particle)
 Thermal correction to Energy=                    0.042361
 Thermal correction to Enthalpy=                  0.043305
 Thermal correction to Gibbs Free Energy=         0.012811
 Sum of electronic and zero-point Energies=           -500.521911
 Sum of electronic and thermal Energies=              -500.518043
 Sum of electronic and thermal Enthalpies=            -500.517099
 Sum of electronic and thermal Free Energies=         -500.547593

                     E (Thermal)             CV                S
                      KCal/Mol        Cal/Mol-Kelvin    Cal/Mol-Kelvin
 Total                   26.582             11.599             64.181
 Electronic               0.000              0.000              1.377
 Translational            0.889              2.981             37.711
 Rotational               0.889              2.981             21.893
 Vibrational             24.804              5.637              3.199
 Vibration     1          0.716              1.606              1.236
 Vibration     2          0.720              1.595              1.210

 Optimization completed.
    -- Stationary point found.
 Normal termination of Gaussian 16 at Wed Oct  7 14:27:35 2020.
