 Gaussian 16, Revision A.03,

 ----------------------------------------------------------------------
 #P Opt(TS,MaxCyc=50,NoEigenTest,MaxStep=10,AddRedundant) M062X/6-31G*
 5D 7F Integral=UltraFineGrid SCF=(NoSymm,XQC,MaxCyc=120) EmpiricalDisp
 ersion=GD3 IOp(1/33=1)
 ----------------------------------------------------------------------

 TstMul:  Mul=     2
 TstMul:  ICh=     0
 TstMul:  Mul=     2
 Symbolic Z-matrix:
 Charge =  0 Multiplicity = 2

 SCF Done:  E(UM062X) =  -155.450490904     A.U. after   19 cycles
 SCF Done:  E(UM062X) =  -155.450492719     A.U. after   15 cycles
 SCF Done:  E(UM062X) =  -155.450496490     A.U. after   14 cycles
 SCF Done:  E(UM062X) =  -155.450640547     A.U. after   19 cycles
 SCF Done:  E(UM062X) =  -155.450711808     A.U. after   19 cycles
 SCF Done:  E(UM062X) =  -155.450756752     A.U. after   17 cycles
 SCF Done:  E(UM062X) =  -155.450849402     A.U. after   18 cycles
 SCF Done:  E(UM062X) =  -155.450853455     A.U. after   23 cycles
 SCF Done:  E(UM062X) =  -155.450892232     A.U. after   20 cycles
 SCF Done:  E(UM062X) =  -155.450896488     A.U. after   15 cycles
 SCF Done:  E(UM062X) =  -155.450900327     A.U. after   14 cycles
 SCF Done:  E(UM062X) =  -155.450901428     A.U. after   15 cycles
 SCF Done:  E(UM062X) =  -155.450901818     A.U. after   13 cycles
 SCF Done:  E(UM062X) =  -155.450894107     A.U. after   16 cycles
 SCF Done:  E(UM062X) =  -155.450900858     A.U. after   15 cycles
 SCF Done:  E(UM062X) =  -155.450885571     A.U. after   23 cycles
 SCF Done:  E(UM062X) =  -155.450900657     A.U. after   22 cycles
 SCF Done:  E(UM062X) =  -155.450901423     A.U. after   15 cycles
 SCF Done:  E(UM062X) =  -155.450901493     A.U. after   12 cycles
 Optimization completed on the basis of negligible forces.
    -- Stationary point found.
 Normal termination of Gaussian 16 at Sun Oct 11 10:59:24 2020.
 Gaussian 16:  ES64L-G16RevA.03 25-Dec-2016

 ----------------------------------------------------------------------
 #P Freq M062X/6-31G* 5D 7F Integral=UltraFineGrid SCF=(NoSymm,XQC,MaxC
 yc=120) EmpiricalDispersion=GD3 IOp(1/33=1) Geom=Check Guess=Read
 ----------------------------------------------------------------------

 TstMul:  Mul=     2
 TstMul:  ICh=     0
 TstMul:  Mul=     2
 Structure from the checkpoint file:  "MN_85_RKT09_BH76_M062XD30_631Gs.chk"
 Charge =  0 Multiplicity = 2

                         Standard orientation:
 ---------------------------------------------------------------------
 Center     Atomic      Atomic             Coordinates (Angstroms)
 Number     Number       Type             X           Y           Z
 ---------------------------------------------------------------------
      1          6           0        1.365133   -0.503297    0.006337
      2          6           0        0.500305    0.738208    0.001558
      3          8           0       -1.821500   -0.232104   -0.108058
      4          1           0        1.086301   -1.175502    0.822217
      5          1           0        1.263964   -1.054323   -0.931887
      6          1           0        2.422095   -0.242618    0.132416
      7          1           0        0.511473    1.291900    0.943334
      8          1           0        0.690275    1.412178   -0.837004
      9          1           0       -0.635011    0.383964   -0.168822
     10          1           0       -1.959722   -0.168231    0.856835
 ---------------------------------------------------------------------

 SCF Done:  E(UM062X) =  -155.450901493     A.U. after    1 cycles

 The electronic state is 2-A.
 Alpha  occ. eigenvalues --  -19.65103 -10.55039 -10.53472  -1.10101  -0.86373
 Alpha  occ. eigenvalues --   -0.71331  -0.56277  -0.52205  -0.50393  -0.46609
 Alpha  occ. eigenvalues --   -0.44310  -0.41809  -0.38487  -0.32720
 Alpha virt. eigenvalues --    0.12593   0.16979   0.19523   0.20005   0.21773
 Alpha virt. eigenvalues --    0.23160   0.27219   0.33799   0.54186   0.57139
 Alpha virt. eigenvalues --    0.59213   0.66177   0.67449   0.72650   0.86887

  Beta  occ. eigenvalues --  -19.63834 -10.54644 -10.53489  -1.05315  -0.85373
  Beta  occ. eigenvalues --   -0.70125  -0.52687  -0.51350  -0.48199  -0.44064
  Beta  occ. eigenvalues --   -0.41535  -0.40607  -0.35743
  Beta virt. eigenvalues --   -0.07741   0.13083   0.17349   0.19691   0.20347
  Beta virt. eigenvalues --    0.21877   0.23380   0.27835   0.36075   0.54468
  Beta virt. eigenvalues --    0.57379   0.59837   0.67697   0.68601   0.73423

 Mulliken charges and spin densities:
               1          2
     1  C   -0.475814  -0.016976
     2  C   -0.504176   0.417634
     3  O   -0.616217   0.695161
     4  H    0.168589   0.003500
     5  H    0.181121   0.002802
     6  H    0.170146   0.017723
     7  H    0.173779  -0.012940
     8  H    0.187425  -0.006984
     9  H    0.309075  -0.077668
    10  H    0.406071  -0.022252
 Sum of Mulliken charges =  -0.00000   1.00000

 Dipole moment (field-independent basis, Debye):
    X=              1.2216    Y=              0.5504    Z=              1.5419  Tot=              2.0427
 Quadrupole moment (field-independent basis, Debye-Ang):
   XX=            -22.1026   YY=            -20.9583   ZZ=            -18.9904
   XY=             -0.1891   XZ=             -3.5390   YZ=             -0.3475

  Exact polarizability:  48.595   5.991  27.872  -1.190  -0.059  27.632
 Approx polarizability:  44.228   6.615  28.788  -0.211   0.239  30.586

 ******    2 imaginary frequencies (negative Signs) ******

                      1                      2                      3
                      A                      A                      A
 Frequencies --  -1181.7622               -60.2938               105.3621
 Red. masses --      1.1701                 1.0665                 3.1612
 Frc consts  --      0.9628                 0.0023                 0.0207
 IR Inten    --   1272.9911                90.1658                14.2795

                      4                      5                      6
                      A                      A                      A
 Frequencies --    169.0152               371.8550               718.4026
 Red. masses --      1.0934                 1.1064                 1.8294
 Frc consts  --      0.0184                 0.0901                 0.5563
 IR Inten    --      9.2919                 7.7829                64.9034

                      7                      8                      9
                      A                      A                      A
 Frequencies --    804.6594               914.0441               971.4365
 Red. masses --      1.1166                 1.0784                 1.4133
 Frc consts  --      0.4260                 0.5308                 0.7858
 IR Inten    --     34.7485                 3.2477               397.5335

                     10                     11                     12
                      A                      A                      A
 Frequencies --   1049.9550              1188.3760              1240.4234
 Red. masses --      2.6091                 1.2690                 1.4060
 Frc consts  --      1.6946                 1.0559                 1.2746
 IR Inten    --     14.9351                30.4822                 0.1175

                     13                     14                     15
                      A                      A                      A
 Frequencies --   1326.4703              1435.4706              1486.0186
 Red. masses --      1.2276                 1.2234                 1.0402
 Frc consts  --      1.2727                 1.4853                 1.3533
 IR Inten    --      5.4796                 1.7002                10.5794

                     16                     17                     18
                      A                      A                      A
 Frequencies --   1499.8866              1522.0586              1527.8312
 Red. masses --      1.1181                 1.0418                 1.0469
 Frc consts  --      1.4820                 1.4220                 1.4399
 IR Inten    --      6.2529                 8.1499                 3.8938

                     19                     20                     21
                      A                      A                      A
 Frequencies --   3082.5643              3121.7341              3152.3613
 Red. masses --      1.0387                 1.0572                 1.0972
 Frc consts  --      5.8151                 6.0702                 6.4243
 IR Inten    --     15.2428                13.5223                18.5212

                     22                     23                     24
                      A                      A                      A
 Frequencies --   3168.9407              3196.1307              3737.3966
 Red. masses --      1.1036                 1.1074                 1.0667
 Frc consts  --      6.5297                 6.6650                 8.7791
 IR Inten    --      4.3672                29.0856                21.6540

 - Thermochemistry -
 -------------------
 Temperature   298.150 Kelvin.  Pressure   1.00000 Atm.
 Atom     1 has atomic number  6 and mass  12.00000

 Molecular mass:    47.04969 amu.
 Principal axes and moments of inertia in atomic units:
                           1         2         3
     Eigenvalues --    74.78488 343.09101 388.66801
           X            0.99966  -0.01929  -0.01756
           Y            0.01908   0.99975  -0.01204
           Z            0.01779   0.01170   0.99977
 This molecule is an asymmetric top.
 Rotational symmetry number  1.
 Rotational temperatures (Kelvin)      1.15817     0.25245     0.22285
 Rotational constants (GHZ):          24.13244     5.26024     4.64340
    2 imaginary frequencies ignored.
 Zero-point vibrational energy     214074.1 (Joules/Mol)
                                   51.16494 (Kcal/Mol)
 Warning -- explicit consideration of   3 degrees of freedom as
           vibrations may cause significant error
 Vibrational temperatures:    151.59   243.18   535.02  1033.62  1157.73
          (Kelvin)           1315.11  1397.68  1510.65  1709.81  1784.69
                             1908.49  2065.32  2138.05  2158.00  2189.90
                             2198.21  4435.12  4491.48  4535.54  4559.40
                             4598.52  5377.28

 Zero-point correction=                           0.081537 (Hartree/Particle)
 Thermal correction to Energy=                    0.086415
 Thermal correction to Enthalpy=                  0.087359
 Thermal correction to Gibbs Free Energy=         0.053862
 Sum of electronic and zero-point Energies=           -155.369365
 Sum of electronic and thermal Energies=              -155.364487
 Sum of electronic and thermal Enthalpies=            -155.363543
 Sum of electronic and thermal Free Energies=         -155.397040

                     E (Thermal)             CV                S
                      KCal/Mol        Cal/Mol-Kelvin    Cal/Mol-Kelvin
 Total                   54.226             14.884             70.500
 Electronic               0.000              0.000              1.377
 Translational            0.889              2.981             37.471
 Rotational               0.889              2.981             23.815
 Vibrational             52.449              8.923              7.837
 Vibration     1          0.605              1.945              3.353
 Vibration     2          0.625              1.881              2.446
 Vibration     3          0.744              1.530              1.072

 Optimization completed on the basis of negligible forces.
    -- Stationary point found.
 Normal termination of Gaussian 16 at Sun Oct 11 11:00:20 2020.
