 Gaussian 16, Revision A.03,

 ----------------------------------------------------------------------
 #P Opt(TS,MaxCyc=50,NoEigenTest,MaxStep=10,AddRedundant) M062X/6-31G*
 5D 7F Integral=UltraFineGrid SCF=(NoSymm,XQC,MaxCyc=120) EmpiricalDisp
 ersion=GD3 IOp(1/33=1)
 ----------------------------------------------------------------------

 TstMul:  Mul=     2
 TstMul:  ICh=     0
 TstMul:  Mul=     2
 Symbolic Z-matrix:
 Charge =  0 Multiplicity = 2

 SCF Done:  E(UM062X) =  -135.590429254     A.U. after   16 cycles
 SCF Done:  E(UM062X) =  -135.590530688     A.U. after   14 cycles
 SCF Done:  E(UM062X) =  -135.590511851     A.U. after   14 cycles
 SCF Done:  E(UM062X) =  -135.590587172     A.U. after   15 cycles
 SCF Done:  E(UM062X) =  -135.590605048     A.U. after   13 cycles
 SCF Done:  E(UM062X) =  -135.590575707     A.U. after   15 cycles
 SCF Done:  E(UM062X) =  -135.590575545     A.U. after   14 cycles
 SCF Done:  E(UM062X) =  -135.590579159     A.U. after   12 cycles
 SCF Done:  E(UM062X) =  -135.590574791     A.U. after   14 cycles
 SCF Done:  E(UM062X) =  -135.590575628     A.U. after   11 cycles
 SCF Done:  E(UM062X) =  -135.590575824     A.U. after   10 cycles
 SCF Done:  E(UM062X) =  -135.590575764     A.U. after    9 cycles
 SCF Done:  E(UM062X) =  -135.590575753     A.U. after    9 cycles
 Optimization completed.
    -- Stationary point found.
 Normal termination of Gaussian 16 at Wed Oct  7 14:28:18 2020.
 Gaussian 16:  ES64L-G16RevA.03 25-Dec-2016

 ----------------------------------------------------------------------
 #P Freq M062X/6-31G* 5D 7F Integral=UltraFineGrid SCF=(NoSymm,XQC,MaxC
 yc=120) EmpiricalDispersion=GD3 IOp(1/33=1) Geom=Check Guess=Read
 ----------------------------------------------------------------------

 TstMul:  Mul=     2
 TstMul:  ICh=     0
 TstMul:  Mul=     2
 Structure from the checkpoint file:  "MN_94_RKT20_BH76_M062XD30_631Gs.chk"
 Charge =  0 Multiplicity = 2

                         Standard orientation:
 ---------------------------------------------------------------------
 Center     Atomic      Atomic             Coordinates (Angstroms)
 Number     Number       Type             X           Y           Z
 ---------------------------------------------------------------------
      1          6           0       -1.498392   -0.438580   -0.011454
      2          6           0       -0.495445    0.692090    0.018372
      3          7           0        1.875791   -0.340126   -0.038048
      4          1           0       -1.386813   -1.037744   -0.919187
      5          1           0       -1.367656   -1.103951    0.846483
      6          1           0       -2.527234   -0.058656    0.014834
      7          1           0       -0.524058    1.345525   -0.856185
      8          1           0       -0.496594    1.275685    0.941280
      9          1           0        0.654308    0.118574   -0.035427
     10          1           0        2.309738    0.350738   -0.663987
     11          1           0        2.170795   -0.030352    0.897016
 ---------------------------------------------------------------------

 SCF Done:  E(UM062X) =  -135.590575753     A.U. after    1 cycles

 The electronic state is 2-A.
 Alpha  occ. eigenvalues --  -14.74842 -10.54053 -10.52848  -0.94762  -0.85106
 Alpha  occ. eigenvalues --   -0.69979  -0.52756  -0.52616  -0.50976  -0.45254
 Alpha  occ. eigenvalues --   -0.43570  -0.41097  -0.36299  -0.26702
 Alpha virt. eigenvalues --    0.12952   0.16942   0.19660   0.20250   0.21717
 Alpha virt. eigenvalues --    0.22352   0.24079   0.28291   0.34882   0.54370
 Alpha virt. eigenvalues --    0.56686   0.59536   0.65326   0.65551   0.72587

  Beta  occ. eigenvalues --  -14.74050 -10.53548 -10.52868  -0.91531  -0.83972
  Beta  occ. eigenvalues --   -0.68699  -0.51504  -0.50212  -0.49752  -0.43186
  Beta  occ. eigenvalues --   -0.42281  -0.40748  -0.32790
  Beta virt. eigenvalues --   -0.04330   0.13353   0.17190   0.20188   0.20521
  Beta virt. eigenvalues --    0.22080   0.22489   0.24555   0.29030   0.37220
  Beta virt. eigenvalues --    0.54967   0.56952   0.59955   0.65698   0.68991

 Mulliken charges and spin densities:
               1          2
     1  C   -0.473176  -0.021881
     2  C   -0.469669   0.525135
     3  N   -0.775186   0.643897
     4  H    0.175637   0.003851
     5  H    0.171427   0.003869
     6  H    0.167896   0.024788
     7  H    0.171604  -0.017249
     8  H    0.168833  -0.018207
     9  H    0.247773  -0.099131
    10  H    0.307678  -0.022545
    11  H    0.307182  -0.022526
 Sum of Mulliken charges =   0.00000   1.00000

 Dipole moment (field-independent basis, Debye):
    X=             -0.1920    Y=              1.7654    Z=              0.4424  Tot=              1.8301
 Quadrupole moment (field-independent basis, Debye-Ang):
   XX=            -20.5392   YY=            -23.2703   ZZ=            -20.2248
   XY=              3.6179   XZ=              0.8936   YZ=             -0.6152

  Exact polarizability:  55.924  -4.989  31.122  -0.150  -0.584  31.003
 Approx polarizability:  49.925  -5.789  33.032  -0.365  -0.635  33.949

 ******    1 imaginary frequencies (negative Signs) ******

                      1                      2                      3
                      A                      A                      A
 Frequencies --  -1677.2186                28.1896               125.1545
 Red. masses --      1.0855                 1.0850                 2.6418
 Frc consts  --      1.7992                 0.0005                 0.0244
 IR Inten    --    819.7253                54.5439                 7.0398

                      4                      5                      6
                      A                      A                      A
 Frequencies --    157.4863               412.9634               499.3021
 Red. masses --      1.0830                 1.0278                 2.2195
 Frc consts  --      0.0158                 0.1033                 0.3260
 IR Inten    --      0.7797                 2.9315                 0.2312

                      7                      8                      9
                      A                      A                      A
 Frequencies --    760.3659               793.0730               904.5991
 Red. masses --      1.1969                 1.2595                 1.0624
 Frc consts  --      0.4077                 0.4667                 0.5122
 IR Inten    --     19.4755                43.9291                 1.7470

                     10                     11                     12
                      A                      A                      A
 Frequencies --    959.3334              1073.8104              1221.3202
 Red. masses --      1.2600                 2.8200                 1.4128
 Frc consts  --      0.6832                 1.9158                 1.2416
 IR Inten    --    113.9328                10.3850                 3.1918

                     13                     14                     15
                      A                      A                      A
 Frequencies --   1242.8272              1371.3182              1433.8473
 Red. masses --      1.3896                 1.0886                 1.2044
 Frc consts  --      1.2646                 1.2061                 1.4589
 IR Inten    --      0.4660                96.7940                 0.2735

                     16                     17                     18
                      A                      A                      A
 Frequencies --   1495.2925              1521.9242              1525.7213
 Red. masses --      1.1411                 1.0335                 1.0471
 Frc consts  --      1.5033                 1.4104                 1.4361
 IR Inten    --      0.7624                 3.4731                 4.2042

                     19                     20                     21
                      A                      A                      A
 Frequencies --   1537.6005              1622.0166              3072.5490
 Red. masses --      1.0412                 1.0730                 1.0408
 Frc consts  --      1.4503                 1.6633                 5.7892
 IR Inten    --      9.0983                22.0540                21.9417

                     22                     23                     24
                      A                      A                      A
 Frequencies --   3123.5600              3142.9418              3164.6070
 Red. masses --      1.0579                 1.0925                 1.1034
 Frc consts  --      6.0812                 6.3585                 6.5106
 IR Inten    --     11.9314                23.5852                 7.2732

                     25                     26                     27
                      A                      A                      A
 Frequencies --   3200.0057              3401.2310              3504.6397
 Red. masses --      1.1094                 1.0499                 1.0894
 Frc consts  --      6.6933                 7.1558                 7.8836
 IR Inten    --     32.5095                 7.2682                 2.0305

 - Thermochemistry -
 -------------------
 Temperature   298.150 Kelvin.  Pressure   1.00000 Atm.
 Atom     1 has atomic number  6 and mass  12.00000

 Molecular mass:    46.06567 amu.
 Principal axes and moments of inertia in atomic units:
                           1         2         3
     Eigenvalues --    71.38536 375.07753 414.45198
           X            0.99954   0.02997   0.00418
           Y           -0.02990   0.99942  -0.01628
           Z           -0.00466   0.01615   0.99986
 This molecule is an asymmetric top.
 Rotational symmetry number  1.
 Rotational temperatures (Kelvin)      1.21333     0.23092     0.20898
 Rotational constants (GHZ):          25.28167     4.81165     4.35452
    1 imaginary frequencies ignored.
 Zero-point vibrational energy     247003.0 (Joules/Mol)
                                   59.03514 (Kcal/Mol)
 Warning -- explicit consideration of   5 degrees of freedom as
           vibrations may cause significant error
 Vibrational temperatures:     40.56   180.07   226.59   594.16   718.38
          (Kelvin)           1094.00  1141.06  1301.52  1380.27  1544.97
                             1757.21  1788.15  1973.02  2062.99  2151.39
                             2189.71  2195.17  2212.26  2333.72  4420.71
                             4494.11  4521.99  4553.16  4604.09  4893.61
                             5042.39

 Zero-point correction=                           0.094078 (Hartree/Particle)
 Thermal correction to Energy=                    0.099992
 Thermal correction to Enthalpy=                  0.100936
 Thermal correction to Gibbs Free Energy=         0.064463
 Sum of electronic and zero-point Energies=           -135.496497
 Sum of electronic and thermal Energies=              -135.490583
 Sum of electronic and thermal Enthalpies=            -135.489639
 Sum of electronic and thermal Free Energies=         -135.526113

                     E (Thermal)             CV                S
                      KCal/Mol        Cal/Mol-Kelvin    Cal/Mol-Kelvin
 Total                   62.746             17.972             76.765
 Electronic               0.000              0.000              1.377
 Translational            0.889              2.981             37.408
 Rotational               0.889              2.981             23.921
 Vibrational             60.969             12.011             14.058
 Vibration     1          0.593              1.984              5.953
 Vibration     2          0.610              1.928              3.019
 Vibration     3          0.621              1.894              2.580
 Vibration     4          0.777              1.442              0.916
 Vibration     5          0.855              1.252              0.660

                           ! Non-Optimized Parameters !
 Normal termination of Gaussian 16 at Wed Oct  7 14:29:40 2020.
