 Gaussian 16, Revision A.03,

 ----------------------------------------------------------------------
 #P Opt(TS,MaxCyc=50,NoEigenTest,MaxStep=10,AddRedundant) M062X/6-31G*
 5D 7F Integral=UltraFineGrid SCF=(NoSymm,XQC,MaxCyc=120) EmpiricalDisp
 ersion=GD3 IOp(1/33=1)
 ----------------------------------------------------------------------

 TstMul:  Mul=     1
 TstMul:  ICh=     0
 TstMul:  Mul=     1
 Symbolic Z-matrix:
 Charge =  0 Multiplicity = 1

 SCF Done:  E(RM062X) =  -195.135292482     A.U. after   13 cycles
 SCF Done:  E(RM062X) =  -195.135388026     A.U. after   10 cycles
 SCF Done:  E(RM062X) =  -195.135383307     A.U. after    8 cycles
 SCF Done:  E(RM062X) =  -195.135376474     A.U. after    9 cycles
 SCF Done:  E(RM062X) =  -195.135364530     A.U. after    9 cycles
 SCF Done:  E(RM062X) =  -195.135347059     A.U. after   10 cycles
 SCF Done:  E(RM062X) =  -195.135352789     A.U. after   11 cycles
 SCF Done:  E(RM062X) =  -195.135402430     A.U. after    9 cycles
 SCF Done:  E(RM062X) =  -195.135406689     A.U. after   12 cycles
 SCF Done:  E(RM062X) =  -195.135412469     A.U. after    9 cycles
 SCF Done:  E(RM062X) =  -195.135415099     A.U. after    9 cycles
 SCF Done:  E(RM062X) =  -195.135415713     A.U. after    9 cycles
 SCF Done:  E(RM062X) =  -195.135415975     A.U. after    8 cycles
 Optimization completed.
    -- Stationary point found.
 Normal termination of Gaussian 16 at Wed Oct  7 14:28:52 2020.
 Gaussian 16:  ES64L-G16RevA.03 25-Dec-2016

 ----------------------------------------------------------------------
 #P Freq M062X/6-31G* 5D 7F Integral=UltraFineGrid SCF=(NoSymm,XQC,MaxC
 yc=120) EmpiricalDispersion=GD3 IOp(1/33=1) Geom=Check Guess=Read
 ----------------------------------------------------------------------

 TstMul:  Mul=     1
 TstMul:  ICh=     0
 TstMul:  Mul=     1
 Structure from the checkpoint file:  "MN_96_RKT22_BH76_M062XD30_631Gs.chk"
 Charge =  0 Multiplicity = 1

                         Standard orientation:
 ---------------------------------------------------------------------
 Center     Atomic      Atomic             Coordinates (Angstroms)
 Number     Number       Type             X           Y           Z
 ---------------------------------------------------------------------
      1          6           0       -1.303235   -0.903704   -0.020662
      2          6           0       -1.206116    0.505245   -0.013972
      3          6           0        0.000130    1.183092    0.155448
      4          6           0        1.206317    0.505065   -0.014085
      5          6           0        1.303077   -0.903845   -0.020455
      6          1           0        2.174163   -1.329224   -0.517658
      7          1           0        1.040778   -1.454802    0.880069
      8          1           0        2.039295    1.088079   -0.402846
      9          1           0        0.000162    2.266823    0.086431
     10          1           0       -2.039143    1.088488   -0.402286
     11          1           0       -2.174724   -1.328452   -0.517715
     12          1           0       -0.000206   -1.191083   -0.523461
     13          1           0       -1.041368   -1.454947    0.879821
 ---------------------------------------------------------------------

 SCF Done:  E(RM062X) =  -195.135415975     A.U. after    1 cycles

 The electronic state is 1-A.
 Alpha  occ. eigenvalues --  -10.54694 -10.54693 -10.53751 -10.53714 -10.53714
 Alpha  occ. eigenvalues --   -0.92321  -0.83111  -0.77852  -0.66709  -0.60314
 Alpha  occ. eigenvalues --   -0.56567  -0.48896  -0.47518  -0.47382  -0.44958
 Alpha  occ. eigenvalues --   -0.42067  -0.40575  -0.30715  -0.26821
 Alpha virt. eigenvalues --    0.01782   0.07175   0.14092   0.17155   0.19226
 Alpha virt. eigenvalues --    0.22333   0.23441   0.23610   0.26926   0.28667
 Alpha virt. eigenvalues --    0.32271   0.34403   0.39500   0.46662   0.55372

 Mulliken charges:
               1
     1  C   -0.512392
     2  C   -0.103914
     3  C   -0.163902
     4  C   -0.103883
     5  C   -0.512378
     6  H    0.166484
     7  H    0.196574
     8  H    0.165140
     9  H    0.153356
    10  H    0.165136
    11  H    0.166463
    12  H    0.186761
    13  H    0.196554
 Sum of Mulliken charges =  -0.00000

 Dipole moment (field-independent basis, Debye):
    X=             -0.0001    Y=             -0.0270    Z=             -0.1694  Tot=              0.1715
 Quadrupole moment (field-independent basis, Debye-Ang):
   XX=            -30.1639   YY=            -29.8748   ZZ=            -33.8451
   XY=             -0.0005   XZ=             -0.0013   YZ=             -1.3985

  Exact polarizability:  72.541   0.001  62.286  -0.001  -0.728  29.404
 Approx polarizability:  94.935   0.003  81.664   0.000   2.211  37.093

 ******    1 imaginary frequencies (negative Signs) ******

                      1                      2                      3
                      A                      A                      A
 Frequencies --  -1487.6443               272.3361               478.3101
 Red. masses --      1.2267                 2.1257                 2.3277
 Frc consts  --      1.5995                 0.0929                 0.3138
 IR Inten    --      8.8179                 0.1474                 0.8550

                      4                      5                      6
                      A                      A                      A
 Frequencies --    518.9977               562.3509               632.0409
 Red. masses --      2.5868                 3.5156                 1.2843
 Frc consts  --      0.4105                 0.6550                 0.3023
 IR Inten    --      3.0203                 3.6890                29.3240

                      7                      8                      9
                      A                      A                      A
 Frequencies --    751.7085               819.0318               833.6361
 Red. masses --      2.0290                 1.2378                 1.2330
 Frc consts  --      0.6755                 0.4892                 0.5048
 IR Inten    --     12.2613                 3.6112                44.6120

                     10                     11                     12
                      A                      A                      A
 Frequencies --    994.7807              1009.6175              1022.4178
 Red. masses --      1.3364                 1.2810                 1.3726
 Frc consts  --      0.7792                 0.7693                 0.8454
 IR Inten    --     14.8753                 0.6683                 0.2843

                     13                     14                     15
                      A                      A                      A
 Frequencies --   1028.0506              1030.5267              1119.4995
 Red. masses --      2.1932                 1.4588                 1.3164
 Frc consts  --      1.3657                 0.9128                 0.9720
 IR Inten    --      1.8324                14.3061                 2.8514

                     16                     17                     18
                      A                      A                      A
 Frequencies --   1149.4840              1213.0418              1275.5119
 Red. masses --      1.6276                 1.1440                 1.4613
 Frc consts  --      1.2671                 0.9919                 1.4008
 IR Inten    --      1.6335                 2.1856                 7.1008

                     19                     20                     21
                      A                      A                      A
 Frequencies --   1290.4673              1429.6396              1459.1575
 Red. masses --      1.2293                 1.1075                 1.3343
 Frc consts  --      1.2062                 1.3336                 1.6738
 IR Inten    --     12.1362                10.4144                 1.7523

                     22                     23                     24
                      A                      A                      A
 Frequencies --   1500.9043              1550.8656              1574.0022
 Red. masses --      1.0804                 1.4726                 1.4000
 Frc consts  --      1.4340                 2.0868                 2.0436
 IR Inten    --      5.8912                 0.0481                 0.3884

                     25                     26                     27
                      A                      A                      A
 Frequencies --   1604.0709              1638.2220              3155.7220
 Red. masses --      5.2679                 1.9869                 1.0574
 Frc consts  --      7.9861                 3.1418                 6.2045
 IR Inten    --     16.7075                 4.4723                 7.0527

                     28                     29                     30
                      A                      A                      A
 Frequencies --   3156.6115              3191.4238              3194.8972
 Red. masses --      1.0575                 1.0878                 1.0915
 Frc consts  --      6.2082                 6.5281                 6.5645
 IR Inten    --     18.3568                 0.4584                 7.8903

                     31                     32                     33
                      A                      A                      A
 Frequencies --   3220.5426              3225.8306              3230.5269
 Red. masses --      1.1134                 1.1060                 1.0984
 Frc consts  --      6.8041                 6.7806                 6.7537
 IR Inten    --     18.8599                12.3529                17.2213

 - Thermochemistry -
 -------------------
 Temperature   298.150 Kelvin.  Pressure   1.00000 Atm.
 Atom     1 has atomic number  6 and mass  12.00000

 Molecular mass:    68.06260 amu.
 Principal axes and moments of inertia in atomic units:
                           1         2         3
     Eigenvalues --   222.40725 352.67523 553.75597
           X            1.00000   0.00000  -0.00001
           Y           -0.00000   0.99977  -0.02157
           Z            0.00001   0.02157   0.99977
 This molecule is an asymmetric top.
 Rotational symmetry number  1.
 Rotational temperatures (Kelvin)      0.38944     0.24559     0.15641
 Rotational constants (GHZ):           8.11458     5.11729     3.25909
    1 imaginary frequencies ignored.
 Zero-point vibrational energy     293887.9 (Joules/Mol)
                                   70.24090 (Kcal/Mol)
 Warning -- explicit consideration of   4 degrees of freedom as
           vibrations may cause significant error
 Vibrational temperatures:    391.83   688.18   746.72   809.10   909.37
          (Kelvin)           1081.54  1178.40  1199.42  1431.27  1452.61
                             1471.03  1479.14  1482.70  1610.71  1653.85
                             1745.30  1835.18  1856.69  2056.93  2099.40
                             2159.47  2231.35  2264.64  2307.90  2357.04
                             4540.38  4541.66  4591.75  4596.74  4633.64
                             4641.25  4648.01

 Zero-point correction=                           0.111936 (Hartree/Particle)
 Thermal correction to Energy=                    0.116523
 Thermal correction to Enthalpy=                  0.117468
 Thermal correction to Gibbs Free Energy=         0.084676
 Sum of electronic and zero-point Energies=           -195.023480
 Sum of electronic and thermal Energies=              -195.018893
 Sum of electronic and thermal Enthalpies=            -195.017948
 Sum of electronic and thermal Free Energies=         -195.050740

                     E (Thermal)             CV                S
                      KCal/Mol        Cal/Mol-Kelvin    Cal/Mol-Kelvin
 Total                   73.120             17.504             69.015
 Electronic               0.000              0.000              0.000
 Translational            0.889              2.981             38.571
 Rotational               0.889              2.981             25.277
 Vibrational             71.342             11.543              5.167
 Vibration     1          0.675              1.724              1.581
 Vibration     2          0.835              1.298              0.715
 Vibration     3          0.874              1.208              0.612
 Vibration     4          0.918              1.113              0.519

 Optimization completed.
    -- Stationary point found.
 Normal termination of Gaussian 16 at Wed Oct  7 14:30:51 2020.
