 Gaussian 16, Revision A.03,

 ----------------------------------------------------------------------
 #P Opt(TS,MaxCyc=50,NoEigenTest,MaxStep=10,AddRedundant) M062X/6-31G*
 5D 7F Integral=UltraFineGrid SCF=(NoSymm,XQC,MaxCyc=120) EmpiricalDisp
 ersion=GD3 IOp(1/33=1)
 ----------------------------------------------------------------------

 TstMul:  Mul=     3
 TstMul:  ICh=     0
 TstMul:  Mul=     3
 Symbolic Z-matrix:
 Charge =  0 Multiplicity = 3

 SCF Done:  E(UM062X) =  -95.6352021655     A.U. after   17 cycles
 SCF Done:  E(UM062X) =  -95.6353437851     A.U. after   15 cycles
 SCF Done:  E(UM062X) =  -95.6359253291     A.U. after   17 cycles
 SCF Done:  E(UM062X) =  -95.6352553593     A.U. after   17 cycles
 SCF Done:  E(UM062X) =  -95.6349105865     A.U. after   18 cycles
 SCF Done:  E(UM062X) =  -95.6346435990     A.U. after   18 cycles
 SCF Done:  E(UM062X) =  -95.6344128105     A.U. after   19 cycles
 SCF Done:  E(UM062X) =  -95.6343680857     A.U. after   18 cycles
 SCF Done:  E(UM062X) =  -95.6343717815     A.U. after   12 cycles
 SCF Done:  E(UM062X) =  -95.6343721275     A.U. after   12 cycles
 SCF Done:  E(UM062X) =  -95.6343727102     A.U. after   12 cycles
 SCF Done:  E(UM062X) =  -95.6343741030     A.U. after   16 cycles
 SCF Done:  E(UM062X) =  -95.6343847396     A.U. after   17 cycles
 SCF Done:  E(UM062X) =  -95.6344379474     A.U. after   19 cycles
 SCF Done:  E(UM062X) =  -95.6344328219     A.U. after   18 cycles
 SCF Done:  E(UM062X) =  -95.6344468658     A.U. after   17 cycles
 SCF Done:  E(UM062X) =  -95.6344505100     A.U. after   16 cycles
 SCF Done:  E(UM062X) =  -95.6344510685     A.U. after   11 cycles
 Optimization completed.
    -- Stationary point found.
 Normal termination of Gaussian 16 at Wed Oct  7 14:28:16 2020.
 Gaussian 16:  ES64L-G16RevA.03 25-Dec-2016

 ----------------------------------------------------------------------
 #P Freq M062X/6-31G* 5D 7F Integral=UltraFineGrid SCF=(NoSymm,XQC,MaxC
 yc=120) EmpiricalDispersion=GD3 IOp(1/33=1) Geom=Check Guess=Read
 ----------------------------------------------------------------------

 TstMul:  Mul=     3
 TstMul:  ICh=     0
 TstMul:  Mul=     3
 Structure from the checkpoint file:  "MN_92_RKT18_BH76_M062XD30_631Gs.chk"
 Charge =  0 Multiplicity = 3

                         Standard orientation:
 ---------------------------------------------------------------------
 Center     Atomic      Atomic             Coordinates (Angstroms)
 Number     Number       Type             X           Y           Z
 ---------------------------------------------------------------------
      1          6           0       -1.218352   -0.012394    0.000000
      2          7           0        1.411902    0.127800   -0.000047
      3          1           0       -1.411677   -0.585224    0.903194
      4          1           0       -1.418330   -0.536333   -0.930986
      5          1           0       -1.553794    1.020869    0.028837
      6          1           0        0.252257    0.178402   -0.000735
      7          1           0        1.558342   -0.897951    0.000016
 ---------------------------------------------------------------------

 SCF Done:  E(UM062X) =  -95.6344510685     A.U. after    1 cycles

 The electronic state is 3-A.
 Alpha  occ. eigenvalues --  -14.78588 -10.55068  -0.94841  -0.78828  -0.53573
 Alpha  occ. eigenvalues --   -0.48803  -0.48673  -0.42333  -0.37887  -0.28425
 Alpha virt. eigenvalues --    0.14235   0.17814   0.21327   0.21522   0.32066
 Alpha virt. eigenvalues --    0.55182   0.55209   0.59903   0.75150   0.76080
 Alpha virt. eigenvalues --    0.76757   0.89107   0.95754   0.95809   0.97140

  Beta  occ. eigenvalues --  -14.76883 -10.54447  -0.86337  -0.75552  -0.49187
  Beta  occ. eigenvalues --   -0.47529  -0.47214  -0.35552
  Beta virt. eigenvalues --   -0.04214  -0.02685   0.14987   0.18809   0.22282
  Beta virt. eigenvalues --    0.22431   0.35257   0.56140   0.56872   0.65432
  Beta virt. eigenvalues --    0.75842   0.80511   0.81450   0.90081   0.97842

 Mulliken charges and spin densities:
               1          2
     1  C   -0.632678   0.787516
     2  N   -0.530758   1.478270
     3  H    0.188101  -0.030477
     4  H    0.188504  -0.030351
     5  H    0.197645  -0.028884
     6  H    0.289133  -0.121753
     7  H    0.300053  -0.054321
 Sum of Mulliken charges =  -0.00000   2.00000

 Dipole moment (field-independent basis, Debye):
    X=             -1.2989    Y=             -1.4692    Z=             -0.0002  Tot=              1.9610
 Quadrupole moment (field-independent basis, Debye-Ang):
   XX=            -16.8259   YY=            -13.8332   ZZ=            -14.2399
   XY=             -2.8571   XZ=              0.0009   YZ=              0.0014

  Exact polarizability:  40.655  -0.790  20.394   0.009  -0.002  16.356
 Approx polarizability:  35.399  -0.052  20.964   0.012  -0.002  15.948

 ******    1 imaginary frequencies (negative Signs) ******

                      1                      2                      3
                      A                      A                      A
 Frequencies --  -1401.8511               109.1905               334.0117
 Red. masses --      1.1600                 1.0486                 1.0706
 Frc consts  --      1.3431                 0.0074                 0.0704
 IR Inten    --    786.6315                65.3660                14.8718

                      4                      5                      6
                      A                      A                      A
 Frequencies --    397.5500               597.0108               785.9463
 Red. masses --      1.0792                 2.1664                 1.2224
 Frc consts  --      0.1005                 0.4549                 0.4449
 IR Inten    --      7.9109                 9.1768                19.6188

                      7                      8                      9
                      A                      A                      A
 Frequencies --   1076.5164              1181.8130              1455.2180
 Red. masses --      1.0608                 1.3220                 1.0880
 Frc consts  --      0.7243                 1.0879                 1.3575
 IR Inten    --     45.5957                17.1926                 8.2670

                     10                     11                     12
                      A                      A                      A
 Frequencies --   1458.9966              1547.2988              3131.2028
 Red. masses --      1.0803                 1.0487                 1.0166
 Frc consts  --      1.3548                 1.4793                 5.8722
 IR Inten    --      3.9074               153.9258                 0.4091

                     13                     14                     15
                      A                      A                      A
 Frequencies --   3279.4035              3281.8868              3375.5562
 Red. masses --      1.1127                 1.1126                 1.0727
 Frc consts  --      7.0505                 7.0605                 7.2014
 IR Inten    --      8.9450                 5.6378                15.1173

 - Thermochemistry -
 -------------------
 Temperature   298.150 Kelvin.  Pressure   1.00000 Atm.
 Atom     1 has atomic number  6 and mass  12.00000

 Molecular mass:    31.04220 amu.
 Principal axes and moments of inertia in atomic units:
                           1         2         3
     Eigenvalues --    15.72814 200.78335 204.39488
           X            0.99970  -0.02464   0.00001
           Y            0.02464   0.99970   0.00002
           Z           -0.00001  -0.00002   1.00000
 This molecule is an asymmetric top.
 Rotational symmetry number  1.
 Rotational temperatures (Kelvin)      5.50694     0.43138     0.42376
 Rotational constants (GHZ):         114.74598     8.98850     8.82968
    1 imaginary frequencies ignored.
 Zero-point vibrational energy     131658.6 (Joules/Mol)
                                   31.46716 (Kcal/Mol)
 Warning -- explicit consideration of   4 degrees of freedom as
           vibrations may cause significant error
 Vibrational temperatures:    157.10   480.57   571.99   858.97  1130.80
          (Kelvin)           1548.87  1700.37  2093.73  2099.17  2226.22
                             4505.10  4718.33  4721.90  4856.67

 Zero-point correction=                           0.050146 (Hartree/Particle)
 Thermal correction to Energy=                    0.054692
 Thermal correction to Enthalpy=                  0.055636
 Thermal correction to Gibbs Free Energy=         0.024359
 Sum of electronic and zero-point Energies=            -95.584305
 Sum of electronic and thermal Energies=               -95.579759
 Sum of electronic and thermal Enthalpies=             -95.578815
 Sum of electronic and thermal Free Energies=          -95.610092

                     E (Thermal)             CV                S
                      KCal/Mol        Cal/Mol-Kelvin    Cal/Mol-Kelvin
 Total                   34.320             13.454             65.830
 Electronic               0.000              0.000              2.183
 Translational            0.889              2.981             36.231
 Rotational               0.889              2.981             21.095
 Vibrational             32.542              7.493              6.320
 Vibration     1          0.606              1.942              3.283
 Vibration     2          0.716              1.608              1.241
 Vibration     3          0.764              1.475              0.972
 Vibration     4          0.955              1.038              0.455

                           ! Non-Optimized Parameters !
 Normal termination of Gaussian 16 at Wed Oct  7 14:28:51 2020.
