 Gaussian 16, Revision A.03,

 ----------------------------------------------------------------------
 #P Opt(TS,MaxCyc=50,NoEigenTest,MaxStep=10,AddRedundant) M062X/6-31G*
 5D 7F Integral=UltraFineGrid SCF=(NoSymm,XQC,MaxCyc=120) EmpiricalDisp
 ersion=GD3 IOp(1/33=1)
 ----------------------------------------------------------------------

 TstMul:  Mul=     3
 TstMul:  ICh=     0
 TstMul:  Mul=     3
 Symbolic Z-matrix:
 Charge =  0 Multiplicity = 3

 SCF Done:  E(UM062X) =  -535.770924679     A.U. after   28 cycles
 SCF Done:  E(UM062X) =  -535.770870499     A.U. after   15 cycles
 SCF Done:  E(UM062X) =  -535.770897113     A.U. after   22 cycles
 SCF Done:  E(UM062X) =  -535.770858234     A.U. after   14 cycles
 SCF Done:  E(UM062X) =  -535.770982534     A.U. after   24 cycles
 SCF Done:  E(UM062X) =  -535.770724515     A.U. after   25 cycles
 SCF Done:  E(UM062X) =  -535.770628347     A.U. after   25 cycles
 SCF Done:  E(UM062X) =  -535.770663629     A.U. after   23 cycles
 SCF Done:  E(UM062X) =  -535.770686588     A.U. after   24 cycles
 SCF Done:  E(UM062X) =  -535.770686926     A.U. after   14 cycles
 Optimization completed.
    -- Stationary point found.
 Normal termination of Gaussian 16 at Thu Oct  8 19:48:06 2020.
 Gaussian 16:  ES64L-G16RevA.03 25-Dec-2016

 ----------------------------------------------------------------------
 #P Freq M062X/6-31G* 5D 7F Integral=UltraFineGrid SCF=(NoSymm,XQC,MaxC
 yc=120) EmpiricalDispersion=GD3 IOp(1/33=1) Geom=Check Guess=Read
 ----------------------------------------------------------------------

 TstMul:  Mul=     3
 TstMul:  ICh=     0
 TstMul:  Mul=     3
 Structure from the checkpoint file:  "MN_91_RKT17_BH76_M062XD30_631Gs.chk"
 Charge =  0 Multiplicity = 3

                         Standard orientation:
 ---------------------------------------------------------------------
 Center     Atomic      Atomic             Coordinates (Angstroms)
 Number     Number       Type             X           Y           Z
 ---------------------------------------------------------------------
      1         17           0        0.018564   -0.826753    0.000000
      2          1           0       -0.464105    0.539501    0.000000
      3          8           0        0.018564    1.689412    0.000000
 ---------------------------------------------------------------------

 SCF Done:  E(UM062X) =  -535.770686926     A.U. after    1 cycles

 The electronic state is 3-A".
 Alpha  occ. eigenvalues -- -102.65824 -19.81038  -9.82206  -7.54879  -7.53720
 Alpha  occ. eigenvalues --   -7.53693  -1.19647  -0.93782  -0.64223  -0.57608
 Alpha  occ. eigenvalues --   -0.52634  -0.43918  -0.40237  -0.40185
 Alpha virt. eigenvalues --    0.13019   0.42629   0.47768   0.48163   0.49126
 Alpha virt. eigenvalues --    0.65845   0.82519   0.86190   0.91557   0.91718
 Alpha virt. eigenvalues --    0.92638   0.92849   0.96976   1.10707   1.31394

  Beta  occ. eigenvalues -- -102.65338 -19.77888  -9.82050  -7.53769  -7.53488
  Beta  occ. eigenvalues --   -7.53416  -1.05956  -0.90629  -0.55595  -0.42112
  Beta  occ. eigenvalues --   -0.39343  -0.39162
  Beta virt. eigenvalues --   -0.17171  -0.13417   0.14861   0.43294   0.48431
  Beta virt. eigenvalues --    0.48643   0.51056   0.67835   0.88690   0.88870
  Beta virt. eigenvalues --    0.93143   0.93394   0.94750   0.96684   1.00941

 Mulliken charges and spin densities:
               1          2
     1  Cl  -0.232588   0.383237
     2  H    0.353587  -0.075443
     3  O   -0.120999   1.692206
 Sum of Mulliken charges =  -0.00000   2.00000

 Dipole moment (field-independent basis, Debye):
    X=             -0.6853    Y=              1.1578    Z=              0.0000  Tot=              1.3454
 Quadrupole moment (field-independent basis, Debye-Ang):
   XX=            -19.0562   YY=            -18.1752   ZZ=            -18.5302
   XY=             -0.6931   XZ=              0.0000   YZ=              0.0000

  Exact polarizability:   9.460  -1.748  52.791   0.000   0.000   8.638
 Approx polarizability:  10.174  -1.097  50.716  -0.000   0.000   9.095

 ******    1 imaginary frequencies (negative Signs) ******

                      1                      2                      3
                     A'                     A'                     A'
 Frequencies --  -1454.2885               306.8241              1298.5456
 Red. masses --      1.0712                 5.8153                 1.1276
 Frc consts  --      1.3348                 0.3226                 1.1203
 IR Inten    --    504.0137                 7.8029                66.3623

 - Thermochemistry -
 -------------------
 Temperature   298.150 Kelvin.  Pressure   1.00000 Atm.
 Atom     1 has atomic number 17 and mass  34.96885

 Molecular mass:    51.97159 amu.
 Principal axes and moments of inertia in atomic units:
                           1         2         3
     Eigenvalues --     0.81832 249.30621 250.12453
           X           -0.00395   0.99999   0.00000
           Y            0.99999   0.00395   0.00000
           Z            0.00000   0.00000   1.00000
 This molecule is an asymmetric top.
 Rotational symmetry number  1.
 Rotational temperatures (Kelvin)    105.84384     0.34742     0.34628
 Rotational constants (GHZ):        2205.42768     7.23905     7.21537
    1 imaginary frequencies ignored.
 Zero-point vibrational energy       9602.2 (Joules/Mol)
                                    2.29499 (Kcal/Mol)
 Warning -- explicit consideration of   1 degrees of freedom as
           vibrations may cause significant error
 Vibrational temperatures:    441.45  1868.32
          (Kelvin)

 Zero-point correction=                           0.003657 (Hartree/Particle)
 Thermal correction to Energy=                    0.006913
 Thermal correction to Enthalpy=                  0.007857
 Thermal correction to Gibbs Free Energy=        -0.020618
 Sum of electronic and zero-point Energies=           -535.767030
 Sum of electronic and thermal Energies=              -535.763774
 Sum of electronic and thermal Enthalpies=            -535.762830
 Sum of electronic and thermal Free Energies=         -535.791305

                     E (Thermal)             CV                S
                      KCal/Mol        Cal/Mol-Kelvin    Cal/Mol-Kelvin
 Total                    4.338              7.771             59.931
 Electronic               0.000              0.000              2.183
 Translational            0.889              2.981             37.767
 Rotational               0.889              2.981             18.574
 Vibrational              2.560              1.809              1.407
 Vibration     1          0.697              1.661              1.379

 Optimization completed.
    -- Stationary point found.
 Normal termination of Gaussian 16 at Thu Oct  8 19:48:15 2020.
