 Gaussian 16, Revision A.03,

 ----------------------------------------------------------------------
 #P Opt(TS,MaxCyc=50,NoEigenTest,MaxStep=10,AddRedundant) M062X/6-31G*
 5D 7F Integral=UltraFineGrid SCF=(NoSymm,XQC,MaxCyc=120) EmpiricalDisp
 ersion=GD3 IOp(1/33=1)
 ----------------------------------------------------------------------

 TstMul:  Mul=     2
 TstMul:  ICh=     0
 TstMul:  Mul=     2
 Symbolic Z-matrix:
 Charge =  0 Multiplicity = 2

 SCF Done:  E(UM062X) =  -96.2968411782     A.U. after   17 cycles
 SCF Done:  E(UM062X) =  -96.2968417989     A.U. after   12 cycles
 SCF Done:  E(UM062X) =  -96.2968419667     A.U. after   13 cycles
 SCF Done:  E(UM062X) =  -96.2969813900     A.U. after   15 cycles
 SCF Done:  E(UM062X) =  -96.2970063587     A.U. after   14 cycles
 SCF Done:  E(UM062X) =  -96.2970841541     A.U. after   14 cycles
 SCF Done:  E(UM062X) =  -96.2970868709     A.U. after   11 cycles
 Optimization completed.
    -- Stationary point found.
 Normal termination of Gaussian 16 at Sun Oct 11 10:54:27 2020.
 Gaussian 16:  ES64L-G16RevA.03 25-Dec-2016

 ----------------------------------------------------------------------
 #P Freq M062X/6-31G* 5D 7F Integral=UltraFineGrid SCF=(NoSymm,XQC,MaxC
 yc=120) EmpiricalDispersion=GD3 IOp(1/33=1) Geom=Check Guess=Read
 ----------------------------------------------------------------------

 TstMul:  Mul=     2
 TstMul:  ICh=     0
 TstMul:  Mul=     2
 Structure from the checkpoint file:  "MN_95_RKT21_BH76_M062XD30_631Gs.chk"
 Charge =  0 Multiplicity = 2

                         Standard orientation:
 ---------------------------------------------------------------------
 Center     Atomic      Atomic             Coordinates (Angstroms)
 Number     Number       Type             X           Y           Z
 ---------------------------------------------------------------------
      1          6           0       -1.251052   -0.000014    0.012791
      2          7           0        1.310305   -0.000013   -0.138587
      3          1           0       -1.604528    0.910289   -0.468937
      4          1           0       -1.413479   -0.004072    1.089090
      5          1           0       -1.606697   -0.905633   -0.476127
      6          1           0        0.048776   -0.000842   -0.212490
      7          1           0        1.454541    0.807204    0.480729
      8          1           0        1.455570   -0.806767    0.481093
 ---------------------------------------------------------------------

 SCF Done:  E(UM062X) =  -96.2970868709     A.U. after    1 cycles

 The electronic state is 2-A.
 Alpha  occ. eigenvalues --  -14.75163 -10.53704  -0.95357  -0.78488  -0.52886
 Alpha  occ. eigenvalues --   -0.51639  -0.47487  -0.47269  -0.36742  -0.27712
 Alpha virt. eigenvalues --    0.13119   0.18377   0.20594   0.21687   0.22344
 Alpha virt. eigenvalues --    0.33826   0.55020   0.56247   0.61096   0.77470
 Alpha virt. eigenvalues --    0.77757   0.78194   0.95089   0.95816   0.96135

  Beta  occ. eigenvalues --  -14.74396 -10.53167  -0.92195  -0.76248  -0.51644
  Beta  occ. eigenvalues --   -0.47370  -0.46295  -0.46040  -0.33266
  Beta virt. eigenvalues --   -0.04827   0.13550   0.18731   0.21253   0.22364
  Beta virt. eigenvalues --    0.22984   0.36015   0.55492   0.57092   0.65400
  Beta virt. eigenvalues --    0.77935   0.77957   0.81850   0.94963   0.97288

 Mulliken charges and spin densities:
               1          2
     1  C   -0.667946   0.583336
     2  N   -0.787579   0.612197
     3  H    0.188904  -0.018027
     4  H    0.176475  -0.022344
     5  H    0.188953  -0.017980
     6  H    0.280357  -0.095415
     7  H    0.310418  -0.020887
     8  H    0.310419  -0.020880
 Sum of Mulliken charges =  -0.00000   1.00000

 Dipole moment (field-independent basis, Debye):
    X=             -0.6755    Y=              0.0002    Z=              1.7737  Tot=              1.8980
 Quadrupole moment (field-independent basis, Debye-Ang):
   XX=            -16.3370   YY=            -13.6228   ZZ=            -15.5949
   XY=              0.0000   XZ=              3.1497   YZ=              0.0002

  Exact polarizability:  42.689   0.001  21.519   0.665   0.000  19.075
 Approx polarizability:  37.506   0.001  22.336   0.134   0.001  19.789

 ******    2 imaginary frequencies (negative Signs) ******

                      1                      2                      3
                      A                      A                      A
 Frequencies --  -1634.3513               -24.7973               368.9343
 Red. masses --      1.0755                 1.0256                 1.1996
 Frc consts  --      1.6926                 0.0004                 0.0962
 IR Inten    --    589.8708                38.4307                10.6661

                      4                      5                      6
                      A                      A                      A
 Frequencies --    384.2779               591.3546               821.5263
 Red. masses --      1.0244                 2.5142                 1.1128
 Frc consts  --      0.0891                 0.5180                 0.4425
 IR Inten    --      4.0855                 7.7000                 5.9555

                      7                      8                      9
                      A                      A                      A
 Frequencies --    900.4490              1204.3687              1410.2264
 Red. masses --      1.2641                 1.1642                 1.1195
 Frc consts  --      0.6039                 0.9949                 1.3118
 IR Inten    --    117.9918                 5.5484               134.5959

                     10                     11                     12
                      A                      A                      A
 Frequencies --   1457.2881              1483.2615              1556.7096
 Red. masses --      1.0977                 1.0467                 1.0249
 Frc consts  --      1.3735                 1.3568                 1.4633
 IR Inten    --     10.8353                15.7220                 7.2064

                     13                     14                     15
                      A                      A                      A
 Frequencies --   1631.6471              3120.3068              3251.6523
 Red. masses --      1.0652                 1.0215                 1.1095
 Frc consts  --      1.6709                 5.8596                 6.9116
 IR Inten    --     24.2780                 2.2345                 9.4174

                     16                     17                     18
                      A                      A                      A
 Frequencies --   3251.7054              3409.7503              3511.6060
 Red. masses --      1.1096                 1.0500                 1.0894
 Frc consts  --      6.9125                 7.1924                 7.9151
 IR Inten    --     11.6431                 8.1000                 1.1640

 - Thermochemistry -
 -------------------
 Temperature   298.150 Kelvin.  Pressure   1.00000 Atm.
 Atom     1 has atomic number  6 and mass  12.00000

 Molecular mass:    32.05002 amu.
 Principal axes and moments of inertia in atomic units:
                           1         2         3
     Eigenvalues --    19.08643 202.19771 204.35455
           X            0.99968   0.00000   0.02528
           Y           -0.00000   1.00000  -0.00001
           Z           -0.02528   0.00001   0.99968
 This molecule is an asymmetric top.
 Rotational symmetry number  1.
 Rotational temperatures (Kelvin)      4.53799     0.42836     0.42384
 Rotational constants (GHZ):          94.55626     8.92563     8.83142
    2 imaginary frequencies ignored.
 Zero-point vibrational energy     169600.9 (Joules/Mol)
                                   40.53560 (Kcal/Mol)
 Warning -- explicit consideration of   3 degrees of freedom as
           vibrations may cause significant error
 Vibrational temperatures:    530.81   552.89   850.83  1181.99  1295.55
          (Kelvin)           1732.82  2029.00  2096.71  2134.08  2239.76
                             2347.58  4489.43  4678.40  4678.48  4905.87
                             5052.42

 Zero-point correction=                           0.064598 (Hartree/Particle)
 Thermal correction to Energy=                    0.068428
 Thermal correction to Enthalpy=                  0.069373
 Thermal correction to Gibbs Free Energy=         0.039915
 Sum of electronic and zero-point Energies=            -96.232489
 Sum of electronic and thermal Energies=               -96.228658
 Sum of electronic and thermal Enthalpies=             -96.227714
 Sum of electronic and thermal Free Energies=          -96.257172

                     E (Thermal)             CV                S
                      KCal/Mol        Cal/Mol-Kelvin    Cal/Mol-Kelvin
 Total                   42.940             11.746             61.999
 Electronic               0.000              0.000              1.377
 Translational            0.889              2.981             36.326
 Rotational               0.889              2.981             21.294
 Vibrational             41.162              5.785              3.002
 Vibration     1          0.741              1.536              1.084
 Vibration     2          0.753              1.504              1.022
 Vibration     3          0.949              1.050              0.465

                           ! Non-Optimized Parameters !
 Normal termination of Gaussian 16 at Sun Oct 11 10:54:53 2020.
