 Gaussian 16, Revision A.03,

 ----------------------------------------------------------------------
 #P Opt(TS,MaxCyc=50,NoEigenTest,MaxStep=10,AddRedundant) M062X/6-31G*
 5D 7F Integral=UltraFineGrid SCF=(NoSymm,XQC,MaxCyc=120) EmpiricalDisp
 ersion=GD3 IOp(1/33=1)
 ----------------------------------------------------------------------

 TstMul:  Mul=     2
 TstMul:  ICh=     0
 TstMul:  Mul=     2
 Symbolic Z-matrix:
 Charge =  0 Multiplicity = 2

 SCF Done:  E(UM062X) =  -399.823617922     A.U. after   16 cycles
 SCF Done:  E(UM062X) =  -399.823708187     A.U. after   13 cycles
 SCF Done:  E(UM062X) =  -399.823991695     A.U. after   14 cycles
 SCF Done:  E(UM062X) =  -399.823652945     A.U. after   14 cycles
 SCF Done:  E(UM062X) =  -399.823453500     A.U. after   14 cycles
 SCF Done:  E(UM062X) =  -399.823445874     A.U. after   10 cycles
 SCF Done:  E(UM062X) =  -399.823445785     A.U. after    9 cycles
 Optimization completed.
    -- Stationary point found.
 Normal termination of Gaussian 16 at Wed Oct  7 14:24:47 2020.
 Gaussian 16:  ES64L-G16RevA.03 25-Dec-2016

 ----------------------------------------------------------------------
 #P Freq M062X/6-31G* 5D 7F Integral=UltraFineGrid SCF=(NoSymm,XQC,MaxC
 yc=120) EmpiricalDispersion=GD3 IOp(1/33=1) Geom=Check Guess=Read
 ----------------------------------------------------------------------

 TstMul:  Mul=     2
 TstMul:  ICh=     0
 TstMul:  Mul=     2
 Structure from the checkpoint file:  "MN_90_RKT16_BH76_M062XD30_631Gs.chk"
 Charge =  0 Multiplicity = 2

                         Standard orientation:
 ---------------------------------------------------------------------
 Center     Atomic      Atomic             Coordinates (Angstroms)
 Number     Number       Type             X           Y           Z
 ---------------------------------------------------------------------
      1          1           0        1.277934   -0.189364    0.000000
      2         16           0        0.000000    0.225103    0.000000
      3          1           0       -0.476875   -1.111231    0.000000
      4          1           0       -0.801059   -2.301050    0.000000
 ---------------------------------------------------------------------

 SCF Done:  E(UM062X) =  -399.823445785     A.U. after    1 cycles

 The electronic state is 2-A'.
 Alpha  occ. eigenvalues --  -89.90477  -8.27050  -6.19149  -6.18729  -6.18139
 Alpha  occ. eigenvalues --   -0.83522  -0.54102  -0.45102  -0.33975  -0.31988
 Alpha virt. eigenvalues --    0.07300   0.13637   0.36118   0.37743   0.40535
 Alpha virt. eigenvalues --    0.40681   0.73627   0.76907   0.78723   0.81357
 Alpha virt. eigenvalues --    0.82083   0.94437   1.05527   1.23252
  Beta  occ. eigenvalues --  -89.90180  -8.26954  -6.18676  -6.18291  -6.18039
  Beta  occ. eigenvalues --   -0.82335  -0.51171  -0.42999  -0.31345
  Beta virt. eigenvalues --   -0.10856   0.07507   0.13143   0.36206   0.38245
  Beta virt. eigenvalues --    0.40843   0.41550   0.72224   0.77309   0.80146
  Beta virt. eigenvalues --    0.82637   0.83353   0.94239   1.05379   1.23976

 Mulliken charges and spin densities:
               1          2
     1  H    0.124449  -0.004909
     2  S   -0.161144   0.287842
     3  H   -0.010137  -0.104034
     4  H    0.046831   0.821101
 Sum of Mulliken charges =   0.00000   1.00000

 Dipole moment (field-independent basis, Debye):
    X=              0.6700    Y=             -1.2549    Z=              0.0000  Tot=              1.4225
 Quadrupole moment (field-independent basis, Debye-Ang):
   XX=            -13.7769   YY=            -14.7976   ZZ=            -17.9038
   XY=              0.4893   XZ=              0.0000   YZ=              0.0000

  Exact polarizability:  18.843   5.610  31.346  -0.000  -0.000  11.368
 Approx polarizability:  20.992   5.501  33.430  -0.000   0.000  12.051

 ******    1 imaginary frequencies (negative Signs) ******

                      1                      2                      3
                     A'                     A'                     A"
 Frequencies --  -1107.5585               462.7917               508.3052
 Red. masses --      1.0093                 1.0171                 1.0139
 Frc consts  --      0.7294                 0.1283                 0.1543
 IR Inten    --      9.7024                 5.7151                 9.9393

                      4                      5                      6
                     A'                     A'                     A'
 Frequencies --   1205.4710              1554.6682              2757.3114
 Red. masses --      1.0437                 1.0588                 1.0381
 Frc consts  --      0.8936                 1.5077                 4.6500
 IR Inten    --      6.0605                 1.8886                 8.2067

 - Thermochemistry -
 -------------------
 Temperature   298.150 Kelvin.  Pressure   1.00000 Atm.
 Atom     1 has atomic number  1 and mass   1.00783

 Molecular mass:    34.99555 amu.
 Principal axes and moments of inertia in atomic units:
                           1         2         3
     Eigenvalues --     6.30784  30.81394  37.12178
           X            0.33179   0.94335   0.00000
           Y            0.94335  -0.33179   0.00000
           Z            0.00000   0.00000   1.00000
 This molecule is an asymmetric top.
 Rotational symmetry number  1.
 Rotational temperatures (Kelvin)     13.73115     2.81087     2.33324
 Rotational constants (GHZ):         286.11077    58.56898    48.61677
    1 imaginary frequencies ignored.
 Zero-point vibrational energy      38810.1 (Joules/Mol)
                                    9.27584 (Kcal/Mol)
 Warning -- explicit consideration of   2 degrees of freedom as
           vibrations may cause significant error
 Vibrational temperatures:    665.85   731.34  1734.40  2236.82  3967.16
          (Kelvin)

 Zero-point correction=                           0.014782 (Hartree/Particle)
 Thermal correction to Energy=                    0.018106
 Thermal correction to Enthalpy=                  0.019050
 Thermal correction to Gibbs Free Energy=        -0.007577
 Sum of electronic and zero-point Energies=           -399.808664
 Sum of electronic and thermal Energies=              -399.805340
 Sum of electronic and thermal Enthalpies=            -399.804396
 Sum of electronic and thermal Free Energies=         -399.831023

                     E (Thermal)             CV                S
                      KCal/Mol        Cal/Mol-Kelvin    Cal/Mol-Kelvin
 Total                   11.362              8.789             56.041
 Electronic               0.000              0.000              1.377
 Translational            0.889              2.981             36.588
 Rotational               0.889              2.981             16.630
 Vibrational              9.584              2.828              1.446
 Vibration     1          0.820              1.333              0.758
 Vibration     2          0.863              1.232              0.638

 Optimization completed.
    -- Stationary point found.

 1\1\GINC-NODE51\Freq\UM062X\6-31G(d)\H3S1(2)\RPEVERATI\07-Oct-2020\0\\
 #P Freq M062X/6-31G* 5D 7F Integral=UltraFineGrid SCF=(NoSymm,XQC,MaxC
 yc=120) EmpiricalDispersion=GD3 IOp(1/33=1) Geom=Check Guess=Read\\TS
 search on BH76.\\0,2\H,1.2810663667,-0.1882052671,0.\S,0.0051387169,0.
 232399186,0.\H,-0.4781536047,-1.1016272393,0.\H,-0.8080525372,-2.28987
 44806,0.\\Version=ES64L-G16RevA.03\State=2-A'\HF=-399.8234458\S2=0.757
 467\S2-1=0.\S2A=0.750004\RMSD=6.245e-10\RMSF=9.441e-06\ZeroPoint=0.014
 782\Thermal=0.018106\Dipole=0.2612226,-0.4949607,0.\DipoleDeriv=-0.044

 Normal termination of Gaussian 16 at Wed Oct  7 14:25:16 2020.
