 Gaussian 16, Revision A.03,

 ----------------------------------------------------------------------
 #P Opt(TS,MaxCyc=50,NoEigenTest,MaxStep=10,AddRedundant) M062X/6-31G*
 5D 7F Integral=UltraFineGrid SCF=(NoSymm,XQC,MaxCyc=120) EmpiricalDisp
 ersion=GD3 IOp(1/33=1)
 ----------------------------------------------------------------------

 TstMul:  Mul=     3
 TstMul:  ICh=     0
 TstMul:  Mul=     3
 Symbolic Z-matrix:
 Charge =  0 Multiplicity = 3

 SCF Done:  E(UM062X) =  -134.928877252     A.U. after   18 cycles
 SCF Done:  E(UM062X) =  -134.929064893     A.U. after   16 cycles
 SCF Done:  E(UM062X) =  -134.929827495     A.U. after   16 cycles
 SCF Done:  E(UM062X) =  -134.930330558     A.U. after   17 cycles
 SCF Done:  E(UM062X) =  -134.930535851     A.U. after   17 cycles
 SCF Done:  E(UM062X) =  -134.930945343     A.U. after   17 cycles
 SCF Done:  E(UM062X) =  -134.931146454     A.U. after   19 cycles
 SCF Done:  E(UM062X) =  -134.930574913     A.U. after   15 cycles
 SCF Done:  E(UM062X) =  -134.929949423     A.U. after   17 cycles
 SCF Done:  E(UM062X) =  -134.929319103     A.U. after   16 cycles
 SCF Done:  E(UM062X) =  -134.929303057     A.U. after   11 cycles
 SCF Done:  E(UM062X) =  -134.929307179     A.U. after   15 cycles
 SCF Done:  E(UM062X) =  -134.929303131     A.U. after   13 cycles
 SCF Done:  E(UM062X) =  -134.929304359     A.U. after   18 cycles
 SCF Done:  E(UM062X) =  -134.929296639     A.U. after   19 cycles
 SCF Done:  E(UM062X) =  -134.929308009     A.U. after   19 cycles
 SCF Done:  E(UM062X) =  -134.929308012     A.U. after   12 cycles
 SCF Done:  E(UM062X) =  -134.929308045     A.U. after   11 cycles
 SCF Done:  E(UM062X) =  -134.929308062     A.U. after   11 cycles
 Optimization completed.
    -- Stationary point found.
 Normal termination of Gaussian 16 at Wed Oct  7 14:34:27 2020.
 Gaussian 16:  ES64L-G16RevA.03 25-Dec-2016

 ----------------------------------------------------------------------
 #P Freq M062X/6-31G* 5D 7F Integral=UltraFineGrid SCF=(NoSymm,XQC,MaxC
 yc=120) EmpiricalDispersion=GD3 IOp(1/33=1) Geom=Check Guess=Read
 ----------------------------------------------------------------------

 TstMul:  Mul=     3
 TstMul:  ICh=     0
 TstMul:  Mul=     3
 Structure from the checkpoint file:  "MN_93_RKT19_BH76_M062XD30_631Gs.chk"
 Charge =  0 Multiplicity = 3

                         Standard orientation:
 ---------------------------------------------------------------------
 Center     Atomic      Atomic             Coordinates (Angstroms)
 Number     Number       Type             X           Y           Z
 ---------------------------------------------------------------------
      1          6           0       -1.320045   -0.504428   -0.000588
      2          6           0       -0.484325    0.747599    0.014227
      3          7           0        1.936384   -0.232542   -0.129767
      4          1           0       -1.162646   -1.074060   -0.920939
      5          1           0       -1.080238   -1.155594    0.845462
      6          1           0       -2.390781   -0.268756    0.061828
      7          1           0       -0.573887    1.394614   -0.858445
      8          1           0       -0.465744    1.303355    0.951859
      9          1           0        0.860547    0.276789   -0.147274
     10          1           0        2.084283   -0.307586    0.894040
 ---------------------------------------------------------------------

 SCF Done:  E(UM062X) =  -134.929308062     A.U. after    1 cycles

 The electronic state is 3-A.
 Alpha  occ. eigenvalues --  -14.78300 -10.55112 -10.53755  -0.94337  -0.85703
 Alpha  occ. eigenvalues --   -0.70444  -0.54014  -0.52273  -0.47657  -0.44934
 Alpha  occ. eigenvalues --   -0.42185  -0.41432  -0.37487  -0.26701
 Alpha virt. eigenvalues --    0.13366   0.17588   0.19249   0.19774   0.21574
 Alpha virt. eigenvalues --    0.23667   0.27703   0.33217   0.53381   0.56331
 Alpha virt. eigenvalues --    0.58775   0.63705   0.66820   0.72021   0.76921

  Beta  occ. eigenvalues --  -14.76557 -10.54512 -10.53786  -0.86712  -0.83118
  Beta  occ. eigenvalues --   -0.68681  -0.51644  -0.50003  -0.45387  -0.43998
  Beta  occ. eigenvalues --   -0.41644  -0.34863
  Beta virt. eigenvalues --   -0.03422  -0.02469   0.13958   0.18330   0.19653
  Beta virt. eigenvalues --    0.20310   0.21773   0.24198   0.28750   0.36433
  Beta virt. eigenvalues --    0.54576   0.56771   0.59935   0.66981   0.68691

 Mulliken charges and spin densities:
               1          2
     1  C   -0.482724  -0.036122
     2  C   -0.450234   0.712734
     3  N   -0.520797   1.509415
     4  H    0.180293   0.005743
     5  H    0.166706   0.005581
     6  H    0.176788   0.033327
     7  H    0.185594  -0.025429
     8  H    0.174381  -0.028003
     9  H    0.272788  -0.121794
    10  H    0.297205  -0.055451
 Sum of Mulliken charges =  -0.00000   2.00000

 Dipole moment (field-independent basis, Debye):
    X=             -1.3907    Y=              0.3824    Z=              1.4485  Tot=              2.0441
 Quadrupole moment (field-independent basis, Debye-Ang):
   XX=            -24.0850   YY=            -21.0429   ZZ=            -20.3131
   XY=              0.7156   XZ=              3.5825   YZ=             -0.6372

  Exact polarizability:  50.713  -6.025  29.547   0.760  -0.367  29.906
 Approx polarizability:  47.108  -6.706  30.193  -0.102  -0.206  32.661

 ******    1 imaginary frequencies (negative Signs) ******

                      1                      2                      3
                      A                      A                      A
 Frequencies --  -1532.6846                55.4992               115.4014
 Red. masses --      1.1156                 1.0756                 3.1581
 Frc consts  --      1.5440                 0.0020                 0.0248
 IR Inten    --    775.5873                73.6786                11.5737

                      4                      5                      6
                      A                      A                      A
 Frequencies --    155.5792               390.8945               567.5304
 Red. masses --      1.0821                 1.0633                 2.6295
 Frc consts  --      0.0154                 0.0957                 0.4990
 IR Inten    --      1.8041                15.6747                 1.4317

                      7                      8                      9
                      A                      A                      A
 Frequencies --    774.0899               847.2499               877.7188
 Red. masses --      1.1609                 1.0872                 1.0612
 Frc consts  --      0.4099                 0.4598                 0.4817
 IR Inten    --     22.3359                16.9623                 7.3043

                     10                     11                     12
                      A                      A                      A
 Frequencies --   1046.2588              1127.9771              1215.6953
 Red. masses --      2.1142                 1.4474                 1.3636
 Frc consts  --      1.3636                 1.0850                 1.1874
 IR Inten    --     10.2816                14.3979                 5.3690

                     13                     14                     15
                      A                      A                      A
 Frequencies --   1234.4974              1430.2489              1493.4859
 Red. masses --      1.4040                 1.2061                 1.1615
 Frc consts  --      1.2607                 1.4536                 1.5264
 IR Inten    --      1.3474                 3.0994                 1.8121

                     16                     17                     18
                      A                      A                      A
 Frequencies --   1520.6345              1522.0516              1526.7574
 Red. masses --      1.0489                 1.0396                 1.0515
 Frc consts  --      1.4290                 1.4190                 1.4441
 IR Inten    --      6.1855                 8.5112                90.6829

                     19                     20                     21
                      A                      A                      A
 Frequencies --   3063.1015              3129.3014              3143.1879
 Red. masses --      1.0427                 1.0890                 1.0573
 Frc consts  --      5.7640                 6.2834                 6.1542
 IR Inten    --     18.9144                 8.6058                22.7571

                     22                     23                     24
                      A                      A                      A
 Frequencies --   3160.3957              3226.6981              3367.6177
 Red. masses --      1.1029                 1.1125                 1.0729
 Frc consts  --      6.4905                 6.8247                 7.1687
 IR Inten    --     12.8155                19.5466                17.0907

 - Thermochemistry -
 -------------------
 Temperature   298.150 Kelvin.  Pressure   1.00000 Atm.
 Atom     1 has atomic number  6 and mass  12.00000

 Molecular mass:    45.05785 amu.
 Principal axes and moments of inertia in atomic units:
                           1         2         3
     Eigenvalues --    75.59856 336.91523 382.18967
           X            0.99963   0.01836   0.01990
           Y           -0.01798   0.99965  -0.01934
           Z           -0.02024   0.01897   0.99962
 This molecule is an asymmetric top.
 Rotational symmetry number  1.
 Rotational temperatures (Kelvin)      1.14571     0.25708     0.22663
 Rotational constants (GHZ):          23.87269     5.35666     4.72211
    1 imaginary frequencies ignored.
 Zero-point vibrational energy     209297.9 (Joules/Mol)
                                   50.02339 (Kcal/Mol)
 Warning -- explicit consideration of   5 degrees of freedom as
           vibrations may cause significant error
 Vibrational temperatures:     79.85   166.04   223.84   562.41   816.55
          (Kelvin)           1113.74  1219.00  1262.84  1505.33  1622.91
                             1749.11  1776.17  2057.81  2148.79  2187.85
                             2189.89  2196.66  4407.12  4502.37  4522.35
                             4547.10  4642.50  4845.25

 Zero-point correction=                           0.079717 (Hartree/Particle)
 Thermal correction to Energy=                    0.085529
 Thermal correction to Enthalpy=                  0.086473
 Thermal correction to Gibbs Free Energy=         0.050347
 Sum of electronic and zero-point Energies=           -134.849591
 Sum of electronic and thermal Energies=              -134.843779
 Sum of electronic and thermal Enthalpies=            -134.842835
 Sum of electronic and thermal Free Energies=         -134.878961

                     E (Thermal)             CV                S
                      KCal/Mol        Cal/Mol-Kelvin    Cal/Mol-Kelvin
 Total                   53.670             17.507             76.034
 Electronic               0.000              0.000              2.183
 Translational            0.889              2.981             37.342
 Rotational               0.889              2.981             23.791
 Vibrational             51.893             11.545             12.718
 Vibration     1          0.596              1.975              4.611
 Vibration     2          0.608              1.937              3.176
 Vibration     3          0.620              1.896              2.603
 Vibration     4          0.759              1.490              0.997
 Vibration     5          0.923              1.101              0.509

                           ! Non-Optimized Parameters !
 Normal termination of Gaussian 16 at Wed Oct  7 14:35:38 2020.
