 Gaussian 16, Revision A.03,
 Gaussian 16:  ES64L-G16RevA.03 25-Dec-2016

 ----------------------------------------------------------------------
 #P Opt(MaxCyc=100) BP86/6-31G* 5D 7F Integral=UltraFineGrid SCF=(NoSym
 m,XQC,MaxCyc=120) EmpiricalDispersion=GD3BJ IOp(1/33=1)
 ----------------------------------------------------------------------

 TstMul:  Mul=     1
 TstMul:  ICh=     0
 TstMul:  Mul=     1
 Symbolic Z-matrix:
 Charge =  0 Multiplicity = 1

 SCF Done:  E(RB-P86) =  -195.304651579     A.U. after   14 cycles
 SCF Done:  E(RB-P86) =  -195.306370930     A.U. after   12 cycles
 SCF Done:  E(RB-P86) =  -195.306392720     A.U. after    9 cycles
 SCF Done:  E(RB-P86) =  -195.306394623     A.U. after    8 cycles
 Optimization completed.
    -- Stationary point found.

                         Standard orientation:
 ---------------------------------------------------------------------
 Center     Atomic      Atomic             Coordinates (Angstroms)
 Number     Number       Type             X           Y           Z
 ---------------------------------------------------------------------
      1          6           0       -2.071994   -0.612108    0.000001
      2          6           0       -1.242636    0.641773    0.000050
      3          6           0        0.111871    0.734524    0.000034
      4          6           0        1.062008   -0.368822   -0.000034
      5          6           0        2.404757   -0.203645   -0.000045
      6          1           0       -2.735219   -0.645078    0.886383
      7          1           0       -2.735251   -0.644987   -0.886360
      8          1           0       -1.464211   -1.531288   -0.000057
      9          1           0       -1.813347    1.580977    0.000105
     10          1           0        0.557934    1.739518    0.000077
     11          1           0        0.657341   -1.389649   -0.000080
     12          1           0        3.091822   -1.055699   -0.000097
     13          1           0        2.856900    0.795871   -0.000001
 ---------------------------------------------------------------------

 The electronic state is 1-A.
 Alpha  occ. eigenvalues --   -9.91326  -9.91137  -9.90689  -9.90600  -9.90132
 Alpha  occ. eigenvalues --   -0.72942  -0.67947  -0.61369  -0.53038  -0.47377
 Alpha  occ. eigenvalues --   -0.42379  -0.39548  -0.36652  -0.35460  -0.33426
 Alpha  occ. eigenvalues --   -0.32254  -0.28968  -0.27425  -0.19179
 Alpha virt. eigenvalues --   -0.05088   0.04929   0.07514   0.08278   0.10628
 Alpha virt. eigenvalues --    0.13313   0.14169   0.14425   0.16220   0.19435
 Alpha virt. eigenvalues --    0.21889   0.29431   0.34142   0.39316   0.43776

 Mulliken charges:
               1
     1  C   -0.528192
     2  C   -0.118395
     3  C   -0.119565
     4  C   -0.060275
     5  C   -0.377320
     6  H    0.172773
     7  H    0.172773
     8  H    0.167961
     9  H    0.135583
    10  H    0.126988
    11  H    0.129959
    12  H    0.149915
    13  H    0.147794
 Sum of Mulliken charges =  -0.00000

 Dipole moment (field-independent basis, Debye):
    X=             -0.5561    Y=             -0.1423    Z=              0.0000  Tot=              0.5740
 Quadrupole moment (field-independent basis, Debye-Ang):
   XX=            -28.7249   YY=            -29.3613   ZZ=            -34.2730
   XY=              0.0916   XZ=             -0.0001   YZ=              0.0002

 Normal termination of Gaussian 16 at Wed Oct  7 14:07:59 2020.
