 Gaussian 16, Revision A.03,
 Gaussian 16:  ES64L-G16RevA.03 25-Dec-2016

 ----------------------------------------------------------------------
 #P Opt(MaxCyc=100) BP86/6-31G* 5D 7F Integral=UltraFineGrid SCF=(NoSym
 m,XQC,MaxCyc=120) EmpiricalDispersion=GD3BJ IOp(1/33=1)
 ----------------------------------------------------------------------

 TstMul:  Mul=     1
 TstMul:  ICh=     0
 TstMul:  Mul=     1
 Symbolic Z-matrix:
 Charge =  0 Multiplicity = 1

 SCF Done:  E(RB-P86) =  -78.5803527127     A.U. after    9 cycles
 SCF Done:  E(RB-P86) =  -78.5810449547     A.U. after    9 cycles
 SCF Done:  E(RB-P86) =  -78.5810486977     A.U. after    6 cycles
 Optimization completed.
    -- Stationary point found.

                         Standard orientation:
 ---------------------------------------------------------------------
 Center     Atomic      Atomic             Coordinates (Angstroms)
 Number     Number       Type             X           Y           Z
 ---------------------------------------------------------------------
      1          6           0        0.000000   -0.000000    0.670394
      2          6           0        0.000000   -0.000000   -0.670394
      3          1           0        0.000000    0.931847    1.248033
      4          1           0       -0.000000   -0.931847    1.248033
      5          1           0        0.000000    0.931847   -1.248033
      6          1           0       -0.000000   -0.931847   -1.248033
 ---------------------------------------------------------------------

 The electronic state is 1-AG.
 Alpha  occ. eigenvalues --   -9.90672  -9.90621  -0.68126  -0.51900  -0.41403
 Alpha  occ. eigenvalues --   -0.36671  -0.30988  -0.23489
 Alpha virt. eigenvalues --   -0.02004   0.09531   0.10934   0.12711   0.21771
 Alpha virt. eigenvalues --    0.29404   0.44529   0.50611   0.52995   0.58925
 Alpha virt. eigenvalues --    0.61791   0.64228   0.79771   0.81341   0.87242

 Mulliken charges:
               1
     1  C   -0.304161
     2  C   -0.304161
     3  H    0.152080
     4  H    0.152080
     5  H    0.152080
     6  H    0.152080
 Sum of Mulliken charges =   0.00000

 Dipole moment (field-independent basis, Debye):
    X=             -0.0000    Y=              0.0000    Z=              0.0000  Tot=              0.0000
 Quadrupole moment (field-independent basis, Debye-Ang):
   XX=            -15.1019   YY=            -12.0596   ZZ=            -11.9667
   XY=              0.0000   XZ=             -0.0000   YZ=              0.0000

 Normal termination of Gaussian 16 at Wed Oct  7 14:06:01 2020.
