 Gaussian 16, Revision A.03,
 Gaussian 16:  ES64L-G16RevA.03 25-Dec-2016

 ----------------------------------------------------------------------
 #P Opt(MaxCyc=100) BP86/6-31G* 5D 7F Integral=UltraFineGrid SCF=(NoSym
 m,XQC,MaxCyc=120) EmpiricalDispersion=GD3BJ IOp(1/33=1)
 ----------------------------------------------------------------------

 TstMul:  Mul=     1
 TstMul:  ICh=     0
 TstMul:  Mul=     1
 Symbolic Z-matrix:
 Charge =  0 Multiplicity = 1

 SCF Done:  E(RB-P86) =  -500.131510223     A.U. after   11 cycles
 SCF Done:  E(RB-P86) =  -500.132184027     A.U. after   10 cycles
 SCF Done:  E(RB-P86) =  -500.132191645     A.U. after    7 cycles
 SCF Done:  E(RB-P86) =  -500.132193642     A.U. after    8 cycles
 Optimization completed.
    -- Stationary point found.

                         Standard orientation:
 ---------------------------------------------------------------------
 Center     Atomic      Atomic             Coordinates (Angstroms)
 Number     Number       Type             X           Y           Z
 ---------------------------------------------------------------------
      1          6           0        0.000000    0.000000   -1.140700
      2         17           0        0.000000    0.000000    0.665743
      3          1           0        0.000000    1.042154   -1.491142
      4          1           0        0.902532   -0.521077   -1.491142
      5          1           0       -0.902532   -0.521077   -1.491142
 ---------------------------------------------------------------------

 The electronic state is 1-A1.
 Alpha  occ. eigenvalues -- -100.70982  -9.96513  -9.17319  -6.99878  -6.98654
 Alpha  occ. eigenvalues --   -6.98654  -0.77546  -0.61540  -0.40335  -0.40335
 Alpha  occ. eigenvalues --   -0.37579  -0.25737  -0.25737
 Alpha virt. eigenvalues --   -0.01156   0.07968   0.11279   0.11279   0.37033
 Alpha virt. eigenvalues --    0.40835   0.42453   0.42453   0.48804   0.48804
 Alpha virt. eigenvalues --    0.51331   0.78057   0.78057   0.81268   0.83396

 Mulliken charges:
               1
     1  C   -0.568420
     2  Cl  -0.075625
     3  H    0.214682
     4  H    0.214682
     5  H    0.214682
 Sum of Mulliken charges =  -0.00000

 Dipole moment (field-independent basis, Debye):
    X=              0.0000    Y=             -0.0000    Z=             -2.0439  Tot=              2.0439
 Quadrupole moment (field-independent basis, Debye-Ang):
   XX=            -19.7516   YY=            -19.7516   ZZ=            -17.9179
   XY=             -0.0000   XZ=              0.0000   YZ=              0.0000

 Normal termination of Gaussian 16 at Wed Oct  7 14:07:12 2020.
