 Gaussian 16, Revision A.03,
 Gaussian 16:  ES64L-G16RevA.03 25-Dec-2016

 ----------------------------------------------------------------------
 #P Opt(MaxCyc=100) BP86/6-31G* 5D 7F Integral=UltraFineGrid SCF=(NoSym
 m,XQC,MaxCyc=120) EmpiricalDispersion=GD3BJ IOp(1/33=1)
 ----------------------------------------------------------------------

 TstMul:  Mul=     2
 TstMul:  ICh=     0
 TstMul:  Mul=     2
 Symbolic Z-matrix:
 Charge =  0 Multiplicity = 2

 SCF Done:  E(UB-P86) =  -79.1500237101     A.U. after   13 cycles
 SCF Done:  E(UB-P86) =  -79.1507996777     A.U. after   11 cycles
 SCF Done:  E(UB-P86) =  -79.1508107481     A.U. after    9 cycles
 SCF Done:  E(UB-P86) =  -79.1508121823     A.U. after    8 cycles
 Optimization completed.
    -- Stationary point found.

                         Standard orientation:
 ---------------------------------------------------------------------
 Center     Atomic      Atomic             Coordinates (Angstroms)
 Number     Number       Type             X           Y           Z
 ---------------------------------------------------------------------
      1          6           0       -0.010779   -0.694710    0.000000
      2          6           0       -0.010779    0.796967   -0.000000
      3          1           0        1.020943   -1.117623    0.000000
      4          1           0       -0.512238   -1.107830    0.894978
      5          1           0       -0.512238   -1.107830   -0.894978
      6          1           0        0.066439    1.359871   -0.934960
      7          1           0        0.066439    1.359871    0.934960
 ---------------------------------------------------------------------

 The electronic state is 2-A'.
 Alpha  occ. eigenvalues --   -9.90994  -9.90268  -0.67902  -0.54185  -0.39745
 Alpha  occ. eigenvalues --   -0.36179  -0.34321  -0.31023  -0.15819
 Alpha virt. eigenvalues --    0.08956   0.11022   0.11617   0.14480   0.19159
 Alpha virt. eigenvalues --    0.22162   0.47343   0.50155   0.50694   0.56776
 Alpha virt. eigenvalues --    0.57612   0.69911   0.73920   0.81090   0.82159

  Beta  occ. eigenvalues --   -9.90344  -9.89694  -0.66521  -0.52226  -0.39148
  Beta  occ. eigenvalues --   -0.35108  -0.33566  -0.30629
  Beta virt. eigenvalues --   -0.06933   0.09437   0.11847   0.12448   0.15254
  Beta virt. eigenvalues --    0.19627   0.23104   0.48069   0.50504   0.55655
  Beta virt. eigenvalues --    0.58508   0.61058   0.70764   0.75864   0.81783

 Mulliken charges and spin densities:
               1          2
     1  C   -0.494003  -0.075189
     2  C   -0.311850   1.075989
     3  H    0.168636   0.066980
     4  H    0.167193   0.015425
     5  H    0.167193   0.015425
     6  H    0.151415  -0.049315
     7  H    0.151415  -0.049315
 Sum of Mulliken charges =   0.00000   1.00000

 Dipole moment (field-independent basis, Debye):
    X=              0.1289    Y=             -0.2476    Z=              0.0000  Tot=              0.2791
 Quadrupole moment (field-independent basis, Debye-Ang):
   XX=            -14.9673   YY=            -13.9159   ZZ=            -13.3974
   XY=              0.1686   XZ=              0.0000   YZ=              0.0000

 Normal termination of Gaussian 16 at Wed Oct  7 14:06:19 2020.
