 Gaussian 16, Revision A.03,
 Gaussian 16:  ES64L-G16RevA.03 25-Dec-2016

 ----------------------------------------------------------------------
 #P Opt(MaxCyc=100) BP86/6-31G* 5D 7F Integral=UltraFineGrid SCF=(NoSym
 m,XQC,MaxCyc=120) EmpiricalDispersion=GD3BJ IOp(1/33=1)
 ----------------------------------------------------------------------

 TstMul:  Mul=     1
 TstMul:  ICh=     0
 TstMul:  Mul=     1
 Symbolic Z-matrix:
 Charge =  0 Multiplicity = 1

 SCF Done:  E(RB-P86) =  -79.8228523410     A.U. after    9 cycles
 SCF Done:  E(RB-P86) =  -79.8236801030     A.U. after    9 cycles
 SCF Done:  E(RB-P86) =  -79.8236817496     A.U. after    6 cycles
 Optimization completed.
    -- Stationary point found.

                         Standard orientation:
 ---------------------------------------------------------------------
 Center     Atomic      Atomic             Coordinates (Angstroms)
 Number     Number       Type             X           Y           Z
 ---------------------------------------------------------------------
      1          6           0       -0.767506   -0.000000   -0.000000
      2          6           0        0.767506    0.000000    0.000000
      3          1           0        1.169994   -0.584955   -0.846391
      4          1           0       -1.169995   -1.025514    0.082888
      5          1           0        1.169994   -0.440521    0.929779
      6          1           0        1.169995    1.025473   -0.083389
      7          1           0       -1.169993    0.584541    0.846677
      8          1           0       -1.169994    0.440975   -0.929564
 ---------------------------------------------------------------------

 The electronic state is 1-A.
 Alpha  occ. eigenvalues --   -9.89435  -9.89432  -0.67559  -0.54877  -0.38165
 Alpha  occ. eigenvalues --   -0.38165  -0.32060  -0.29636  -0.29636
 Alpha virt. eigenvalues --    0.08055   0.12863   0.13143   0.13143   0.16066
 Alpha virt. eigenvalues --    0.16066   0.20198   0.47579   0.50659   0.50659
 Alpha virt. eigenvalues --    0.59656   0.59656   0.61351   0.82986   0.82986

 Mulliken charges:
               1
     1  C   -0.470808
     2  C   -0.470808
     3  H    0.156936
     4  H    0.156936
     5  H    0.156936
     6  H    0.156936
     7  H    0.156936
     8  H    0.156936
 Sum of Mulliken charges =   0.00000

 Dipole moment (field-independent basis, Debye):
    X=              0.0000    Y=              0.0000    Z=             -0.0000  Tot=              0.0000
 Quadrupole moment (field-independent basis, Debye-Ang):
   XX=            -15.2005   YY=            -14.7051   ZZ=            -14.7051
   XY=              0.0000   XZ=             -0.0000   YZ=              0.0000

 Normal termination of Gaussian 16 at Wed Oct  7 14:06:43 2020.
