 Gaussian 16, Revision A.03,

 ----------------------------------------------------------------------
 #P Opt(TS,MaxCyc=50,NoEigenTest,MaxStep=10,AddRedundant) BP86/6-31G* 5
 D 7F Integral=UltraFineGrid SCF=(NoSymm,XQC,MaxCyc=120) EmpiricalDispe
 rsion=GD3BJ IOp(1/33=1)
 ----------------------------------------------------------------------

 TstMul:  Mul=     2
 TstMul:  ICh=     0
 TstMul:  Mul=     2
 Symbolic Z-matrix:
 Charge =  0 Multiplicity = 2

 SCF Done:  E(UB-P86) =  -79.0838072388     A.U. after   15 cycles
 SCF Done:  E(UB-P86) =  -79.0838452394     A.U. after   10 cycles
 SCF Done:  E(UB-P86) =  -79.0834006428     A.U. after   14 cycles
 SCF Done:  E(UB-P86) =  -79.0829997883     A.U. after   14 cycles
 SCF Done:  E(UB-P86) =  -79.0826344580     A.U. after   14 cycles
 SCF Done:  E(UB-P86) =  -79.0823178854     A.U. after   14 cycles
 SCF Done:  E(UB-P86) =  -79.0820518229     A.U. after   14 cycles
 SCF Done:  E(UB-P86) =  -79.0818298113     A.U. after   13 cycles
 SCF Done:  E(UB-P86) =  -79.0816432545     A.U. after   13 cycles
 SCF Done:  E(UB-P86) =  -79.0814835921     A.U. after   13 cycles
 SCF Done:  E(UB-P86) =  -79.0793709005     A.U. after   10 cycles
 SCF Done:  E(UB-P86) =  -79.0793496681     A.U. after   10 cycles
 SCF Done:  E(UB-P86) =  -79.0793308471     A.U. after    9 cycles
 SCF Done:  E(UB-P86) =  -79.0793132569     A.U. after    9 cycles
 SCF Done:  E(UB-P86) =  -79.0792977681     A.U. after    9 cycles
 SCF Done:  E(UB-P86) =  -79.0792853903     A.U. after   10 cycles
 SCF Done:  E(UB-P86) =  -79.0792756806     A.U. after   10 cycles
 SCF Done:  E(UB-P86) =  -79.0792677509     A.U. after   10 cycles
 SCF Done:  E(UB-P86) =  -79.0792601212     A.U. after   10 cycles
 Optimization completed.
    -- Stationary point found.
 Normal termination of Gaussian 16 at Wed Oct  7 14:14:27 2020.
 Gaussian 16:  ES64L-G16RevA.03 25-Dec-2016

 ----------------------------------------------------------------------
 #P Freq BP86/6-31G* 5D 7F Integral=UltraFineGrid SCF=(NoSymm,XQC,MaxCy
 c=120) EmpiricalDispersion=GD3BJ IOp(1/33=1) Geom=Check Guess=Read
 ----------------------------------------------------------------------

 TstMul:  Mul=     2
 TstMul:  ICh=     0
 TstMul:  Mul=     2
 Structure from the checkpoint file:  "MN_13_c2h5ts_BH76_BP86DBJ_631Gs.chk"
 Charge =  0 Multiplicity = 2

                         Standard orientation:
 ---------------------------------------------------------------------
 Center     Atomic      Atomic             Coordinates (Angstroms)
 Number     Number       Type             X           Y           Z
 ---------------------------------------------------------------------
      1          6           0       -0.018914    0.675746    0.000002
      2          6           0        0.523348   -0.550281    0.000000
      3          1           0       -4.034764   -1.003406   -0.000018
      4          1           0       -0.253120    1.204432    0.931480
      5          1           0       -0.253082    1.204453   -0.931473
      6          1           0        0.757200   -1.079123   -0.931487
      7          1           0        0.757162   -1.079143    0.931485
 ---------------------------------------------------------------------

 SCF Done:  E(UB-P86) =  -79.0792601212     A.U. after    1 cycles

 The electronic state is 2-A.
 Alpha  occ. eigenvalues --   -9.90676  -9.90625  -0.68133  -0.51910  -0.41396
 Alpha  occ. eigenvalues --   -0.36691  -0.30981  -0.26919  -0.23484
 Alpha virt. eigenvalues --   -0.02001   0.09540   0.10926   0.12706   0.21771
 Alpha virt. eigenvalues --    0.29420   0.44526   0.50511   0.52974   0.58886
 Alpha virt. eigenvalues --    0.61686   0.64209   0.67193   0.79764   0.81337

  Beta  occ. eigenvalues --   -9.90675  -9.90624  -0.68132  -0.51909  -0.41396
  Beta  occ. eigenvalues --   -0.36691  -0.30981  -0.23499
  Beta virt. eigenvalues --   -0.06431  -0.02000   0.09539   0.10925   0.12706
  Beta virt. eigenvalues --    0.21770   0.29419   0.44524   0.50580   0.52971
  Beta virt. eigenvalues --    0.58914   0.61788   0.64230   0.79763   0.81337

 Mulliken charges and spin densities:
               1          2
     1  C   -0.304139  -0.000339
     2  C   -0.304158   0.000667
     3  H   -0.000167   0.999710
     4  H    0.152123   0.000006
     5  H    0.152123   0.000006
     6  H    0.152109  -0.000025
     7  H    0.152109  -0.000025
 Sum of Mulliken charges =  -0.00000   1.00000

 Dipole moment (field-independent basis, Debye):
    X=              0.0027    Y=              0.0006    Z=              0.0000  Tot=              0.0028
 Quadrupole moment (field-independent basis, Debye-Ang):
   XX=            -15.8845   YY=            -13.7648   ZZ=            -13.3526
   XY=             -1.1635   XZ=             -0.0001   YZ=             -0.0000

  Exact polarizability:  12.551  -8.346  27.619  -0.000  -0.000  21.171
 Approx polarizability:  20.261 -17.501  51.960  -0.000  -0.000  29.893

 ******    1 imaginary frequencies (negative Signs) ******

                      1                      2                      3
                      A                      A                      A
 Frequencies --    -45.6075                 3.6319                 8.4011
 Red. masses --      1.0391                 1.4707                 1.0143
 Frc consts  --      0.0013                 0.0000                 0.0000
 IR Inten    --      0.0064                 0.0003                 0.0000

                      4                      5                      6
                      A                      A                      A
 Frequencies --    807.9600               903.3486               934.5045
 Red. masses --      1.0428                 1.5207                 1.1608
 Frc consts  --      0.4011                 0.7312                 0.5973
 IR Inten    --      1.1530                 0.0002                87.7755

                      7                      8                      9
                      A                      A                      A
 Frequencies --   1037.5034              1207.0388              1355.9167
 Red. masses --      1.0078                 1.5277                 1.2152
 Frc consts  --      0.6392                 1.3114                 1.3163
 IR Inten    --      0.0000                 0.0000                 0.0001

                     10                     11                     12
                      A                      A                      A
 Frequencies --   1445.3299              1666.0799              3071.8994
 Red. masses --      1.1122                 3.1954                 1.0475
 Frc consts  --      1.3689                 5.2260                 5.8239
 IR Inten    --      5.2604                 0.0011                21.0762

                     13                     14                     15
                      A                      A                      A
 Frequencies --   3086.9113              3142.9463              3169.6012
 Red. masses --      1.0730                 1.1141                 1.1176
 Frc consts  --      6.0244                 6.4842                 6.6153
 IR Inten    --      0.0003                 0.0000                34.8047

 - Thermochemistry -
 -------------------
 Temperature   298.150 Kelvin.  Pressure   1.00000 Atm.
 Atom     1 has atomic number  6 and mass  12.00000

 Molecular mass:    29.03913 amu.
 Principal axes and moments of inertia in atomic units:
                           1         2         3
     Eigenvalues --    65.29734  88.42859 128.74429
           X            0.95314   0.30252   0.00000
           Y           -0.30252   0.95314  -0.00000
           Z           -0.00000   0.00000   1.00000
 This molecule is an asymmetric top.
 Rotational symmetry number  1.
 Rotational temperatures (Kelvin)      1.32645     0.97948     0.67276
 Rotational constants (GHZ):          27.63882    20.40902    14.01803
    1 imaginary frequencies ignored.
 Zero-point vibrational energy     130638.6 (Joules/Mol)
                                   31.22338 (Kcal/Mol)
 Warning -- explicit consideration of   2 degrees of freedom as
           vibrations may cause significant error
 Vibrational temperatures:      5.23    12.09  1162.47  1299.72  1344.54
          (Kelvin)           1492.74  1736.66  1950.86  2079.51  2397.12
                             4419.78  4441.38  4522.00  4560.35

 Zero-point correction=                           0.049758 (Hartree/Particle)
 Thermal correction to Energy=                    0.054694
 Thermal correction to Enthalpy=                  0.055638
 Thermal correction to Gibbs Free Energy=         0.018744
 Sum of electronic and zero-point Energies=            -79.029502
 Sum of electronic and thermal Energies=               -79.024566
 Sum of electronic and thermal Enthalpies=             -79.023622
 Sum of electronic and thermal Free Energies=          -79.060516

                     E (Thermal)             CV                S
                      KCal/Mol        Cal/Mol-Kelvin    Cal/Mol-Kelvin
 Total                   34.321             12.317             77.649
 Electronic               0.000              0.000              1.377
 Translational            0.889              2.981             36.032
 Rotational               0.889              2.981             21.235
 Vibrational             32.543              6.356             19.004
 Vibration     1          0.593              1.987             10.024
 Vibration     2          0.593              1.987              8.357

                           ! Non-Optimized Parameters !
 Normal termination of Gaussian 16 at Wed Oct  7 14:14:55 2020.
