 Gaussian 16, Revision A.03,
 Gaussian 16:  ES64L-G16RevA.03 25-Dec-2016

 ----------------------------------------------------------------------
 #P Opt(MaxCyc=100) BP86/6-31G* 5D 7F Integral=UltraFineGrid SCF=(NoSym
 m,XQC,MaxCyc=120) EmpiricalDispersion=GD3BJ IOp(1/33=1)
 ----------------------------------------------------------------------

 TstMul:  Mul=     2
 TstMul:  ICh=     0
 TstMul:  Mul=     2
 Symbolic Z-matrix:
 Charge =  0 Multiplicity = 2

 SCF Done:  E(UB-P86) =  -118.463191136     A.U. after   14 cycles
 SCF Done:  E(UB-P86) =  -118.464241606     A.U. after   11 cycles
 SCF Done:  E(UB-P86) =  -118.464248975     A.U. after    9 cycles
 SCF Done:  E(UB-P86) =  -118.464249716     A.U. after    8 cycles
 Optimization completed.
    -- Stationary point found.

                         Standard orientation:
 ---------------------------------------------------------------------
 Center     Atomic      Atomic             Coordinates (Angstroms)
 Number     Number       Type             X           Y           Z
 ---------------------------------------------------------------------
      1          6           0        1.218846   -0.287753    0.000060
      2          6           0       -0.071547    0.577278   -0.000058
      3          6           0       -1.323918   -0.238877   -0.000013
      4          1           0        1.256709   -0.937742    0.892007
      5          1           0        1.256734   -0.937944   -0.891739
      6          1           0        2.121606    0.350769   -0.000002
      7          1           0       -0.048250    1.239184   -0.888227
      8          1           0       -0.048308    1.239376    0.887964
      9          1           0       -1.739571   -0.628456    0.934932
     10          1           0       -1.739204   -0.629076   -0.934865
 ---------------------------------------------------------------------

 The electronic state is 2-A.
 Alpha  occ. eigenvalues --   -9.90860  -9.90821  -9.89808  -0.70443  -0.60369
 Alpha  occ. eigenvalues --   -0.51787  -0.41137  -0.37930  -0.34560  -0.33331
 Alpha  occ. eigenvalues --   -0.30549  -0.28902  -0.15990
 Alpha virt. eigenvalues --    0.07951   0.11147   0.11163   0.12875   0.14656
 Alpha virt. eigenvalues --    0.14781   0.19083   0.19361   0.23497   0.47785
 Alpha virt. eigenvalues --    0.49399   0.49978   0.51572   0.54619   0.56919

  Beta  occ. eigenvalues --   -9.90893  -9.89672  -9.89570  -0.69587  -0.58883
  Beta  occ. eigenvalues --   -0.50661  -0.40727  -0.37436  -0.34089  -0.32471
  Beta  occ. eigenvalues --   -0.30085  -0.28722
  Beta virt. eigenvalues --   -0.07282   0.08359   0.11368   0.12398   0.13103
  Beta virt. eigenvalues --    0.14913   0.15102   0.19635   0.19809   0.24464
  Beta virt. eigenvalues --    0.48561   0.50221   0.52123   0.52759   0.57349

 Mulliken charges and spin densities:
               1          2
     1  C   -0.468956   0.052139
     2  C   -0.291019  -0.067580
     3  C   -0.314050   1.072045
     4  H    0.157972  -0.000504
     5  H    0.157969  -0.000507
     6  H    0.153316   0.015448
     7  H    0.153671   0.013338
     8  H    0.153667   0.013312
     9  H    0.148717  -0.048846
    10  H    0.148713  -0.048845
 Sum of Mulliken charges =   0.00000   1.00000

 Dipole moment (field-independent basis, Debye):
    X=              0.2582    Y=             -0.0106    Z=              0.0001  Tot=              0.2585
 Quadrupole moment (field-independent basis, Debye-Ang):
   XX=            -21.5549   YY=            -21.0850   ZZ=            -19.8718
   XY=              0.7595   XZ=             -0.0005   YZ=              0.0004

 Normal termination of Gaussian 16 at Wed Oct  7 14:07:17 2020.
