 Gaussian 16, Revision A.03,

 ----------------------------------------------------------------------
 #P Opt(TS,MaxCyc=50,NoEigenTest,MaxStep=10,AddRedundant) BP86/6-31G* 5
 D 7F Integral=UltraFineGrid SCF=(NoSymm,XQC,MaxCyc=120) EmpiricalDispe
 rsion=GD3BJ IOp(1/33=1)
 ----------------------------------------------------------------------

 TstMul:  Mul=     2
 TstMul:  ICh=     0
 TstMul:  Mul=     2
 Symbolic Z-matrix:
 Charge =  0 Multiplicity = 2

 SCF Done:  E(UB-P86) =  -118.413762741     A.U. after   15 cycles
 SCF Done:  E(UB-P86) =  -118.415880127     A.U. after   14 cycles
 SCF Done:  E(UB-P86) =  -118.414727851     A.U. after   14 cycles
 SCF Done:  E(UB-P86) =  -118.413801026     A.U. after   14 cycles
 SCF Done:  E(UB-P86) =  -118.413167497     A.U. after   14 cycles
 SCF Done:  E(UB-P86) =  -118.412783402     A.U. after   14 cycles
 SCF Done:  E(UB-P86) =  -118.412599632     A.U. after   15 cycles
 SCF Done:  E(UB-P86) =  -118.412567295     A.U. after   13 cycles
 SCF Done:  E(UB-P86) =  -118.412568301     A.U. after   10 cycles
 SCF Done:  E(UB-P86) =  -118.412569427     A.U. after   10 cycles
 SCF Done:  E(UB-P86) =  -118.412586763     A.U. after   12 cycles
 SCF Done:  E(UB-P86) =  -118.412599015     A.U. after   11 cycles
 SCF Done:  E(UB-P86) =  -118.412610594     A.U. after   12 cycles
 SCF Done:  E(UB-P86) =  -118.412615559     A.U. after   11 cycles
 SCF Done:  E(UB-P86) =  -118.412618549     A.U. after   11 cycles
 SCF Done:  E(UB-P86) =  -118.412619539     A.U. after   10 cycles
 SCF Done:  E(UB-P86) =  -118.412619949     A.U. after   10 cycles
 SCF Done:  E(UB-P86) =  -118.412620209     A.U. after    7 cycles
 SCF Done:  E(UB-P86) =  -118.412620299     A.U. after    8 cycles
 Optimization completed.
    -- Stationary point found.
 Normal termination of Gaussian 16 at Wed Oct  7 14:11:56 2020.
 Gaussian 16:  ES64L-G16RevA.03 25-Dec-2016

 ----------------------------------------------------------------------
 #P Freq BP86/6-31G* 5D 7F Integral=UltraFineGrid SCF=(NoSymm,XQC,MaxCy
 c=120) EmpiricalDispersion=GD3BJ IOp(1/33=1) Geom=Check Guess=Read
 ----------------------------------------------------------------------

 TstMul:  Mul=     2
 TstMul:  ICh=     0
 TstMul:  Mul=     2
 Structure from the checkpoint file:  "MN_17_c3h7ts_BH76_BP86DBJ_631Gs.chk"
 Charge =  0 Multiplicity = 2

                         Standard orientation:
 ---------------------------------------------------------------------
 Center     Atomic      Atomic             Coordinates (Angstroms)
 Number     Number       Type             X           Y           Z
 ---------------------------------------------------------------------
      1          6           0       -0.573620    0.651200    0.000073
      2          6           0       -1.449732   -0.383872   -0.000064
      3          1           0       -0.286633    1.154904   -0.928932
      4          1           0       -0.286038    1.154192    0.929278
      5          1           0       -1.800895   -0.841162    0.931763
      6          1           0       -1.801476   -0.840342   -0.932077
      7          6           0        1.769835   -0.231131   -0.000068
      8          1           0        2.289226    0.730050   -0.030442
      9          1           0        1.694839   -0.812343   -0.920857
     10          1           0        1.712076   -0.762478    0.951620
 ---------------------------------------------------------------------

 SCF Done:  E(UB-P86) =  -118.412620299     A.U. after    1 cycles

 The electronic state is 2-A.
 Alpha  occ. eigenvalues --   -9.90821  -9.90737  -9.90193  -0.67880  -0.60470
 Alpha  occ. eigenvalues --   -0.51634  -0.41063  -0.36761  -0.35870  -0.35523
 Alpha  occ. eigenvalues --   -0.30676  -0.24904  -0.15591
 Alpha virt. eigenvalues --   -0.00514   0.07674   0.11051   0.11258   0.13725
 Alpha virt. eigenvalues --    0.15535   0.15540   0.21821   0.29290   0.42457
 Alpha virt. eigenvalues --    0.49584   0.49741   0.51711   0.55753   0.55962

  Beta  occ. eigenvalues --   -9.90959  -9.89817  -9.89534  -0.67501  -0.57745
  Beta  occ. eigenvalues --   -0.51307  -0.40927  -0.36353  -0.35049  -0.34908
  Beta  occ. eigenvalues --   -0.30575  -0.23306
  Beta virt. eigenvalues --   -0.08410   0.01039   0.08355   0.11318   0.11711
  Beta virt. eigenvalues --    0.14037   0.16162   0.16169   0.21905   0.29517
  Beta virt. eigenvalues --    0.43052   0.50235   0.51281   0.54310   0.56509

 Mulliken charges and spin densities:
               1          2
     1  C   -0.285362  -0.127688
     2  C   -0.311122   0.302107
     3  H    0.157292   0.007129
     4  H    0.157322   0.007125
     5  H    0.147797  -0.014063
     6  H    0.147782  -0.014064
     7  C   -0.514631   0.954148
     8  H    0.162622  -0.037133
     9  H    0.169314  -0.038775
    10  H    0.168986  -0.038786
 Sum of Mulliken charges =  -0.00000   1.00000

 Dipole moment (field-independent basis, Debye):
    X=              0.1610    Y=              0.0531    Z=              0.0004  Tot=              0.1695
 Quadrupole moment (field-independent basis, Debye-Ang):
   XX=            -22.0958   YY=            -20.3493   ZZ=            -19.1987
   XY=              1.5545   XZ=              0.0003   YZ=              0.0000

  Exact polarizability:  52.863   7.769  32.780  -0.003  -0.007  31.949
 Approx polarizability:  94.624  20.331  54.036  -0.001  -0.006  46.514

 ******    1 imaginary frequencies (negative Signs) ******

                      1                      2                      3
                      A                      A                      A
 Frequencies --   -228.7156                74.5031               184.6035
 Red. masses --      8.3908                 1.0911                 2.4791
 Frc consts  --      0.2586                 0.0036                 0.0498
 IR Inten    --      0.8789                 0.0038                 0.9945

                      4                      5                      6
                      A                      A                      A
 Frequencies --    297.8968               386.9776               405.3063
 Red. masses --      1.0639                 1.0984                 1.0759
 Frc consts  --      0.0556                 0.0969                 0.1041
 IR Inten    --      0.0873                 1.8870                 0.6742

                      7                      8                      9
                      A                      A                      A
 Frequencies --    661.9405               803.8128               843.6477
 Red. masses --      1.0899                 1.0425                 1.4521
 Frc consts  --      0.2814                 0.3969                 0.6089
 IR Inten    --     17.2391                 1.0204                18.6841

                     10                     11                     12
                      A                      A                      A
 Frequencies --    900.2845              1003.3057              1206.3835
 Red. masses --      1.1324                 1.0138                 1.5089
 Frc consts  --      0.5408                 0.6013                 1.2938
 IR Inten    --     65.0772                 0.0212                 0.0388

                     13                     14                     15
                      A                      A                      A
 Frequencies --   1318.4221              1391.5475              1396.8736
 Red. masses --      1.4105                 1.0986                 1.0978
 Frc consts  --      1.4446                 1.2533                 1.2620
 IR Inten    --      0.5417                 2.2743                 1.9593

                     16                     17                     18
                      A                      A                      A
 Frequencies --   1441.7073              1596.6741              3062.4263
 Red. masses --      1.1129                 2.3367                 1.0105
 Frc consts  --      1.3629                 3.5098                 5.5839
 IR Inten    --      4.4275                 0.1721                 0.0260

                     19                     20                     21
                      A                      A                      A
 Frequencies --   3078.6176              3091.0840              3150.7803
 Red. masses --      1.0489                 1.0659                 1.1144
 Frc consts  --      5.8571                 6.0007                 6.5185
 IR Inten    --     16.4379                 1.0460                 1.1068

                     22                     23                     24
                      A                      A                      A
 Frequencies --   3177.8416              3224.7422              3235.0765
 Red. masses --      1.1179                 1.1165                 1.1167
 Frc consts  --      6.6512                 6.8405                 6.8857
 IR Inten    --     27.5072                 9.4257                 9.4143

 - Thermochemistry -
 -------------------
 Temperature   298.150 Kelvin.  Pressure   1.00000 Atm.
 Atom     1 has atomic number  6 and mass  12.00000

 Molecular mass:    43.05478 amu.
 Principal axes and moments of inertia in atomic units:
                           1         2         3
     Eigenvalues --    66.53009 320.76433 349.73585
           X            0.99982   0.01880   0.00000
           Y           -0.01880   0.99982  -0.00006
           Z           -0.00001   0.00006   1.00000
 This molecule is an asymmetric top.
 Rotational symmetry number  1.
 Rotational temperatures (Kelvin)      1.30188     0.27002     0.24766
 Rotational constants (GHZ):          27.12669     5.62638     5.16030
    1 imaginary frequencies ignored.
 Zero-point vibrational energy     214935.8 (Joules/Mol)
                                   51.37088 (Kcal/Mol)
 Warning -- explicit consideration of   5 degrees of freedom as
           vibrations may cause significant error
 Vibrational temperatures:    107.19   265.60   428.61   556.77   583.15
          (Kelvin)            952.38  1156.51  1213.82  1295.31  1443.53
                             1735.72  1896.92  2002.13  2009.79  2074.30
                             2297.26  4406.15  4429.44  4447.38  4533.27
                             4572.21  4639.68  4654.55

 Zero-point correction=                           0.081865 (Hartree/Particle)
 Thermal correction to Energy=                    0.087531
 Thermal correction to Enthalpy=                  0.088475
 Thermal correction to Gibbs Free Energy=         0.053840
 Sum of electronic and zero-point Energies=           -118.330756
 Sum of electronic and thermal Energies=              -118.325089
 Sum of electronic and thermal Enthalpies=            -118.324145
 Sum of electronic and thermal Free Energies=         -118.358781

                     E (Thermal)             CV                S
                      KCal/Mol        Cal/Mol-Kelvin    Cal/Mol-Kelvin
 Total                   54.927             18.127             72.897
 Electronic               0.000              0.000              1.377
 Translational            0.889              2.981             37.206
 Rotational               0.889              2.981             23.527
 Vibrational             53.149             12.166             10.786
 Vibration     1          0.599              1.966              4.031
 Vibration     2          0.631              1.861              2.281
 Vibration     3          0.691              1.678              1.429
 Vibration     4          0.755              1.498              1.012
 Vibration     5          0.770              1.459              0.943

                           ! Non-Optimized Parameters !
 Normal termination of Gaussian 16 at Wed Oct  7 14:12:41 2020.
