 Gaussian 16, Revision A.03,
 Gaussian 16:  ES64L-G16RevA.03 25-Dec-2016

 ----------------------------------------------------------------------
 #P Opt(MaxCyc=100) BP86/6-31G* 5D 7F Integral=UltraFineGrid SCF=(NoSym
 m,XQC,MaxCyc=120) EmpiricalDispersion=GD3BJ IOp(1/33=1)
 ----------------------------------------------------------------------

 TstMul:  Mul=     2
 TstMul:  ICh=     0
 TstMul:  Mul=     2
 Symbolic Z-matrix:
 Charge =  0 Multiplicity = 2

 SCF Done:  E(UB-P86) =  -79.1500491583     A.U. after   13 cycles
 SCF Done:  E(UB-P86) =  -79.1508024334     A.U. after   11 cycles
 SCF Done:  E(UB-P86) =  -79.1508106291     A.U. after    9 cycles
 Optimization completed.
    -- Stationary point found.

                         Standard orientation:
 ---------------------------------------------------------------------
 Center     Atomic      Atomic             Coordinates (Angstroms)
 Number     Number       Type             X           Y           Z
 ---------------------------------------------------------------------
      1          6           0        0.797081   -0.000004   -0.021309
      2          6           0       -0.695446    0.000196   -0.001350
      3          1           0       -1.113751    0.901127   -0.487201
      4          1           0        1.360040   -0.935671    0.047649
      5          1           0       -1.102865   -0.012605    1.036090
      6          1           0       -1.114214   -0.889028   -0.508392
      7          1           0        1.360980    0.935026    0.047806
 ---------------------------------------------------------------------

 The electronic state is 2-A.
 Alpha  occ. eigenvalues --   -9.90997  -9.90267  -0.67888  -0.54179  -0.39745
 Alpha  occ. eigenvalues --   -0.36192  -0.34288  -0.31033  -0.15819
 Alpha virt. eigenvalues --    0.08951   0.11021   0.11628   0.14489   0.19154
 Alpha virt. eigenvalues --    0.22116   0.47365   0.50156   0.50697   0.56738
 Alpha virt. eigenvalues --    0.57601   0.69898   0.73890   0.81126   0.82172

  Beta  occ. eigenvalues --   -9.90342  -9.89697  -0.66508  -0.52219  -0.39148
  Beta  occ. eigenvalues --   -0.35126  -0.33532  -0.30640
  Beta virt. eigenvalues --   -0.06926   0.09433   0.11855   0.12449   0.15259
  Beta virt. eigenvalues --    0.19622   0.23058   0.48089   0.50503   0.55656
  Beta virt. eigenvalues --    0.58467   0.61053   0.70753   0.75835   0.81816

 Mulliken charges and spin densities:
               1          2
     1  C   -0.312077   1.076497
     2  C   -0.493930  -0.075049
     3  H    0.167130   0.014745
     4  H    0.151349  -0.049330
     5  H    0.168777   0.066528
     6  H    0.167252   0.015973
     7  H    0.151499  -0.049364
 Sum of Mulliken charges =  -0.00000   1.00000

 Dipole moment (field-independent basis, Debye):
    X=             -0.2454    Y=             -0.0006    Z=              0.1313  Tot=              0.2784
 Quadrupole moment (field-independent basis, Debye-Ang):
   XX=            -13.9189   YY=            -13.3946   ZZ=            -14.9686
   XY=              0.0014   XZ=              0.1535   YZ=              0.0002

 Normal termination of Gaussian 16 at Wed Oct  7 14:06:36 2020.
