 Gaussian 16, Revision A.03,
 Gaussian 16:  ES64L-G16RevA.03 25-Dec-2016

 ----------------------------------------------------------------------
 #P Opt(MaxCyc=100) BP86/6-31G* 5D 7F Integral=UltraFineGrid SCF=(NoSym
 m,XQC,MaxCyc=120) EmpiricalDispersion=GD3BJ IOp(1/33=1)
 ----------------------------------------------------------------------

 TstMul:  Mul=     2
 TstMul:  ICh=     0
 TstMul:  Mul=     2
 Symbolic Z-matrix:
 Charge =  0 Multiplicity = 2

 SCF Done:  E(UB-P86) =  -39.8311568075     A.U. after    9 cycles
 SCF Done:  E(UB-P86) =  -39.8315386202     A.U. after    8 cycles
 Optimization completed.
    -- Stationary point found.

                         Standard orientation:
 ---------------------------------------------------------------------
 Center     Atomic      Atomic             Coordinates (Angstroms)
 Number     Number       Type             X           Y           Z
 ---------------------------------------------------------------------
      1          6           0        0.000000    0.000000    0.000000
      2          1           0        0.000000    1.091571    0.000000
      3          1           0        0.945328   -0.545785    0.000000
      4          1           0       -0.945328   -0.545785    0.000000
 ---------------------------------------------------------------------

 The electronic state is 2-A2".
 Alpha  occ. eigenvalues --   -9.91484  -0.61253  -0.36932  -0.36932  -0.18580
 Alpha virt. eigenvalues --    0.08729   0.15205   0.15205   0.49086   0.50725
 Alpha virt. eigenvalues --    0.50725   0.63987   0.85466   0.85466   0.90995
 Alpha virt. eigenvalues --    1.57762   1.57762   1.92508   2.09708   2.09708
  Beta  occ. eigenvalues --   -9.90140  -0.57885  -0.35986  -0.35986
  Beta virt. eigenvalues --   -0.08395   0.10408   0.15810   0.15810   0.52035
  Beta virt. eigenvalues --    0.52035   0.57642   0.67093   0.85973   0.85973
  Beta virt. eigenvalues --    0.94668   1.65199   1.65199   2.02751   2.10854

 Mulliken charges and spin densities:
               1          2
     1  C   -0.512724   1.151611
     2  H    0.170908  -0.050537
     3  H    0.170908  -0.050537
     4  H    0.170908  -0.050537
 Sum of Mulliken charges =  -0.00000   1.00000

 Dipole moment (field-independent basis, Debye):
    X=              0.0000    Y=              0.0000    Z=              0.0000  Tot=              0.0000
 Quadrupole moment (field-independent basis, Debye-Ang):
   XX=             -6.9968   YY=             -6.9968   ZZ=             -8.7089
   XY=             -0.0000   XZ=             -0.0000   YZ=             -0.0000

 Normal termination of Gaussian 16 at Wed Oct  7 14:07:08 2020.
