 Gaussian 16, Revision A.03,
 Gaussian 16:  ES64L-G16RevA.03 25-Dec-2016

 ----------------------------------------------------------------------
 #P Opt(MaxCyc=100) BP86/6-31G* 5D 7F Integral=UltraFineGrid SCF=(NoSym
 m,XQC,MaxCyc=120) EmpiricalDispersion=GD3BJ IOp(1/33=1)
 ----------------------------------------------------------------------

 TstMul:  Mul=     1
 TstMul:  ICh=     0
 TstMul:  Mul=     1
 Symbolic Z-matrix:
 Charge =  0 Multiplicity = 1

 SCF Done:  E(RB-P86) =  -139.726696515     A.U. after   10 cycles
 SCF Done:  E(RB-P86) =  -139.727544687     A.U. after   10 cycles
 SCF Done:  E(RB-P86) =  -139.727551671     A.U. after    7 cycles
 Optimization completed.
    -- Stationary point found.

                         Standard orientation:
 ---------------------------------------------------------------------
 Center     Atomic      Atomic             Coordinates (Angstroms)
 Number     Number       Type             X           Y           Z
 ---------------------------------------------------------------------
      1          6           0        0.000000    0.000000   -0.633007
      2          9           0        0.000000    0.000000    0.757695
      3          1           0        0.000000    1.041281   -1.007071
      4          1           0        0.901776   -0.520641   -1.007071
      5          1           0       -0.901776   -0.520641   -1.007071
 ---------------------------------------------------------------------

 The electronic state is 1-A1.
 Alpha  occ. eigenvalues --  -24.26167  -9.97258  -1.06989  -0.62581  -0.42216
 Alpha  occ. eigenvalues --   -0.41319  -0.41319  -0.27519  -0.27519
 Alpha virt. eigenvalues --    0.07576   0.09412   0.13376   0.13376   0.46976
 Alpha virt. eigenvalues --    0.51632   0.51632   0.78874   0.78874   0.80964
 Alpha virt. eigenvalues --    0.93609   1.18722   1.19406   1.19406   1.45417

 Mulliken charges:
               1
     1  C   -0.144243
     2  F   -0.307539
     3  H    0.150594
     4  H    0.150594
     5  H    0.150594
 Sum of Mulliken charges =  -0.00000

 Dipole moment (field-independent basis, Debye):
    X=             -0.0000    Y=             -0.0000    Z=             -1.6221  Tot=              1.6221
 Quadrupole moment (field-independent basis, Debye-Ang):
   XX=            -11.7423   YY=            -11.7423   ZZ=            -11.9617
   XY=             -0.0000   XZ=             -0.0000   YZ=              0.0000

 Normal termination of Gaussian 16 at Wed Oct  7 14:07:01 2020.
