 Gaussian 16, Revision A.03,
 Gaussian 16:  ES64L-G16RevA.03 25-Dec-2016

 ----------------------------------------------------------------------
 #P Opt(MaxCyc=100) BP86/6-31G* 5D 7F Integral=UltraFineGrid SCF=(NoSym
 m,XQC,MaxCyc=120) EmpiricalDispersion=GD3BJ IOp(1/33=1)
 ----------------------------------------------------------------------

 TstMul:  Mul=     1
 TstMul:  ICh=    -1
 TstMul:  Mul=     1
 Symbolic Z-matrix:
 Charge = -1 Multiplicity = 1

 SCF Done:  E(RB-P86) =  -960.429001081     A.U. after   13 cycles
 SCF Done:  E(RB-P86) =  -960.430266826     A.U. after   12 cycles
 SCF Done:  E(RB-P86) =  -960.430620361     A.U. after   12 cycles
 SCF Done:  E(RB-P86) =  -960.430967023     A.U. after   11 cycles
 SCF Done:  E(RB-P86) =  -960.431052934     A.U. after   10 cycles
 SCF Done:  E(RB-P86) =  -960.431068988     A.U. after    8 cycles
 SCF Done:  E(RB-P86) =  -960.431071534     A.U. after    8 cycles
 SCF Done:  E(RB-P86) =  -960.431072210     A.U. after    7 cycles
 Optimization completed.
    -- Stationary point found.

                         Standard orientation:
 ---------------------------------------------------------------------
 Center     Atomic      Atomic             Coordinates (Angstroms)
 Number     Number       Type             X           Y           Z
 ---------------------------------------------------------------------
      1         17           0        0.000000    0.000000   -2.348052
      2          6           0        0.000000    0.000000   -0.444600
      3          1           0       -0.000000    1.043220   -0.117007
      4          1           0       -0.903455   -0.521610   -0.117007
      5          1           0        0.903455   -0.521610   -0.117007
      6         17           0        0.000000    0.000000    2.525618
 ---------------------------------------------------------------------

 The electronic state is 1-A1.
 Alpha  occ. eigenvalues -- -100.55774-100.41159  -9.79932  -9.02061  -8.86980
 Alpha  occ. eigenvalues --   -6.84457  -6.83492  -6.83492  -6.68876  -6.68735
 Alpha  occ. eigenvalues --   -6.68735  -0.60518  -0.45680  -0.41259  -0.23374
 Alpha  occ. eigenvalues --   -0.23374  -0.20737  -0.11368  -0.11368   0.00272
 Alpha  occ. eigenvalues --    0.00747   0.00747
 Alpha virt. eigenvalues --    0.12825   0.24405   0.28394   0.28394   0.49740
 Alpha virt. eigenvalues --    0.54599   0.55703   0.55703   0.58211   0.62995
 Alpha virt. eigenvalues --    0.62995   0.67777   0.68172   0.68172   0.88288

 Mulliken charges:
               1
     1  Cl  -0.267878
     2  C   -0.506671
     3  H    0.216311
     4  H    0.216311
     5  H    0.216311
     6  Cl  -0.874382
 Sum of Mulliken charges =  -1.00000

 Dipole moment (field-independent basis, Debye):
    X=              0.0000    Y=             -0.0000    Z=             -6.5512  Tot=              6.5512
 Quadrupole moment (field-independent basis, Debye-Ang):
   XX=            -35.5649   YY=            -35.5649   ZZ=            -72.5820
   XY=             -0.0000   XZ=             -0.0000   YZ=              0.0000

 Normal termination of Gaussian 16 at Wed Oct  7 14:08:55 2020.
