 Gaussian 16, Revision A.03,
 Gaussian 16:  ES64L-G16RevA.03 25-Dec-2016

 ----------------------------------------------------------------------
 #P Opt(MaxCyc=100) BP86/6-31G* 5D 7F Integral=UltraFineGrid SCF=(NoSym
 m,XQC,MaxCyc=120) EmpiricalDispersion=GD3BJ IOp(1/33=1)
 ----------------------------------------------------------------------

 TstMul:  Mul=     1
 TstMul:  ICh=     0
 TstMul:  Mul=     1
 Symbolic Z-matrix:
 Charge =  0 Multiplicity = 1

 SCF Done:  E(RB-P86) =  -559.969126326     A.U. after   12 cycles
 SCF Done:  E(RB-P86) =  -559.970178052     A.U. after   11 cycles
 SCF Done:  E(RB-P86) =  -559.970316367     A.U. after    9 cycles
 Optimization completed.
    -- Stationary point found.

                         Standard orientation:
 ---------------------------------------------------------------------
 Center     Atomic      Atomic             Coordinates (Angstroms)
 Number     Number       Type             X           Y           Z
 ---------------------------------------------------------------------
      1          9           0        0.000000    0.000000   -1.097533
      2         17           0        0.000000    0.000000    0.581047
 ---------------------------------------------------------------------

 The electronic state is 1-SG.
 Alpha  occ. eigenvalues -- -100.79835 -24.33700  -9.25571  -7.08823  -7.06645
 Alpha  occ. eigenvalues --   -7.06645  -1.11416  -0.76119  -0.47956  -0.40061
 Alpha  occ. eigenvalues --   -0.40061  -0.28060  -0.28060
 Alpha virt. eigenvalues --   -0.16585   0.29364   0.35343   0.38958   0.38958
 Alpha virt. eigenvalues --    0.68030   0.68030   0.75847   0.75847   0.82819
 Alpha virt. eigenvalues --    1.16709   1.17555   1.17555   1.65459   1.75424

 Mulliken charges:
               1
     1  F   -0.274809
     2  Cl   0.274809
 Sum of Mulliken charges =  -0.00000

 Dipole moment (field-independent basis, Debye):
    X=              0.0000    Y=              0.0000    Z=              0.8933  Tot=              0.8933
 Quadrupole moment (field-independent basis, Debye-Ang):
   XX=            -17.1360   YY=            -17.1360   ZZ=            -15.4031
   XY=              0.0000   XZ=              0.0000   YZ=             -0.0000

 Normal termination of Gaussian 16 at Wed Oct  7 14:07:49 2020.
