 Gaussian 16, Revision A.03,

 ----------------------------------------------------------------------
 #P Opt(TS,MaxCyc=50,NoEigenTest,MaxStep=10,AddRedundant) BP86/6-31G* 5
 D 7F Integral=UltraFineGrid SCF=(NoSymm,XQC,MaxCyc=120) EmpiricalDispe
 rsion=GD3BJ IOp(1/33=1)
 ----------------------------------------------------------------------

 TstMul:  Mul=     1
 TstMul:  ICh=    -1
 TstMul:  Mul=     1
 Symbolic Z-matrix:
 Charge = -1 Multiplicity = 1

 SCF Done:  E(RB-P86) =  -960.423636429     A.U. after   13 cycles
 SCF Done:  E(RB-P86) =  -960.424223340     A.U. after   11 cycles
 SCF Done:  E(RB-P86) =  -960.424336967     A.U. after   12 cycles
 SCF Done:  E(RB-P86) =  -960.424357551     A.U. after   11 cycles
 SCF Done:  E(RB-P86) =  -960.424354770     A.U. after    8 cycles
 SCF Done:  E(RB-P86) =  -960.424325406     A.U. after   12 cycles
 SCF Done:  E(RB-P86) =  -960.424331304     A.U. after    9 cycles
 Optimization completed.
    -- Stationary point found.
 Normal termination of Gaussian 16 at Wed Oct  7 14:08:50 2020.
 Gaussian 16:  ES64L-G16RevA.03 25-Dec-2016

 ----------------------------------------------------------------------
 #P Freq BP86/6-31G* 5D 7F Integral=UltraFineGrid SCF=(NoSymm,XQC,MaxCy
 c=120) EmpiricalDispersion=GD3BJ IOp(1/33=1) Geom=Check Guess=Read
 ----------------------------------------------------------------------

 TstMul:  Mul=     1
 TstMul:  ICh=    -1
 TstMul:  Mul=     1
 Structure from the checkpoint file:  "MN_28_clch3clts_BH76_BP86DBJ_631Gs.chk"
 Charge = -1 Multiplicity = 1

                         Standard orientation:
 ---------------------------------------------------------------------
 Center     Atomic      Atomic             Coordinates (Angstroms)
 Number     Number       Type             X           Y           Z
 ---------------------------------------------------------------------
      1         17           0        2.359025   -0.000009   -0.000051
      2          6           0       -0.000115    0.000034    0.000154
      3          1           0        0.000069    0.942163   -0.535030
      4          1           0        0.000083   -0.934687   -0.547859
      5          1           0        0.000076   -0.007374    1.083684
      6         17           0       -2.358998   -0.000009   -0.000051
 ---------------------------------------------------------------------

 SCF Done:  E(RB-P86) =  -960.424331304     A.U. after    1 cycles

 The electronic state is 1-A.
 Alpha  occ. eigenvalues -- -100.47765-100.47761  -9.80204  -8.93764  -8.93759
 Alpha  occ. eigenvalues --   -6.75900  -6.75895  -6.75372  -6.75372  -6.75367
 Alpha  occ. eigenvalues --   -6.75367  -0.51398  -0.48643  -0.43719  -0.23329
 Alpha  occ. eigenvalues --   -0.23324  -0.12397  -0.05421  -0.05421  -0.04734
 Alpha  occ. eigenvalues --   -0.04734  -0.04697
 Alpha virt. eigenvalues --    0.10622   0.23053   0.29608   0.29612   0.53614
 Alpha virt. eigenvalues --    0.53961   0.60035   0.60040   0.60498   0.60498
 Alpha virt. eigenvalues --    0.65087   0.68908   0.68908   0.69741   0.83144

 Mulliken charges:
               1
     1  Cl  -0.615853
     2  C   -0.427573
     3  H    0.219703
     4  H    0.219709
     5  H    0.219668
     6  Cl  -0.615653
 Sum of Mulliken charges =  -1.00000

 Dipole moment (field-independent basis, Debye):
    X=             -0.0019    Y=              0.0001    Z=              0.0006  Tot=              0.0020
 Quadrupole moment (field-independent basis, Debye-Ang):
   XX=            -71.3778   YY=            -35.4844   ZZ=            -35.4856
   XY=             -0.0000   XZ=              0.0000   YZ=              0.0000

  Exact polarizability: 101.623  -0.000  22.983   0.000  -0.000  22.982
 Approx polarizability: 220.220  -0.000  32.983   0.000  -0.000  32.980

 ******    1 imaginary frequencies (negative Signs) ******

                      1                      2                      3
                      A                      A                      A
 Frequencies --   -289.9651               192.3532               192.4048
 Red. masses --     13.2632                 4.3454                 4.3456
 Frc consts  --      0.6570                 0.0947                 0.0948
 IR Inten    --    777.8472                11.9020                11.9021

                      4                      5                      6
                      A                      A                      A
 Frequencies --    204.6840               895.8489               895.9794
 Red. masses --     34.9649                 1.0123                 1.0123
 Frc consts  --      0.8631                 0.4787                 0.4788
 IR Inten    --      0.0000                 0.0000                 0.0000

                      7                      8                      9
                      A                      A                      A
 Frequencies --    961.8561              1373.5531              1373.7812
 Red. masses --      1.0437                 1.1049                 1.1049
 Frc consts  --      0.5689                 1.2282                 1.2286
 IR Inten    --     41.5598                 5.0787                 5.0747

                     10                     11                     12
                      A                      A                      A
 Frequencies --   3143.2675              3335.6152              3335.9153
 Red. masses --      1.0078                 1.1228                 1.1228
 Frc consts  --      5.8668                 7.3604                 7.3620
 IR Inten    --      0.0000                 0.0000                 0.0000

 - Thermochemistry -
 -------------------
 Temperature   298.150 Kelvin.  Pressure   1.00000 Atm.
 Atom     1 has atomic number 17 and mass  34.96885

 Molecular mass:    84.96118 amu.
 Principal axes and moments of inertia in atomic units:
                           1         2         3
     Eigenvalues --    12.676231396.191181396.19329
           X            1.00000  -0.00000   0.00000
           Y            0.00000   1.00000  -0.00008
           Z           -0.00000   0.00008   1.00000
 This molecule is an asymmetric top.
 Rotational symmetry number  1.
 Rotational temperatures (Kelvin)      6.83278     0.06204     0.06204
 Rotational constants (GHZ):         142.37211     1.29262     1.29262
    1 imaginary frequencies ignored.
 Zero-point vibrational energy      95134.6 (Joules/Mol)
                                   22.73771 (Kcal/Mol)
 Warning -- explicit consideration of   3 degrees of freedom as
           vibrations may cause significant error
 Vibrational temperatures:    276.75   276.83   294.49  1288.93  1289.11
          (Kelvin)           1383.90  1976.24  1976.56  4522.46  4799.21
                             4799.64

 Zero-point correction=                           0.036235 (Hartree/Particle)
 Thermal correction to Energy=                    0.040935
 Thermal correction to Enthalpy=                  0.041879
 Thermal correction to Gibbs Free Energy=         0.008201
 Sum of electronic and zero-point Energies=           -960.388096
 Sum of electronic and thermal Energies=              -960.383396
 Sum of electronic and thermal Enthalpies=            -960.382452
 Sum of electronic and thermal Free Energies=         -960.416130

                     E (Thermal)             CV                S
                      KCal/Mol        Cal/Mol-Kelvin    Cal/Mol-Kelvin
 Total                   25.687             13.160             70.882
 Electronic               0.000              0.000              0.000
 Translational            0.889              2.981             39.232
 Rotational               0.889              2.981             24.717
 Vibrational             23.910              7.198              6.933
 Vibration     1          0.634              1.850              2.205
 Vibration     2          0.634              1.850              2.205
 Vibration     3          0.640              1.833              2.091

 Optimization completed.
    -- Stationary point found.
 Normal termination of Gaussian 16 at Wed Oct  7 14:09:24 2020.
