 Gaussian 16, Revision A.03,
 Gaussian 16:  ES64L-G16RevA.03 25-Dec-2016

 ----------------------------------------------------------------------
 #P Opt(MaxCyc=100) BP86/6-31G* 5D 7F Integral=UltraFineGrid SCF=(NoSym
 m,XQC,MaxCyc=120) EmpiricalDispersion=GD3BJ IOp(1/33=1)
 ----------------------------------------------------------------------

 TstMul:  Mul=     1
 TstMul:  ICh=     0
 TstMul:  Mul=     1
 Symbolic Z-matrix:
 Charge =  0 Multiplicity = 1

 SCF Done:  E(RB-P86) =  -115.710148394     A.U. after   11 cycles
 SCF Done:  E(RB-P86) =  -115.711339800     A.U. after   11 cycles
 SCF Done:  E(RB-P86) =  -115.711353095     A.U. after    7 cycles
 Optimization completed.
    -- Stationary point found.

                         Standard orientation:
 ---------------------------------------------------------------------
 Center     Atomic      Atomic             Coordinates (Angstroms)
 Number     Number       Type             X           Y           Z
 ---------------------------------------------------------------------
      1          6           0       -0.047207    0.662884    0.000000
      2          8           0       -0.047207   -0.762684    0.000000
      3          1           0       -1.104392    0.976545    0.000000
      4          1           0        0.888557   -1.047258    0.000000
      5          1           0        0.438369    1.097442    0.900719
      6          1           0        0.438369    1.097442   -0.900719
 ---------------------------------------------------------------------

 The electronic state is 1-A'.
 Alpha  occ. eigenvalues --  -18.78010  -9.94366  -0.92146  -0.61074  -0.44934
 Alpha  occ. eigenvalues --   -0.38107  -0.36927  -0.28238  -0.21274
 Alpha virt. eigenvalues --    0.05114   0.10361   0.13410   0.14363   0.16628
 Alpha virt. eigenvalues --    0.48641   0.53266   0.54215   0.73223   0.79364
 Alpha virt. eigenvalues --    0.81231   0.84079   0.91972   0.94567   0.98033

 Mulliken charges:
               1
     1  C   -0.249515
     2  O   -0.591282
     3  H    0.171359
     4  H    0.393635
     5  H    0.137902
     6  H    0.137902
 Sum of Mulliken charges =  -0.00000

 Dipole moment (field-independent basis, Debye):
    X=              1.4116    Y=              0.8251    Z=              0.0000  Tot=              1.6351
 Quadrupole moment (field-independent basis, Debye-Ang):
   XX=            -11.5465   YY=            -13.0388   ZZ=            -13.6458
   XY=             -2.1068   XZ=              0.0000   YZ=              0.0000

 Normal termination of Gaussian 16 at Wed Oct  7 14:07:33 2020.
