 Gaussian 16, Revision A.03,

 ----------------------------------------------------------------------
 #P Opt(TS,MaxCyc=50,NoEigenTest,MaxStep=10,AddRedundant) BP86/6-31G* 5
 D 7F Integral=UltraFineGrid SCF=(NoSymm,XQC,MaxCyc=120) EmpiricalDispe
 rsion=GD3BJ IOp(1/33=1)
 ----------------------------------------------------------------------

 TstMul:  Mul=     1
 TstMul:  ICh=    -1
 TstMul:  Mul=     1
 Symbolic Z-matrix:
 Charge = -1 Multiplicity = 1

 SCF Done:  E(RB-P86) =  -239.518217023     A.U. after   13 cycles
 SCF Done:  E(RB-P86) =  -239.518809013     A.U. after   12 cycles
 SCF Done:  E(RB-P86) =  -239.518858510     A.U. after    9 cycles
 SCF Done:  E(RB-P86) =  -239.518858397     A.U. after   11 cycles
 SCF Done:  E(RB-P86) =  -239.518858292     A.U. after    8 cycles
 Optimization completed.
    -- Stationary point found.
 Normal termination of Gaussian 16 at Wed Oct  7 14:09:09 2020.
 Gaussian 16:  ES64L-G16RevA.03 25-Dec-2016

 ----------------------------------------------------------------------
 #P Freq BP86/6-31G* 5D 7F Integral=UltraFineGrid SCF=(NoSymm,XQC,MaxCy
 c=120) EmpiricalDispersion=GD3BJ IOp(1/33=1) Geom=Check Guess=Read
 ----------------------------------------------------------------------

 TstMul:  Mul=     1
 TstMul:  ICh=    -1
 TstMul:  Mul=     1
 Structure from the checkpoint file:  "MN_39_fch3fts_BH76_BP86DBJ_631Gs.chk"
 Charge = -1 Multiplicity = 1

                         Standard orientation:
 ---------------------------------------------------------------------
 Center     Atomic      Atomic             Coordinates (Angstroms)
 Number     Number       Type             X           Y           Z
 ---------------------------------------------------------------------
      1          9           0        1.829292    0.000018   -0.000020
      2          6           0       -0.000044   -0.000026    0.000031
      3          1           0        0.000058   -0.395112    1.013076
      4          1           0        0.000126    1.074820   -0.164374
      5          1           0        0.000010   -0.679938   -0.848534
      6          9           0       -1.829284    0.000025   -0.000019
 ---------------------------------------------------------------------

 SCF Done:  E(RB-P86) =  -239.518858292     A.U. after    1 cycles

 The electronic state is 1-A.
 Alpha  occ. eigenvalues --  -23.89696 -23.89690  -9.72819  -0.66706  -0.66123
 Alpha  occ. eigenvalues --   -0.37379  -0.15978  -0.15975  -0.06172   0.03295
 Alpha  occ. eigenvalues --    0.03295   0.03896   0.04684   0.04684
 Alpha virt. eigenvalues --    0.27563   0.29483   0.35132   0.35134   0.74738
 Alpha virt. eigenvalues --    0.74741   0.81786   0.97176   1.05786   1.05790
 Alpha virt. eigenvalues --    1.29004   1.36925   1.36925   1.49748   1.50248

 Mulliken charges:
               1
     1  F   -0.604248
     2  C   -0.144634
     3  H    0.117682
     4  H    0.117697
     5  H    0.117689
     6  F   -0.604185
 Sum of Mulliken charges =  -1.00000

 Dipole moment (field-independent basis, Debye):
    X=             -0.0006    Y=             -0.0001    Z=              0.0001  Tot=              0.0006
 Quadrupole moment (field-independent basis, Debye-Ang):
   XX=            -37.5467   YY=            -17.6929   ZZ=            -17.6933
   XY=              0.0001   XZ=              0.0000   YZ=              0.0000

  Exact polarizability:  31.682   0.000  15.315   0.000   0.000  15.315
 Approx polarizability:  70.947   0.001  20.925   0.000  -0.000  20.924

 ******    1 imaginary frequencies (negative Signs) ******

                      1                      2                      3
                      A                      A                      A
 Frequencies --   -439.7898               309.8941               310.0228
 Red. masses --      9.0472                 4.3389                 4.3391
 Frc consts  --      1.0310                 0.2455                 0.2457
 IR Inten    --    568.0715                13.2532                13.2544

                      4                      5                      6
                      A                      A                      A
 Frequencies --    342.6830               923.3675               923.4492
 Red. masses --     18.9625                 1.0212                 1.0212
 Frc consts  --      1.3120                 0.5130                 0.5131
 IR Inten    --      0.0000                 0.0000                 0.0000

                      7                      8                      9
                      A                      A                      A
 Frequencies --   1036.9036              1332.2862              1332.3678
 Red. masses --      1.1056                 1.1232                 1.1232
 Frc consts  --      0.7003                 1.1747                 1.1748
 IR Inten    --      3.7864                 1.6560                 1.6536

                     10                     11                     12
                      A                      A                      A
 Frequencies --   3041.7031              3224.7469              3224.9053
 Red. masses --      1.0079                 1.1280                 1.1280
 Frc consts  --      5.4943                 6.9111                 6.9118
 IR Inten    --      0.0000                62.2423                62.2194

 - Thermochemistry -
 -------------------
 Temperature   298.150 Kelvin.  Pressure   1.00000 Atm.
 Atom     1 has atomic number  9 and mass  18.99840

 Molecular mass:    53.02028 amu.
 Principal axes and moments of inertia in atomic units:
                           1         2         3
     Eigenvalues --    12.76575 460.43777 460.43890
           X            1.00000   0.00000   0.00000
           Y           -0.00000   1.00000   0.00004
           Z           -0.00000  -0.00004   1.00000
 This molecule is an asymmetric top.
 Rotational symmetry number  1.
 Rotational temperatures (Kelvin)      6.78487     0.18811     0.18811
 Rotational constants (GHZ):         141.37365     3.91962     3.91961
    1 imaginary frequencies ignored.
 Zero-point vibrational energy      95715.2 (Joules/Mol)
                                   22.87648 (Kcal/Mol)
 Warning -- explicit consideration of   3 degrees of freedom as
           vibrations may cause significant error
 Vibrational temperatures:    445.87   446.05   493.04  1328.52  1328.64
          (Kelvin)           1491.87  1916.86  1916.98  4376.33  4639.69
                             4639.92

 Zero-point correction=                           0.036456 (Hartree/Particle)
 Thermal correction to Energy=                    0.040624
 Thermal correction to Enthalpy=                  0.041568
 Thermal correction to Gibbs Free Energy=         0.010849
 Sum of electronic and zero-point Energies=           -239.482402
 Sum of electronic and thermal Energies=              -239.478234
 Sum of electronic and thermal Enthalpies=            -239.477290
 Sum of electronic and thermal Free Energies=         -239.508009

                     E (Thermal)             CV                S
                      KCal/Mol        Cal/Mol-Kelvin    Cal/Mol-Kelvin
 Total                   25.492             12.404             64.653
 Electronic               0.000              0.000              0.000
 Translational            0.889              2.981             37.827
 Rotational               0.889              2.981             22.519
 Vibrational             23.715              6.442              4.307
 Vibration     1          0.699              1.655              1.363
 Vibration     2          0.699              1.655              1.362
 Vibration     3          0.722              1.590              1.200

 Optimization completed.
    -- Stationary point found.
 Normal termination of Gaussian 16 at Wed Oct  7 14:09:43 2020.
