 Gaussian 16, Revision A.03,

 ----------------------------------------------------------------------
 #P Opt(TS,MaxCyc=50,NoEigenTest,MaxStep=10,AddRedundant) BP86/6-31G* 5
 D 7F Integral=UltraFineGrid SCF=(NoSymm,XQC,MaxCyc=120) EmpiricalDispe
 rsion=GD3BJ IOp(1/33=1)
 ----------------------------------------------------------------------

 TstMul:  Mul=     1
 TstMul:  ICh=    -1
 TstMul:  Mul=     1
 Symbolic Z-matrix:
 Charge = -1 Multiplicity = 1

 SCF Done:  E(RB-P86) =  -599.961406509     A.U. after   14 cycles
 SCF Done:  E(RB-P86) =  -599.961431721     A.U. after    8 cycles
 SCF Done:  E(RB-P86) =  -599.961447849     A.U. after   11 cycles
 SCF Done:  E(RB-P86) =  -599.962188291     A.U. after   13 cycles
 SCF Done:  E(RB-P86) =  -599.962367884     A.U. after   13 cycles
 SCF Done:  E(RB-P86) =  -599.962526231     A.U. after   13 cycles
 SCF Done:  E(RB-P86) =  -599.963197122     A.U. after   12 cycles
 SCF Done:  E(RB-P86) =  -599.961607081     A.U. after   13 cycles
 SCF Done:  E(RB-P86) =  -599.960167813     A.U. after   13 cycles
 SCF Done:  E(RB-P86) =  -599.958851245     A.U. after   13 cycles
 SCF Done:  E(RB-P86) =  -599.953859690     A.U. after   12 cycles
 SCF Done:  E(RB-P86) =  -599.954095837     A.U. after   12 cycles
 SCF Done:  E(RB-P86) =  -599.954282597     A.U. after   12 cycles
 SCF Done:  E(RB-P86) =  -599.954427272     A.U. after   12 cycles
 SCF Done:  E(RB-P86) =  -599.954530546     A.U. after   12 cycles
 SCF Done:  E(RB-P86) =  -599.954597546     A.U. after   11 cycles
 SCF Done:  E(RB-P86) =  -599.954632967     A.U. after   12 cycles
 SCF Done:  E(RB-P86) =  -599.954645527     A.U. after   12 cycles
 SCF Done:  E(RB-P86) =  -599.954646520     A.U. after    9 cycles
 Optimization completed.
    -- Stationary point found.
 Normal termination of Gaussian 16 at Wed Oct  7 14:16:17 2020.
 Gaussian 16:  ES64L-G16RevA.03 25-Dec-2016

 ----------------------------------------------------------------------
 #P Freq BP86/6-31G* 5D 7F Integral=UltraFineGrid SCF=(NoSymm,XQC,MaxCy
 c=120) EmpiricalDispersion=GD3BJ IOp(1/33=1) Geom=Check Guess=Read
 ----------------------------------------------------------------------

 TstMul:  Mul=     1
 TstMul:  ICh=    -1
 TstMul:  Mul=     1
 Structure from the checkpoint file:  "MN_37_fch3clts_BH76_BP86DBJ_631Gs.chk"
 Charge = -1 Multiplicity = 1

                         Standard orientation:
 ---------------------------------------------------------------------
 Center     Atomic      Atomic             Coordinates (Angstroms)
 Number     Number       Type             X           Y           Z
 ---------------------------------------------------------------------
      1          6           0        0.334175   -0.336810    0.000046
      2          9           0        2.640344    0.169479   -0.000000
      3         17           0       -1.628758    0.111967   -0.000005
      4          1           0        1.087408    0.499184   -0.000913
      5          1           0        0.416392   -0.954226   -0.904558
      6          1           0        0.416929   -0.952850    0.905279
 ---------------------------------------------------------------------

 SCF Done:  E(RB-P86) =  -599.954646520     A.U. after    1 cycles

 The electronic state is 1-A.
 Alpha  occ. eigenvalues -- -100.50471 -23.88308  -9.74589  -8.96623  -6.78927
 Alpha  occ. eigenvalues --   -6.78125  -6.78122  -0.64135  -0.53717  -0.40646
 Alpha  occ. eigenvalues --   -0.18735  -0.17178  -0.14332  -0.06808  -0.06686
 Alpha  occ. eigenvalues --    0.04034   0.04477   0.05048
 Alpha virt. eigenvalues --    0.15633   0.26980   0.30986   0.38477   0.53434
 Alpha virt. eigenvalues --    0.59226   0.59909   0.62918   0.69300   0.70044
 Alpha virt. eigenvalues --    0.81459   0.96647   0.99116   1.00658   1.03168

 Mulliken charges:
               1
     1  C   -0.520906
     2  F   -0.635810
     3  Cl  -0.404181
     4  H    0.263370
     5  H    0.148700
     6  H    0.148828
 Sum of Mulliken charges =  -1.00000

 Dipole moment (field-independent basis, Debye):
    X=             -3.7599    Y=             -1.0474    Z=              0.0003  Tot=              3.9031
 Quadrupole moment (field-independent basis, Debye-Ang):
   XX=            -54.5221   YY=            -26.9987   ZZ=            -26.7038
   XY=             -0.9476   XZ=              0.0003   YZ=             -0.0004

  Exact polarizability:  65.864  -0.713  19.594   0.001   0.002  19.705
 Approx polarizability: 174.879   1.012  28.162   0.005   0.003  28.331

 ******    1 imaginary frequencies (negative Signs) ******

                      1                      2                      3
                      A                      A                      A
 Frequencies --   -157.7917               221.8786               278.5678
 Red. masses --      2.7583                 1.7215                16.3896
 Frc consts  --      0.0405                 0.0499                 0.7493
 IR Inten    --     50.8993                 0.9902                 3.8996

                      4                      5                      6
                      A                      A                      A
 Frequencies --    375.2422               656.6946               920.5086
 Red. masses --      7.2592                 1.3063                 1.0884
 Frc consts  --      0.6022                 0.3319                 0.5434
 IR Inten    --    203.7538               211.1050                 0.6239

                      7                      8                      9
                      A                      A                      A
 Frequencies --   1141.7636              1397.4592              1412.6672
 Red. masses --      1.0815                 1.0661                 1.0775
 Frc consts  --      0.8307                 1.2267                 1.2670
 IR Inten    --      8.0580                 6.0133                 7.2679

                     10                     11                     12
                      A                      A                      A
 Frequencies --   2795.9638              3073.9992              3140.7421
 Red. masses --      1.0546                 1.0753                 1.1105
 Frc consts  --      4.8576                 5.9869                 6.4538
 IR Inten    --     98.5675                28.6558                42.4679

 - Thermochemistry -
 -------------------
 Temperature   298.150 Kelvin.  Pressure   1.00000 Atm.
 Atom     1 has atomic number  6 and mass  12.00000

 Molecular mass:    68.99073 amu.
 Principal axes and moments of inertia in atomic units:
                           1         2         3
     Eigenvalues --    21.56149 820.40258 830.17548
           X            1.00000  -0.00242  -0.00000
           Y            0.00242   1.00000   0.00004
           Z            0.00000  -0.00004   1.00000
 This molecule is an asymmetric top.
 Rotational symmetry number  1.
 Rotational temperatures (Kelvin)      4.01707     0.10557     0.10433
 Rotational constants (GHZ):          83.70207     2.19982     2.17393
    1 imaginary frequencies ignored.
 Zero-point vibrational energy      92205.1 (Joules/Mol)
                                   22.03755 (Kcal/Mol)
 Warning -- explicit consideration of   3 degrees of freedom as
           vibrations may cause significant error
 Vibrational temperatures:    319.23   400.80   539.89   944.84  1324.41
          (Kelvin)           1642.74  2010.63  2032.51  4022.77  4422.80
                             4518.83

 Zero-point correction=                           0.035119 (Hartree/Particle)
 Thermal correction to Energy=                    0.039478
 Thermal correction to Enthalpy=                  0.040422
 Thermal correction to Gibbs Free Energy=         0.008144
 Sum of electronic and zero-point Energies=           -599.919527
 Sum of electronic and thermal Energies=              -599.915169
 Sum of electronic and thermal Enthalpies=            -599.914225
 Sum of electronic and thermal Free Energies=         -599.946502

                     E (Thermal)             CV                S
                      KCal/Mol        Cal/Mol-Kelvin    Cal/Mol-Kelvin
 Total                   24.773             12.847             67.934
 Electronic               0.000              0.000              0.000
 Translational            0.889              2.981             38.612
 Rotational               0.889              2.981             24.200
 Vibrational             22.995              6.886              5.123
 Vibration     1          0.648              1.808              1.944
 Vibration     2          0.679              1.713              1.542
 Vibration     3          0.746              1.523              1.058

                           ! Non-Optimized Parameters !
 Normal termination of Gaussian 16 at Wed Oct  7 14:16:46 2020.
