 Gaussian 16, Revision A.03,
 Gaussian 16:  ES64L-G16RevA.03 25-Dec-2016

 ----------------------------------------------------------------------
 #P Opt(MaxCyc=100) BP86/6-31G* 5D 7F Integral=UltraFineGrid SCF=(NoSym
 m,XQC,MaxCyc=120) EmpiricalDispersion=GD3BJ IOp(1/33=1)
 ----------------------------------------------------------------------

 TstMul:  Mul=     1
 TstMul:  ICh=    -1
 TstMul:  Mul=     1
 Symbolic Z-matrix:
 Charge = -1 Multiplicity = 1

 SCF Done:  E(RB-P86) =  -239.524363351     A.U. after   16 cycles
 SCF Done:  E(RB-P86) =  -239.526716160     A.U. after   12 cycles
 SCF Done:  E(RB-P86) =  -239.527849328     A.U. after   12 cycles
 SCF Done:  E(RB-P86) =  -239.528503769     A.U. after   12 cycles
 SCF Done:  E(RB-P86) =  -239.528616682     A.U. after   11 cycles
 SCF Done:  E(RB-P86) =  -239.528656386     A.U. after    9 cycles
 SCF Done:  E(RB-P86) =  -239.528658250     A.U. after    8 cycles
 SCF Done:  E(RB-P86) =  -239.528659215     A.U. after    8 cycles
 Optimization completed.
    -- Stationary point found.

                         Standard orientation:
 ---------------------------------------------------------------------
 Center     Atomic      Atomic             Coordinates (Angstroms)
 Number     Number       Type             X           Y           Z
 ---------------------------------------------------------------------
      1          9           0        0.000000    0.000000   -1.812983
      2          6           0        0.000000    0.000000   -0.333641
      3          1           0       -0.000000    1.028813    0.046246
      4          1           0       -0.890978   -0.514406    0.046246
      5          1           0        0.890978   -0.514406    0.046246
      6          9           0        0.000000    0.000000    2.019996
 ---------------------------------------------------------------------

 The electronic state is 1-A1.
 Alpha  occ. eigenvalues --  -24.03687 -23.80023  -9.73750  -0.82734  -0.56097
 Alpha  occ. eigenvalues --   -0.39435  -0.18591  -0.17755  -0.17755  -0.06290
 Alpha  occ. eigenvalues --   -0.06290   0.11117   0.12190   0.12190
 Alpha virt. eigenvalues --    0.28905   0.31080   0.35658   0.35658   0.72475
 Alpha virt. eigenvalues --    0.72475   0.73333   1.02119   1.02119   1.05939
 Alpha virt. eigenvalues --    1.19776   1.38653   1.38653   1.39056   1.52824

 Mulliken charges:
               1
     1  F   -0.413557
     2  C   -0.201833
     3  H    0.122451
     4  H    0.122451
     5  H    0.122451
     6  F   -0.751963
 Sum of Mulliken charges =  -1.00000

 Dipole moment (field-independent basis, Debye):
    X=             -0.0000    Y=             -0.0000    Z=             -4.4669  Tot=              4.4669
 Quadrupole moment (field-independent basis, Debye-Ang):
   XX=            -18.0058   YY=            -18.0058   ZZ=            -39.0588
   XY=             -0.0000   XZ=             -0.0000   YZ=              0.0000

 Normal termination of Gaussian 16 at Wed Oct  7 14:09:53 2020.
