 Gaussian 16, Revision A.03,
 Gaussian 16:  ES64L-G16RevA.03 25-Dec-2016

 ----------------------------------------------------------------------
 #P Opt(MaxCyc=100) BP86/6-31G* 5D 7F Integral=UltraFineGrid SCF=(NoSym
 m,XQC,MaxCyc=120) EmpiricalDispersion=GD3BJ IOp(1/33=1)
 ----------------------------------------------------------------------

 TstMul:  Mul=     1
 TstMul:  ICh=    -1
 TstMul:  Mul=     1
 Symbolic Z-matrix:
 Charge = -1 Multiplicity = 1

 SCF Done:  E(RB-P86) =  -600.018850546     A.U. after   12 cycles
 SCF Done:  E(RB-P86) =  -600.019753029     A.U. after   11 cycles
 SCF Done:  E(RB-P86) =  -600.019804468     A.U. after   10 cycles
 SCF Done:  E(RB-P86) =  -600.019853544     A.U. after   10 cycles
 SCF Done:  E(RB-P86) =  -600.019859788     A.U. after    8 cycles
 SCF Done:  E(RB-P86) =  -600.019860948     A.U. after    7 cycles
 Optimization completed.
    -- Stationary point found.

                         Standard orientation:
 ---------------------------------------------------------------------
 Center     Atomic      Atomic             Coordinates (Angstroms)
 Number     Number       Type             X           Y           Z
 ---------------------------------------------------------------------
      1          9           0        0.000000    0.000000   -2.630051
      2          6           0        0.000000    0.000000   -1.208419
      3          1           0       -0.000000    1.033116   -0.826132
      4          1           0       -0.894705   -0.516558   -0.826132
      5          1           0        0.894705   -0.516558   -0.826132
      6         17           0        0.000000    0.000000    1.964669
 ---------------------------------------------------------------------

 The electronic state is 1-A1.
 Alpha  occ. eigenvalues -- -100.39020 -24.10855  -9.80184  -8.84801  -6.66642
 Alpha  occ. eigenvalues --   -6.66588  -6.66588  -0.90948  -0.45924  -0.39233
 Alpha  occ. eigenvalues --   -0.26066  -0.24649  -0.24649  -0.12181  -0.12181
 Alpha  occ. eigenvalues --    0.02439   0.02717   0.02717
 Alpha virt. eigenvalues --    0.23457   0.26479   0.30312   0.30312   0.57544
 Alpha virt. eigenvalues --    0.65219   0.65945   0.65945   0.69491   0.69491
 Alpha virt. eigenvalues --    0.77653   0.96549   0.96549   1.04692   1.08658

 Mulliken charges:
               1
     1  F   -0.366064
     2  C   -0.160528
     3  H    0.155711
     4  H    0.155711
     5  H    0.155711
     6  Cl  -0.940541
 Sum of Mulliken charges =  -1.00000

 Dipole moment (field-independent basis, Debye):
    X=             -0.0000    Y=              0.0000    Z=             -6.2823  Tot=              6.2823
 Quadrupole moment (field-independent basis, Debye-Ang):
   XX=            -27.3840   YY=            -27.3840   ZZ=            -53.5077
   XY=             -0.0000   XZ=              0.0000   YZ=             -0.0000

 Normal termination of Gaussian 16 at Wed Oct  7 14:08:46 2020.
