 Gaussian 16, Revision A.03,
 Gaussian 16:  ES64L-G16RevA.03 25-Dec-2016

 ----------------------------------------------------------------------
 #P BP86/6-31G* 5D 7F Integral=UltraFineGrid SCF=(NoSymm,XQC,MaxCyc=120
 ) EmpiricalDispersion=GD3BJ IOp(1/33=1)
 ----------------------------------------------------------------------

 TstMul:  Mul=     2
 TstMul:  ICh=     0
 TstMul:  Mul=     2
 Symbolic Z-matrix:
 Charge =  0 Multiplicity = 2

                         Standard orientation:
 ---------------------------------------------------------------------
 Center     Atomic      Atomic             Coordinates (Angstroms)
 Number     Number       Type             X           Y           Z
 ---------------------------------------------------------------------
      1         17           0        0.000000    0.000000    0.000000
 ---------------------------------------------------------------------

 SCF Done:  E(UB-P86) =  -460.156041235     A.U. after  121 cycles
 SCF Done:  E(UB-P86) =  -460.156041399     a.u. after   18 cycles

 Unable to determine electronic state:  an orbital has unidentified symmetry.
 Alpha  occ. eigenvalues -- -100.77047  -9.23084  -7.06544  -7.04188  -7.04188
 Alpha  occ. eigenvalues --   -0.76985  -0.36538  -0.31053  -0.31053
 Alpha virt. eigenvalues --    0.29188   0.36214   0.39166   0.39166   0.71490
 Alpha virt. eigenvalues --    0.72891   0.72891   0.77626   0.77626
  Beta  occ. eigenvalues -- -100.76488  -9.22527  -7.04959  -7.03848  -7.03848
  Beta  occ. eigenvalues --   -0.72916  -0.29586  -0.29586
  Beta virt. eigenvalues --   -0.28746   0.31313   0.39979   0.39979   0.40677
  Beta virt. eigenvalues --    0.78418   0.78418   0.78540   0.78540   0.79961

 Mulliken charges and spin densities:
               1          2
     1  Cl   0.000000   1.000000
 Sum of Mulliken charges =   0.00000   1.00000

 Dipole moment (field-independent basis, Debye):
    X=             -0.0000    Y=              0.0000    Z=              0.0000  Tot=              0.0000
 Quadrupole moment (field-independent basis, Debye-Ang):
   XX=            -12.9351   YY=            -12.9319   ZZ=            -10.7522
   XY=              0.0000   XZ=             -0.0000   YZ=             -0.0841

 Normal termination of Gaussian 16 at Thu Oct  8 19:00:11 2020.
