 Gaussian 16, Revision A.03,
 Gaussian 16:  ES64L-G16RevA.03 25-Dec-2016

 ----------------------------------------------------------------------
 #P Opt(MaxCyc=100) BP86/6-31G* 5D 7F Integral=UltraFineGrid SCF=(NoSym
 m,XQC,MaxCyc=120) EmpiricalDispersion=GD3BJ IOp(1/33=1)
 ----------------------------------------------------------------------

 TstMul:  Mul=     1
 TstMul:  ICh=    -1
 TstMul:  Mul=     1
 Symbolic Z-matrix:
 Charge = -1 Multiplicity = 1

 SCF Done:  E(RB-P86) =  -599.945395447     A.U. after   19 cycles
 SCF Done:  E(RB-P86) =  -599.950085458     A.U. after   15 cycles
 SCF Done:  E(RB-P86) =  -599.954085538     A.U. after   14 cycles
 SCF Done:  E(RB-P86) =  -599.955943137     A.U. after   14 cycles
 SCF Done:  E(RB-P86) =  -599.959634532     A.U. after   12 cycles
 SCF Done:  E(RB-P86) =  -599.975012683     A.U. after   14 cycles
 SCF Done:  E(RB-P86) =  -599.992026404     A.U. after   14 cycles
 SCF Done:  E(RB-P86) =  -600.006607470     A.U. after   13 cycles
 SCF Done:  E(RB-P86) =  -600.015632446     A.U. after   12 cycles
 SCF Done:  E(RB-P86) =  -600.018219403     A.U. after   11 cycles
 SCF Done:  E(RB-P86) =  -600.019364403     A.U. after   10 cycles
 SCF Done:  E(RB-P86) =  -600.019819171     A.U. after   10 cycles
 SCF Done:  E(RB-P86) =  -600.019848382     A.U. after   10 cycles
 SCF Done:  E(RB-P86) =  -600.019860699     A.U. after    8 cycles
 SCF Done:  E(RB-P86) =  -600.019861279     A.U. after    7 cycles
 Optimization completed.
    -- Stationary point found.

                         Standard orientation:
 ---------------------------------------------------------------------
 Center     Atomic      Atomic             Coordinates (Angstroms)
 Number     Number       Type             X           Y           Z
 ---------------------------------------------------------------------
      1         17           0        0.000000    0.000000    1.964457
      2          6           0        0.000000    0.000000   -1.207740
      3          1           0        0.000000    1.033380   -0.826135
      4          1           0        0.894933   -0.516690   -0.826135
      5          1           0       -0.894933   -0.516690   -0.826135
      6          9           0        0.000000    0.000000   -2.630103
 ---------------------------------------------------------------------

 The electronic state is 1-A1.
 Alpha  occ. eigenvalues -- -100.39023 -24.10836  -9.80188  -8.84804  -6.66645
 Alpha  occ. eigenvalues --   -6.66591  -6.66591  -0.90912  -0.45922  -0.39236
 Alpha  occ. eigenvalues --   -0.26039  -0.24638  -0.24638  -0.12177  -0.12177
 Alpha  occ. eigenvalues --    0.02436   0.02714   0.02714
 Alpha virt. eigenvalues --    0.23435   0.26467   0.30308   0.30308   0.57538
 Alpha virt. eigenvalues --    0.65222   0.65943   0.65943   0.69495   0.69495
 Alpha virt. eigenvalues --    0.77657   0.96555   0.96555   1.04665   1.08644

 Mulliken charges:
               1
     1  Cl  -0.940464
     2  C   -0.160428
     3  H    0.155782
     4  H    0.155782
     5  H    0.155782
     6  F   -0.366453
 Sum of Mulliken charges =  -1.00000

 Dipole moment (field-independent basis, Debye):
    X=              0.0000    Y=             -0.0000    Z=             -6.2771  Tot=              6.2771
 Quadrupole moment (field-independent basis, Debye-Ang):
   XX=            -27.3823   YY=            -27.3823   ZZ=            -53.5154
   XY=             -0.0000   XZ=             -0.0000   YZ=              0.0000

 Normal termination of Gaussian 16 at Wed Oct  7 14:10:50 2020.
