 Gaussian 16, Revision A.03,
 Gaussian 16:  ES64L-G16RevA.03 25-Dec-2016

 ----------------------------------------------------------------------
 #P Opt(MaxCyc=100) BP86/6-31G* 5D 7F Integral=UltraFineGrid SCF=(NoSym
 m,XQC,MaxCyc=120) EmpiricalDispersion=GD3BJ IOp(1/33=1)
 ----------------------------------------------------------------------

 TstMul:  Mul=     1
 TstMul:  ICh=     0
 TstMul:  Mul=     1
 Symbolic Z-matrix:
 Charge =  0 Multiplicity = 1

 SCF Done:  E(RB-P86) =  -93.4186763994     A.U. after   10 cycles
 SCF Done:  E(RB-P86) =  -93.4194026238     A.U. after   10 cycles
 SCF Done:  E(RB-P86) =  -93.4194045631     A.U. after    7 cycles
 Optimization completed.
    -- Stationary point found.

                         Standard orientation:
 ---------------------------------------------------------------------
 Center     Atomic      Atomic             Coordinates (Angstroms)
 Number     Number       Type             X           Y           Z
 ---------------------------------------------------------------------
      1          6           0        0.000000    0.000000   -0.507695
      2          7           0        0.000000    0.000000    0.661889
      3          1           0        0.000000    0.000000   -1.587051
 ---------------------------------------------------------------------

 The electronic state is 1-SG.
 Alpha  occ. eigenvalues --  -14.04499  -9.96672  -0.83475  -0.55227  -0.32740
 Alpha  occ. eigenvalues --   -0.31900  -0.31900
 Alpha virt. eigenvalues --   -0.02256  -0.02256   0.05122   0.25583   0.48189
 Alpha virt. eigenvalues --    0.48189   0.60544   0.64481   0.71883   0.71883
 Alpha virt. eigenvalues --    0.77117   1.00319   1.42073   1.44112   1.44112

 Mulliken charges:
               1
     1  C    0.013977
     2  N   -0.265483
     3  H    0.251506
 Sum of Mulliken charges =  -0.00000

 Dipole moment (field-independent basis, Debye):
    X=              0.0000    Y=              0.0000    Z=             -2.8276  Tot=              2.8276
 Quadrupole moment (field-independent basis, Debye-Ang):
   XX=            -11.4187   YY=            -11.4187   ZZ=             -9.5041
   XY=              0.0000   XZ=              0.0000   YZ=              0.0000

 Normal termination of Gaussian 16 at Wed Oct  7 14:09:28 2020.
