 Gaussian 16, Revision A.03,
 Gaussian 16:  ES64L-G16RevA.03 25-Dec-2016

 ----------------------------------------------------------------------
 #P Opt(MaxCyc=100) BP86/6-31G* 5D 7F Integral=UltraFineGrid SCF=(NoSym
 m,XQC,MaxCyc=120) EmpiricalDispersion=GD3BJ IOp(1/33=1)
 ----------------------------------------------------------------------

 TstMul:  Mul=     1
 TstMul:  ICh=     0
 TstMul:  Mul=     1
 Symbolic Z-matrix:
 Charge =  0 Multiplicity = 1

 SCF Done:  E(RB-P86) =  -76.4070154641     A.U. after   10 cycles
 SCF Done:  E(RB-P86) =  -76.4077458200     A.U. after    9 cycles
 SCF Done:  E(RB-P86) =  -76.4077701867     A.U. after    7 cycles
 Optimization completed.
    -- Stationary point found.

                         Standard orientation:
 ---------------------------------------------------------------------
 Center     Atomic      Atomic             Coordinates (Angstroms)
 Number     Number       Type             X           Y           Z
 ---------------------------------------------------------------------
      1          8           0        0.000000    0.000000    0.121625
      2          1           0        0.000000    0.765440   -0.486502
      3          1           0       -0.000000   -0.765440   -0.486502
 ---------------------------------------------------------------------

 The electronic state is 1-A1.
 Alpha  occ. eigenvalues --  -18.77339  -0.90653  -0.46052  -0.31591  -0.23126
 Alpha virt. eigenvalues --    0.04338   0.12361   0.72217   0.79690   0.83460
 Alpha virt. eigenvalues --    0.88292   1.00412   1.32205   1.65768   1.67681
 Alpha virt. eigenvalues --    1.70948   2.19889   2.47864

 Mulliken charges:
               1
     1  O   -0.782493
     2  H    0.391247
     3  H    0.391247
 Sum of Mulliken charges =   0.00000

 Dipole moment (field-independent basis, Debye):
    X=             -0.0000    Y=              0.0000    Z=             -2.0811  Tot=              2.0811
 Quadrupole moment (field-independent basis, Debye-Ang):
   XX=             -7.2343   YY=             -4.2961   ZZ=             -5.9638
   XY=              0.0000   XZ=              0.0000   YZ=             -0.0000

 Normal termination of Gaussian 16 at Wed Oct  7 14:08:24 2020.
