 Gaussian 16, Revision A.03,

 ----------------------------------------------------------------------
 #P Opt(TS,MaxCyc=50,NoEigenTest,MaxStep=10,AddRedundant) BP86/6-31G* 5
 D 7F Integral=UltraFineGrid SCF=(NoSymm,XQC,MaxCyc=120) EmpiricalDispe
 rsion=GD3BJ IOp(1/33=1)
 ----------------------------------------------------------------------

 TstMul:  Mul=     1
 TstMul:  ICh=     0
 TstMul:  Mul=     1
 Symbolic Z-matrix:
 Charge =  0 Multiplicity = 1

 SCF Done:  E(RB-P86) =  -93.3419435712     A.U. after   13 cycles
 SCF Done:  E(RB-P86) =  -93.3421255708     A.U. after   11 cycles
 SCF Done:  E(RB-P86) =  -93.3421452781     A.U. after   11 cycles
 SCF Done:  E(RB-P86) =  -93.3421392249     A.U. after    8 cycles
 Optimization completed.
    -- Stationary point found.
 Normal termination of Gaussian 16 at Wed Oct  7 14:09:05 2020.
 Gaussian 16:  ES64L-G16RevA.03 25-Dec-2016

 ----------------------------------------------------------------------
 #P Freq BP86/6-31G* 5D 7F Integral=UltraFineGrid SCF=(NoSymm,XQC,MaxCy
 c=120) EmpiricalDispersion=GD3BJ IOp(1/33=1) Geom=Check Guess=Read
 ----------------------------------------------------------------------

 TstMul:  Mul=     1
 TstMul:  ICh=     0
 TstMul:  Mul=     1
 Structure from the checkpoint file:  "MN_49_hcnts_BH76_BP86DBJ_631Gs.chk"
 Charge =  0 Multiplicity = 1

                         Standard orientation:
 ---------------------------------------------------------------------
 Center     Atomic      Atomic             Coordinates (Angstroms)
 Number     Number       Type             X           Y           Z
 ---------------------------------------------------------------------
      1          6           0        0.080671    0.633469    0.000000
      2          7           0        0.080671   -0.571535    0.000000
      3          1           0       -1.048729    0.199932    0.000000
 ---------------------------------------------------------------------

 SCF Done:  E(RB-P86) =  -93.3421392249     A.U. after    1 cycles

 The electronic state is 1-A'.
 Alpha  occ. eigenvalues --  -14.08921  -9.97569  -0.90448  -0.47564  -0.40472
 Alpha  occ. eigenvalues --   -0.34190  -0.28746
 Alpha virt. eigenvalues --   -0.09574  -0.03415   0.02323   0.28877   0.48561
 Alpha virt. eigenvalues --    0.49026   0.52698   0.61908   0.64919   0.68768
 Alpha virt. eigenvalues --    0.72025   0.76883   1.19381   1.40470   1.41668

 Mulliken charges:
               1
     1  C   -0.048993
     2  N   -0.218303
     3  H    0.267296
 Sum of Mulliken charges =  -0.00000

 Dipole moment (field-independent basis, Debye):
    X=             -1.2260    Y=              0.0888    Z=              0.0000  Tot=              1.2292
 Quadrupole moment (field-independent basis, Debye-Ang):
   XX=             -9.4850   YY=            -14.1148   ZZ=            -11.8348
   XY=             -0.2024   XZ=              0.0000   YZ=              0.0000

  Exact polarizability:  13.305   0.387  17.817   0.000   0.000   8.729
 Approx polarizability:  23.312   2.056  44.570   0.000   0.000  13.820

 ******    1 imaginary frequencies (negative Signs) ******

                      1                      2                      3
                     A'                     A'                     A'
 Frequencies --  -1098.0248              1976.2236              2517.6680
 Red. masses --      1.1641                11.8375                 1.0585
 Frc consts  --      0.8269                27.2384                 3.9530
 IR Inten    --     62.4710                10.0167                99.9368

 - Thermochemistry -
 -------------------
 Temperature   298.150 Kelvin.  Pressure   1.00000 Atm.
 Atom     1 has atomic number  6 and mass  12.00000

 Molecular mass:    27.01090 amu.
 Principal axes and moments of inertia in atomic units:
                           1         2         3
     Eigenvalues --     4.39515  33.69351  38.08866
           X           -0.02878   0.99959   0.00000
           Y            0.99959   0.02878   0.00000
           Z            0.00000   0.00000   1.00000
 This molecule is an asymmetric top.
 Rotational symmetry number  1.
 Rotational temperatures (Kelvin)     19.70671     2.57064     2.27401
 Rotational constants (GHZ):         410.62118    53.56347    47.38264
    1 imaginary frequencies ignored.
 Zero-point vibrational energy      26879.4 (Joules/Mol)
                                    6.42434 (Kcal/Mol)
 Vibrational temperatures:   2843.35  3622.36
          (Kelvin)

 Zero-point correction=                           0.010238 (Hartree/Particle)
 Thermal correction to Energy=                    0.013071
 Thermal correction to Enthalpy=                  0.014015
 Thermal correction to Gibbs Free Energy=        -0.010788
 Sum of electronic and zero-point Energies=            -93.331901
 Sum of electronic and thermal Energies=               -93.329068
 Sum of electronic and thermal Enthalpies=             -93.328124
 Sum of electronic and thermal Free Energies=          -93.352927

                     E (Thermal)             CV                S
                      KCal/Mol        Cal/Mol-Kelvin    Cal/Mol-Kelvin
 Total                    8.202              5.976             52.203
 Electronic               0.000              0.000              0.000
 Translational            0.889              2.981             35.816
 Rotational               0.889              2.981             16.385
 Vibrational              6.425              0.015              0.002

 Optimization completed.
    -- Stationary point found.
 Normal termination of Gaussian 16 at Wed Oct  7 14:09:29 2020.
