 Gaussian 16, Revision A.03,
 Gaussian 16:  ES64L-G16RevA.03 25-Dec-2016

 ----------------------------------------------------------------------
 #P BP86/6-31G* 5D 7F Integral=UltraFineGrid SCF=(NoSymm,XQC,MaxCyc=120
 ) EmpiricalDispersion=GD3BJ IOp(1/33=1) Stable=Opt
 ----------------------------------------------------------------------

 TstMul:  Mul=     2
 TstMul:  ICh=     0
 TstMul:  Mul=     2
 Symbolic Z-matrix:
 Charge =  0 Multiplicity = 2

                         Standard orientation:
 ---------------------------------------------------------------------
 Center     Atomic      Atomic             Coordinates (Angstroms)
 Number     Number       Type             X           Y           Z
 ---------------------------------------------------------------------
      1          9           0        0.000000    0.000000    0.000000
 ---------------------------------------------------------------------

 SCF Done:  E(UB-P86) =  -99.7058888180     A.U. after    9 cycles

 Unable to determine electronic state:  an orbital has unidentified symmetry.
 Alpha  occ. eigenvalues --  -24.36978  -1.09354  -0.46141  -0.37151  -0.37151
 Alpha virt. eigenvalues --    1.01620   1.07300   1.07300   1.21714   1.69549
 Alpha virt. eigenvalues --    1.71005   1.71005   1.75864   1.75864
  Beta  occ. eigenvalues --  -24.34201  -1.02318  -0.34382  -0.34382
  Beta virt. eigenvalues --   -0.31120   1.09182   1.09182   1.12477   1.26656
  Beta virt. eigenvalues --    1.76617   1.76617   1.76683   1.76683   1.78497

 Mulliken charges and spin densities:
               1          2
     1  F    0.000000   1.000000
 Sum of Mulliken charges =   0.00000   1.00000

 Dipole moment (field-independent basis, Debye):
    X=             -0.0000    Y=              0.0000    Z=             -0.0000  Tot=              0.0000
 Quadrupole moment (field-independent basis, Debye-Ang):
   XX=             -4.7130   YY=             -4.7129   ZZ=             -3.9034
   XY=              0.0000   XZ=             -0.0000   YZ=             -0.0057

 Normal termination of Gaussian 16 at Wed Oct  7 14:08:05 2020.
