 Gaussian 16, Revision A.03,

 ----------------------------------------------------------------------
 #P Opt(TS,MaxCyc=50,NoEigenTest,MaxStep=10,AddRedundant) BP86/6-31G* 5
 D 7F Integral=UltraFineGrid SCF=(NoSymm,XQC,MaxCyc=120) EmpiricalDispe
 rsion=GD3BJ IOp(1/33=1)
 ----------------------------------------------------------------------

 TstMul:  Mul=     2
 TstMul:  ICh=     0
 TstMul:  Mul=     2
 Symbolic Z-matrix:
 Charge =  0 Multiplicity = 2

 SCF Done:  E(UB-P86) =  -461.303516394     A.U. after   10 cycles
 SCF Done:  E(UB-P86) =  -461.303811296     A.U. after    9 cycles
 SCF Done:  E(UB-P86) =  -461.303838549     A.U. after    7 cycles
 Optimization completed.
    -- Stationary point found.
 Normal termination of Gaussian 16 at Wed Oct  7 14:08:37 2020.
 Gaussian 16:  ES64L-G16RevA.03 25-Dec-2016

 ----------------------------------------------------------------------
 #P Freq BP86/6-31G* 5D 7F Integral=UltraFineGrid SCF=(NoSymm,XQC,MaxCy
 c=120) EmpiricalDispersion=GD3BJ IOp(1/33=1) Geom=Check Guess=Read
 ----------------------------------------------------------------------

 TstMul:  Mul=     2
 TstMul:  ICh=     0
 TstMul:  Mul=     2
 Structure from the checkpoint file:  "MN_45_hclhts_BH76_BP86DBJ_631Gs.chk"
 Charge =  0 Multiplicity = 2

                         Standard orientation:
 ---------------------------------------------------------------------
 Center     Atomic      Atomic             Coordinates (Angstroms)
 Number     Number       Type             X           Y           Z
 ---------------------------------------------------------------------
      1          1           0        0.000000    0.000000    1.512161
      2         17           0        0.000000    0.000000    0.000000
      3          1           0        0.000000    0.000000   -1.512161
 ---------------------------------------------------------------------

 SCF Done:  E(UB-P86) =  -461.303838549     A.U. after    1 cycles

 The electronic state is 2-SGG.
 Alpha  occ. eigenvalues -- -100.74464  -9.20686  -7.03352  -7.01994  -7.01994
 Alpha  occ. eigenvalues --   -0.77644  -0.48803  -0.30120  -0.30120  -0.22633
 Alpha virt. eigenvalues --   -0.01541   0.35243   0.39018   0.39018   0.57391
 Alpha virt. eigenvalues --    0.59211   0.65906   0.75883   0.75883   0.78809
 Alpha virt. eigenvalues --    0.78809   0.99966
  Beta  occ. eigenvalues -- -100.74415  -9.20617  -7.03412  -7.01889  -7.01889
  Beta  occ. eigenvalues --   -0.77022  -0.45773  -0.29683  -0.29683
  Beta virt. eigenvalues --   -0.14776   0.03786   0.35295   0.39395   0.39395
  Beta virt. eigenvalues --    0.58150   0.64280   0.74301   0.75473   0.75473
  Beta virt. eigenvalues --    0.79706   0.79706   1.03828

 Mulliken charges and spin densities:
               1          2
     1  H    0.126923   0.536571
     2  Cl  -0.253845  -0.073143
     3  H    0.126923   0.536571
 Sum of Mulliken charges =   0.00000   1.00000

 Dipole moment (field-independent basis, Debye):
    X=              0.0000    Y=              0.0000    Z=              0.0000  Tot=              0.0000
 Quadrupole moment (field-independent basis, Debye-Ang):
   XX=            -15.2093   YY=            -15.2093   ZZ=            -11.7704
   XY=             -0.0000   XZ=             -0.0000   YZ=              0.0000

  Exact polarizability:   6.399   0.000   6.399  -0.000  -0.000  38.114
 Approx polarizability:   8.797   0.000   8.797  -0.000  -0.000  77.407

 ******    1 imaginary frequencies (negative Signs) ******

                      1                      2                      3
                     SGU                    PIU                    PIU
 Frequencies --  -1015.6374                79.1487                79.1487
 Red. masses --      1.0641                 1.0641                 1.0641
 Frc consts  --      0.6467                 0.0039                 0.0039
 IR Inten    --    761.2158                45.4409                45.4409

                      4
                     SGG
 Frequencies --   1764.4816
 Red. masses --      1.0078
 Frc consts  --      1.8487
 IR Inten    --      0.0000

 - Thermochemistry -
 -------------------
 Temperature   298.150 Kelvin.  Pressure   1.00000 Atm.
 Atom     1 has atomic number  1 and mass   1.00783

 Molecular mass:    36.98450 amu.
 Principal axes and moments of inertia in atomic units:
                           1         2         3
     Eigenvalues --     0.00000  16.45920  16.45920
           X           -0.00000   1.00000   0.00000
           Y            0.00000   0.00000   1.00000
           Z            1.00000   0.00000   0.00000
 This molecule is a prolate symmetric top.
 Rotational symmetry number  2.
 Rotational temperature (Kelvin)      5.26234
 Rotational constant (GHZ):         109.649384
    1 imaginary frequencies ignored.
 Zero-point vibrational energy      11500.8 (Joules/Mol)
                                    2.74875 (Kcal/Mol)
 Warning -- explicit consideration of   2 degrees of freedom as
           vibrations may cause significant error
 Vibrational temperatures:    113.88   113.88  2538.70
          (Kelvin)

 Zero-point correction=                           0.004380 (Hartree/Particle)
 Thermal correction to Energy=                    0.008293
 Thermal correction to Enthalpy=                  0.009237
 Thermal correction to Gibbs Free Energy=        -0.016700
 Sum of electronic and zero-point Energies=           -461.299458
 Sum of electronic and thermal Energies=              -461.295545
 Sum of electronic and thermal Enthalpies=            -461.294601
 Sum of electronic and thermal Free Energies=         -461.320539

                     E (Thermal)             CV                S
                      KCal/Mol        Cal/Mol-Kelvin    Cal/Mol-Kelvin
 Total                    5.204              8.923             54.590
 Electronic               0.000              0.000              1.377
 Translational            0.889              2.981             36.753
 Rotational               0.592              1.987              8.632
 Vibrational              3.723              3.955              7.828
 Vibration     1          0.600              1.963              3.912
 Vibration     2          0.600              1.963              3.912

 Optimization completed.
    -- Stationary point found.

 1\1\GINC-NODE19\Freq\UBP86\6-31G(d)\Cl1H2(2)\RPEVERATI\07-Oct-2020\0\\
 #P Freq BP86/6-31G* 5D 7F Integral=UltraFineGrid SCF=(NoSymm,XQC,MaxCy
 c=120) EmpiricalDispersion=GD3BJ IOp(1/33=1) Geom=Check Guess=Read\\TS
  search on BH76.\\0,2\H,0.,0.,1.5121606486\Cl,0.,0.,0.\H,0.,0.,-1.5121
 606486\\Version=ES64L-G16RevA.03\State=2-SGG\HF=-461.3038385\S2=0.7587
 25\S2-1=0.\S2A=0.750003\RMSD=2.535e-10\RMSF=6.444e-05\ZeroPoint=0.0043
 804\Thermal=0.0082931\Dipole=0.,0.,0.\DipoleDeriv=0.1490239,0.,0.,0.,0
 .1490239,0.,0.,0.,-0.6099394,-0.2980479,0.,0.,0.,-0.2980479,0.,0.,0.,1

 Normal termination of Gaussian 16 at Wed Oct  7 14:09:03 2020.
