 Gaussian 16, Revision A.03,
 Gaussian 16:  ES64L-G16RevA.03 25-Dec-2016

 ----------------------------------------------------------------------
 #P Opt(MaxCyc=100) BP86/6-31G* 5D 7F Integral=UltraFineGrid SCF=(NoSym
 m,XQC,MaxCyc=120) EmpiricalDispersion=GD3BJ IOp(1/33=1)
 ----------------------------------------------------------------------

 TstMul:  Mul=     2
 TstMul:  ICh=     0
 TstMul:  Mul=     2
 Symbolic Z-matrix:
 Charge =  0 Multiplicity = 2

 SCF Done:  E(UB-P86) =  -110.031271009     A.U. after   14 cycles
 SCF Done:  E(UB-P86) =  -110.032096181     A.U. after   12 cycles
 SCF Done:  E(UB-P86) =  -110.032139897     A.U. after   10 cycles
 SCF Done:  E(UB-P86) =  -110.032142931     A.U. after    9 cycles
 Optimization completed.
    -- Stationary point found.

                         Standard orientation:
 ---------------------------------------------------------------------
 Center     Atomic      Atomic             Coordinates (Angstroms)
 Number     Number       Type             X           Y           Z
 ---------------------------------------------------------------------
      1          7           0       -0.063840    0.667360    0.000000
      2          7           0       -0.063840   -0.521748    0.000000
      3          1           0        0.893763   -1.019282    0.000000
 ---------------------------------------------------------------------

 The electronic state is 2-A'.
 Alpha  occ. eigenvalues --  -14.10396 -14.09139  -0.98077  -0.60998  -0.42651
 Alpha  occ. eigenvalues --   -0.38473  -0.36227  -0.16976
 Alpha virt. eigenvalues --   -0.09121   0.04198   0.33017   0.57602   0.58085
 Alpha virt. eigenvalues --    0.60288   0.62448   0.68533   0.69719   0.75690
 Alpha virt. eigenvalues --    0.87955   1.19664   1.40196   1.41812   1.42394

  Beta  occ. eigenvalues --  -14.10110 -14.07833  -0.96679  -0.58922  -0.39433
  Beta  occ. eigenvalues --   -0.37668  -0.33698
  Beta virt. eigenvalues --   -0.10671  -0.07852   0.06516   0.34377   0.58557
  Beta virt. eigenvalues --    0.58569   0.62470   0.67358   0.69831   0.70699
  Beta virt. eigenvalues --    0.78754   0.89024   1.21326   1.41572   1.43813

 Mulliken charges and spin densities:
               1          2
     1  N   -0.079951   0.692424
     2  N   -0.223925   0.130070
     3  H    0.303877   0.177505
 Sum of Mulliken charges =  -0.00000   1.00000

 Dipole moment (field-independent basis, Debye):
    X=              1.3646    Y=             -1.2582    Z=              0.0000  Tot=              1.8561
 Quadrupole moment (field-independent basis, Debye-Ang):
   XX=            -10.7515   YY=            -11.8906   ZZ=            -11.0199
   XY=             -1.3258   XZ=              0.0000   YZ=              0.0000

 Normal termination of Gaussian 16 at Wed Oct  7 14:09:50 2020.
