 Gaussian 16, Revision A.03,

 ----------------------------------------------------------------------
 #P Opt(TS,MaxCyc=50,NoEigenTest,MaxStep=10,AddRedundant) BP86/6-31G* 5
 D 7F Integral=UltraFineGrid SCF=(NoSymm,XQC,MaxCyc=120) EmpiricalDispe
 rsion=GD3BJ IOp(1/33=1)
 ----------------------------------------------------------------------

 TstMul:  Mul=     2
 TstMul:  ICh=     0
 TstMul:  Mul=     2
 Symbolic Z-matrix:
 Charge =  0 Multiplicity = 2

 SCF Done:  E(UB-P86) =  -113.808835741     A.U. after   14 cycles
 SCF Done:  E(UB-P86) =  -113.809144818     A.U. after   11 cycles
 SCF Done:  E(UB-P86) =  -113.808893757     A.U. after   12 cycles
 SCF Done:  E(UB-P86) =  -113.808326294     A.U. after   13 cycles
 SCF Done:  E(UB-P86) =  -113.807816358     A.U. after   12 cycles
 SCF Done:  E(UB-P86) =  -113.807337761     A.U. after   12 cycles
 SCF Done:  E(UB-P86) =  -113.806910347     A.U. after   12 cycles
 SCF Done:  E(UB-P86) =  -113.806543930     A.U. after   12 cycles
 SCF Done:  E(UB-P86) =  -113.806238975     A.U. after   12 cycles
 SCF Done:  E(UB-P86) =  -113.805990328     A.U. after   12 cycles
 SCF Done:  E(UB-P86) =  -113.804135039     A.U. after   10 cycles
 SCF Done:  E(UB-P86) =  -113.804114963     A.U. after   10 cycles
 SCF Done:  E(UB-P86) =  -113.804096751     A.U. after   10 cycles
 SCF Done:  E(UB-P86) =  -113.804080211     A.U. after   10 cycles
 SCF Done:  E(UB-P86) =  -113.804065426     A.U. after   11 cycles
 SCF Done:  E(UB-P86) =  -113.804052599     A.U. after   11 cycles
 SCF Done:  E(UB-P86) =  -113.804041677     A.U. after   11 cycles
 SCF Done:  E(UB-P86) =  -113.804032262     A.U. after   10 cycles
 SCF Done:  E(UB-P86) =  -113.804023765     A.U. after   11 cycles
 Optimization completed.
    -- Stationary point found.

 1\1\GINC-NODE53\FTS\UBP86\6-31G(d)\C1H1O1(2)\RPEVERATI\07-Oct-2020\0\\
 #P Opt(TS,MaxCyc=50,NoEigenTest,MaxStep=10,AddRedundant) BP86/6-31G* 5
 D 7F Integral=UltraFineGrid SCF=(NoSymm,XQC,MaxCyc=120) EmpiricalDispe
 rsion=GD3BJ IOp(1/33=1)\\TS search on BH76.\\0,2\C,-0.6865173994,0.,0.
 4545393332\O,-0.5300464201,0.,1.5937038358\H,2.8928334188,0.,-1.693082
 4789\\Version=ES64L-G16RevA.03\State=2-A'\HF=-113.8040238\S2=0.75\S2-1
 =0.\S2A=0.75\RMSD=4.870e-09\RMSF=3.825e-05\Dipole=0.0096249,0.,0.05636
 11\Quadrupole=0.4570863,0.4799227,-0.937009,0.,-0.2332461,0.\PG=CS [SG

 Normal termination of Gaussian 16 at Wed Oct  7 14:17:36 2020.
 Gaussian 16:  ES64L-G16RevA.03 25-Dec-2016

 ----------------------------------------------------------------------
 #P Freq BP86/6-31G* 5D 7F Integral=UltraFineGrid SCF=(NoSymm,XQC,MaxCy
 c=120) EmpiricalDispersion=GD3BJ IOp(1/33=1) Geom=Check Guess=Read
 ----------------------------------------------------------------------

 TstMul:  Mul=     2
 TstMul:  ICh=     0
 TstMul:  Mul=     2
 Structure from the checkpoint file:  "MN_51_hcots_BH76_BP86DBJ_631Gs.chk"
 Charge =  0 Multiplicity = 2

                         Standard orientation:
 ---------------------------------------------------------------------
 Center     Atomic      Atomic             Coordinates (Angstroms)
 Number     Number       Type             X           Y           Z
 ---------------------------------------------------------------------
      1          6           0        0.255887    0.503887    0.000000
      2          8           0        0.255887   -0.645973    0.000000
      3          1           0       -3.582414    2.144460   -0.000000
 ---------------------------------------------------------------------

 SCF Done:  E(UB-P86) =  -113.804023765     A.U. after    1 cycles

 The electronic state is 2-A'.
 Alpha  occ. eigenvalues --  -18.89558 -10.02409  -1.05982  -0.50812  -0.41778
 Alpha  occ. eigenvalues --   -0.41777  -0.32131  -0.27288
 Alpha virt. eigenvalues --   -0.06499  -0.06486   0.23608   0.47626   0.47755
 Alpha virt. eigenvalues --    0.54911   0.66873   0.67425   0.78004   0.85808
 Alpha virt. eigenvalues --    0.85906   1.41421   1.41421   1.44605   1.46009

  Beta  occ. eigenvalues --  -18.89557 -10.02408  -1.05981  -0.50812  -0.41777
  Beta  occ. eigenvalues --   -0.41777  -0.32130
  Beta virt. eigenvalues --   -0.06636  -0.06501  -0.05221   0.23590   0.47721
  Beta virt. eigenvalues --    0.47745   0.55025   0.67421   0.78003   0.85711
  Beta virt. eigenvalues --    0.85806   0.97453   1.41422   1.41422   1.44594

 Mulliken charges and spin densities:
               1          2
     1  C    0.135473   0.000097
     2  O   -0.135694   0.000288
     3  H    0.000221   0.999616
 Sum of Mulliken charges =   0.00000   1.00000

 Dipole moment (field-independent basis, Debye):
    X=             -0.0047    Y=             -0.1453    Z=              0.0000  Tot=              0.1453
 Quadrupole moment (field-independent basis, Debye-Ang):
   XX=            -11.1670   YY=            -13.1418   ZZ=            -11.1861
   XY=             -0.0493   XZ=              0.0000   YZ=             -0.0000

  Exact polarizability:   8.256  -0.074  12.976   0.000   0.000   8.099
 Approx polarizability:  13.428  -0.072  29.503   0.000   0.000  13.269

 ******    1 imaginary frequencies (negative Signs) ******

                      1                      2                      3
                     A'                     A'                     A'
 Frequencies --    -34.5164                11.1684              2116.9869
 Red. masses --      1.0464                 2.7676                13.4388
 Frc consts  --      0.0007                 0.0002                35.4851
 IR Inten    --      0.0044                 0.0667                56.5797

 - Thermochemistry -
 -------------------
 Temperature   298.150 Kelvin.  Pressure   1.00000 Atm.
 Atom     1 has atomic number  6 and mass  12.00000

 Molecular mass:    29.00274 amu.
 Principal axes and moments of inertia in atomic units:
                           1         2         3
     Eigenvalues --    20.30863  81.58162 101.89025
           X            0.70981   0.70439   0.00000
           Y           -0.70439   0.70981   0.00000
           Z            0.00000   0.00000   1.00000
 This molecule is an asymmetric top.
 Rotational symmetry number  1.
 Rotational temperatures (Kelvin)      4.26488     1.06168     0.85007
 Rotational constants (GHZ):          88.86573    22.12191    17.71260
    1 imaginary frequencies ignored.
 Zero-point vibrational energy      12729.2 (Joules/Mol)
                                    3.04235 (Kcal/Mol)
 Warning -- explicit consideration of   1 degrees of freedom as
           vibrations may cause significant error
 Vibrational temperatures:     16.07  3045.87
          (Kelvin)

 Zero-point correction=                           0.004848 (Hartree/Particle)
 Thermal correction to Energy=                    0.008600
 Thermal correction to Enthalpy=                  0.009544
 Thermal correction to Gibbs Free Energy=        -0.021321
 Sum of electronic and zero-point Energies=           -113.799175
 Sum of electronic and thermal Energies=              -113.795424
 Sum of electronic and thermal Enthalpies=            -113.794479
 Sum of electronic and thermal Free Energies=         -113.825344

                     E (Thermal)             CV                S
                      KCal/Mol        Cal/Mol-Kelvin    Cal/Mol-Kelvin
 Total                    5.397              7.956             64.961
 Electronic               0.000              0.000              1.377
 Translational            0.889              2.981             36.028
 Rotational               0.889              2.981             19.762
 Vibrational              3.619              1.994              7.792
 Vibration     1          0.593              1.987              7.791

                           ! Non-Optimized Parameters !
 Normal termination of Gaussian 16 at Wed Oct  7 14:18:01 2020.
