 Gaussian 16, Revision A.03,
 Gaussian 16:  ES64L-G16RevA.03 25-Dec-2016

 ----------------------------------------------------------------------
 #P Opt(MaxCyc=100) BP86/6-31G* 5D 7F Integral=UltraFineGrid SCF=(NoSym
 m,XQC,MaxCyc=120) EmpiricalDispersion=GD3BJ IOp(1/33=1)
 ----------------------------------------------------------------------

 TstMul:  Mul=     2
 TstMul:  ICh=     0
 TstMul:  Mul=     2
 Symbolic Z-matrix:
 Charge =  0 Multiplicity = 2

 SCF Done:  E(UB-P86) =  -113.848686561     A.U. after   14 cycles
 SCF Done:  E(UB-P86) =  -113.849583242     A.U. after   12 cycles
 SCF Done:  E(UB-P86) =  -113.849604653     A.U. after   10 cycles
 Optimization completed.
    -- Stationary point found.

                         Standard orientation:
 ---------------------------------------------------------------------
 Center     Atomic      Atomic             Coordinates (Angstroms)
 Number     Number       Type             X           Y           Z
 ---------------------------------------------------------------------
      1          1           0       -0.893542    1.217015    0.000000
      2          6           0        0.063824    0.595361    0.000000
      3          8           0        0.063824   -0.598648    0.000000
 ---------------------------------------------------------------------

 The electronic state is 2-A'.
 Alpha  occ. eigenvalues --  -18.85812 -10.01183  -1.01166  -0.55280  -0.43751
 Alpha  occ. eigenvalues --   -0.38579  -0.37481  -0.17394
 Alpha virt. eigenvalues --   -0.08655   0.09181   0.20472   0.47039   0.48080
 Alpha virt. eigenvalues --    0.59989   0.63395   0.75235   0.81775   0.87475
 Alpha virt. eigenvalues --    0.91931   1.42488   1.43586   1.43910   1.44535

  Beta  occ. eigenvalues --  -18.85096 -10.00371  -0.99949  -0.53276  -0.42007
  Beta  occ. eigenvalues --   -0.37811  -0.33905
  Beta virt. eigenvalues --   -0.11250  -0.06960   0.11585   0.21749   0.48268
  Beta virt. eigenvalues --    0.52637   0.61354   0.65343   0.77494   0.83074
  Beta virt. eigenvalues --    0.87930   0.94329   1.43432   1.45718   1.46325

 Mulliken charges and spin densities:
               1          2
     1  H    0.150641   0.173786
     2  C    0.061053   0.565360
     3  O   -0.211694   0.260855
 Sum of Mulliken charges =  -0.00000   1.00000

 Dipole moment (field-independent basis, Debye):
    X=             -0.8799    Y=              1.1245    Z=              0.0000  Tot=              1.4279
 Quadrupole moment (field-independent basis, Debye-Ang):
   XX=            -11.1419   YY=            -11.3772   ZZ=            -10.6633
   XY=             -0.9635   XZ=              0.0000   YZ=              0.0000

 Normal termination of Gaussian 16 at Wed Oct  7 14:09:06 2020.
