 Gaussian 16, Revision A.03,

 ----------------------------------------------------------------------
 #P Opt(TS,MaxCyc=50,NoEigenTest,MaxStep=10,AddRedundant) BP86/6-31G* 5
 D 7F Integral=UltraFineGrid SCF=(NoSymm,XQC,MaxCyc=120) EmpiricalDispe
 rsion=GD3BJ IOp(1/33=1)
 ----------------------------------------------------------------------

 TstMul:  Mul=     2
 TstMul:  ICh=     0
 TstMul:  Mul=     2
 Symbolic Z-matrix:
 Charge =  0 Multiplicity = 2

 SCF Done:  E(UB-P86) =  -200.013104386     A.U. after   22 cycles
 SCF Done:  E(UB-P86) =  -200.015299500     A.U. after   14 cycles
 SCF Done:  E(UB-P86) =  -200.013046127     A.U. after   15 cycles
 SCF Done:  E(UB-P86) =  -200.011345021     A.U. after   14 cycles
 SCF Done:  E(UB-P86) =  -200.009931724     A.U. after   15 cycles
 SCF Done:  E(UB-P86) =  -200.008758589     A.U. after   15 cycles
 SCF Done:  E(UB-P86) =  -200.007781627     A.U. after   15 cycles
 SCF Done:  E(UB-P86) =  -200.006961406     A.U. after   15 cycles
 SCF Done:  E(UB-P86) =  -200.006265046     A.U. after   15 cycles
 SCF Done:  E(UB-P86) =  -200.005666630     A.U. after   14 cycles
 SCF Done:  E(UB-P86) =  -200.001419013     A.U. after   10 cycles
 SCF Done:  E(UB-P86) =  -200.001392037     A.U. after    9 cycles
 SCF Done:  E(UB-P86) =  -200.001369415     A.U. after    9 cycles
 SCF Done:  E(UB-P86) =  -200.001349626     A.U. after    9 cycles
 SCF Done:  E(UB-P86) =  -200.001332879     A.U. after    9 cycles
 SCF Done:  E(UB-P86) =  -200.001319885     A.U. after    9 cycles
 SCF Done:  E(UB-P86) =  -200.001310228     A.U. after    9 cycles
 SCF Done:  E(UB-P86) =  -200.001302411     A.U. after    9 cycles
 SCF Done:  E(UB-P86) =  -200.001295545     A.U. after    8 cycles
 Optimization completed.
    -- Stationary point found.
 Normal termination of Gaussian 16 at Wed Oct  7 14:17:01 2020.
 Gaussian 16:  ES64L-G16RevA.03 25-Dec-2016

 ----------------------------------------------------------------------
 #P Freq BP86/6-31G* 5D 7F Integral=UltraFineGrid SCF=(NoSymm,XQC,MaxCy
 c=120) EmpiricalDispersion=GD3BJ IOp(1/33=1) Geom=Check Guess=Read
 ----------------------------------------------------------------------

 TstMul:  Mul=     2
 TstMul:  ICh=     0
 TstMul:  Mul=     2
 Structure from the checkpoint file:  "MN_52_hf2ts_BH76_BP86DBJ_631Gs.chk"
 Charge =  0 Multiplicity = 2

                         Standard orientation:
 ---------------------------------------------------------------------
 Center     Atomic      Atomic             Coordinates (Angstroms)
 Number     Number       Type             X           Y           Z
 ---------------------------------------------------------------------
      1          1           0        0.000000    0.000000   -4.074651
      2          9           0        0.000000    0.000000   -0.485305
      3          9           0        0.000000    0.000000    0.938044
 ---------------------------------------------------------------------

 SCF Done:  E(UB-P86) =  -200.001295545     A.U. after    1 cycles

 The electronic state is 2-SG.
 Alpha  occ. eigenvalues --  -24.38293 -24.38281  -1.21909  -0.99439  -0.53971
 Alpha  occ. eigenvalues --   -0.44212  -0.44212  -0.32106  -0.32106  -0.27468
 Alpha virt. eigenvalues --   -0.19149   0.66082   0.99940   0.99940   1.03023
 Alpha virt. eigenvalues --    1.15747   1.17980   1.17980   1.20103   1.47453
 Alpha virt. eigenvalues --    1.47453   1.63344   1.63344   1.66509   1.85826

  Beta  occ. eigenvalues --  -24.38292 -24.38279  -1.21906  -0.99437  -0.53968
  Beta  occ. eigenvalues --   -0.44210  -0.44210  -0.32105  -0.32105
  Beta virt. eigenvalues --   -0.19157  -0.03644   0.99940   0.99940   1.00154
  Beta virt. eigenvalues --    1.04776   1.15960   1.17979   1.17979   1.20112
  Beta virt. eigenvalues --    1.47455   1.47455   1.63345   1.63345   1.66514

 Mulliken charges and spin densities:
               1          2
     1  H    0.000780   0.999123
     2  F   -0.000368   0.000031
     3  F   -0.000412   0.000846
 Sum of Mulliken charges =  -0.00000   1.00000

 Dipole moment (field-independent basis, Debye):
    X=              0.0000    Y=             -0.0000    Z=             -0.0170  Tot=              0.0170
 Quadrupole moment (field-independent basis, Debye-Ang):
   XX=            -10.5774   YY=            -10.5774   ZZ=             -9.5026
   XY=              0.0000   XZ=              0.0000   YZ=              0.0000

  Exact polarizability:   2.768  -0.000   2.768   0.000  -0.000  10.942
 Approx polarizability:   3.555  -0.000   3.555  -0.000  -0.000  26.152

 ******    1 imaginary frequencies (negative Signs) ******

                      1                      2                      3
                     SG                     PI                     PI
 Frequencies --    -55.7689                17.6702                17.6702
 Red. masses --      1.0331                 1.9101                 1.9101
 Frc consts  --      0.0019                 0.0004                 0.0004
 IR Inten    --      0.1642                 0.0004                 0.0004

                      4
                     SG
 Frequencies --   1003.3643
 Red. masses --     18.9915
 Frc consts  --     11.2649
 IR Inten    --      0.2777

 - Thermochemistry -
 -------------------
 Temperature   298.150 Kelvin.  Pressure   1.00000 Atm.
 Atom     1 has atomic number  1 and mass   1.00783

 Molecular mass:    39.00463 amu.
 Principal axes and moments of inertia in atomic units:
                           1         2         3
     Eigenvalues --     0.00000 133.58084 133.58084
           X            0.00000   0.00000   1.00000
           Y            0.00000   1.00000   0.00000
           Z            1.00000   0.00000   0.00000
 This molecule is a prolate symmetric top.
 Rotational symmetry number  1.
 Rotational temperature (Kelvin)      0.64840
 Rotational constant (GHZ):          13.510480
    1 imaginary frequencies ignored.
 Zero-point vibrational energy       6212.8 (Joules/Mol)
                                    1.48490 (Kcal/Mol)
 Warning -- explicit consideration of   2 degrees of freedom as
           vibrations may cause significant error
 Vibrational temperatures:     25.42    25.42  1443.62
          (Kelvin)

 Zero-point correction=                           0.002366 (Hartree/Particle)
 Thermal correction to Energy=                    0.006572
 Thermal correction to Enthalpy=                  0.007516
 Thermal correction to Gibbs Free Energy=        -0.023991
 Sum of electronic and zero-point Energies=           -199.998929
 Sum of electronic and thermal Energies=              -199.994723
 Sum of electronic and thermal Enthalpies=            -199.993779
 Sum of electronic and thermal Free Energies=         -200.025286

                     E (Thermal)             CV                S
                      KCal/Mol        Cal/Mol-Kelvin    Cal/Mol-Kelvin
 Total                    4.124              9.314             66.312
 Electronic               0.000              0.000              1.377
 Translational            0.889              2.981             36.912
 Rotational               0.592              1.987             14.170
 Vibrational              2.643              4.346             13.853
 Vibration     1          0.593              1.986              6.880
 Vibration     2          0.593              1.986              6.880

                           ! Non-Optimized Parameters !
 Normal termination of Gaussian 16 at Wed Oct  7 14:17:26 2020.
