 Gaussian 16, Revision A.03,

 ----------------------------------------------------------------------
 #P Opt(TS,MaxCyc=50,NoEigenTest,MaxStep=10,AddRedundant) BP86/6-31G* 5
 D 7F Integral=UltraFineGrid SCF=(NoSymm,XQC,MaxCyc=120) EmpiricalDispe
 rsion=GD3BJ IOp(1/33=1)
 ----------------------------------------------------------------------

 TstMul:  Mul=     2
 TstMul:  ICh=     0
 TstMul:  Mul=     2
 Symbolic Z-matrix:
 Charge =  0 Multiplicity = 2

 SCF Done:  E(UB-P86) =  -110.016699453     A.U. after   15 cycles
 SCF Done:  E(UB-P86) =  -110.017439705     A.U. after   13 cycles
 SCF Done:  E(UB-P86) =  -110.017356122     A.U. after   10 cycles
 SCF Done:  E(UB-P86) =  -110.017157368     A.U. after   13 cycles
 SCF Done:  E(UB-P86) =  -110.017144277     A.U. after    9 cycles
 SCF Done:  E(UB-P86) =  -110.016281988     A.U. after   13 cycles
 SCF Done:  E(UB-P86) =  -110.015939387     A.U. after   13 cycles
 SCF Done:  E(UB-P86) =  -110.015959284     A.U. after   13 cycles
 SCF Done:  E(UB-P86) =  -110.015990953     A.U. after   10 cycles
 SCF Done:  E(UB-P86) =  -110.016003448     A.U. after   13 cycles
 Optimization completed.
    -- Stationary point found.
 Normal termination of Gaussian 16 at Wed Oct  7 14:11:19 2020.
 Gaussian 16:  ES64L-G16RevA.03 25-Dec-2016

 ----------------------------------------------------------------------
 #P Freq BP86/6-31G* 5D 7F Integral=UltraFineGrid SCF=(NoSymm,XQC,MaxCy
 c=120) EmpiricalDispersion=GD3BJ IOp(1/33=1) Geom=Check Guess=Read
 ----------------------------------------------------------------------

 TstMul:  Mul=     2
 TstMul:  ICh=     0
 TstMul:  Mul=     2
 Structure from the checkpoint file:  "MN_59_hn2ts_BH76_BP86DBJ_631Gs.chk"
 Charge =  0 Multiplicity = 2

                         Standard orientation:
 ---------------------------------------------------------------------
 Center     Atomic      Atomic             Coordinates (Angstroms)
 Number     Number       Type             X           Y           Z
 ---------------------------------------------------------------------
      1          7           0        0.093278   -0.656867    0.000000
      2          7           0        0.093278    0.475913    0.000000
      3          1           0       -1.305888    1.266680    0.000000
 ---------------------------------------------------------------------

 SCF Done:  E(UB-P86) =  -110.016003448     A.U. after    1 cycles

 The electronic state is 2-A'.
 Alpha  occ. eigenvalues --  -14.12978 -14.11688  -1.02055  -0.52369  -0.43339
 Alpha  occ. eigenvalues --   -0.41305  -0.38189  -0.21799
 Alpha virt. eigenvalues --   -0.08025  -0.05142   0.36469   0.54868   0.56356
 Alpha virt. eigenvalues --    0.57946   0.60219   0.69434   0.70950   0.73576
 Alpha virt. eigenvalues --    0.85753   1.22343   1.38616   1.39919   1.44986

  Beta  occ. eigenvalues --  -14.12879 -14.11182  -1.01565  -0.50912  -0.41570
  Beta  occ. eigenvalues --   -0.40964  -0.37023
  Beta virt. eigenvalues --   -0.13101  -0.07521  -0.01431   0.36962   0.55856
  Beta virt. eigenvalues --    0.56534   0.59917   0.65128   0.69794   0.71578
  Beta virt. eigenvalues --    0.77484   0.89832   1.23358   1.39300   1.40842

 Mulliken charges and spin densities:
               1          2
     1  N    0.004100   0.245169
     2  N   -0.059097  -0.000539
     3  H    0.054998   0.755370
 Sum of Mulliken charges =  -0.00000   1.00000

 Dipole moment (field-independent basis, Debye):
    X=             -0.2276    Y=              0.2364    Z=              0.0000  Tot=              0.3281
 Quadrupole moment (field-independent basis, Debye-Ang):
   XX=            -11.4268   YY=            -12.7399   ZZ=            -11.2866
   XY=             -0.1414   XZ=              0.0000   YZ=              0.0000

  Exact polarizability:  15.430  -7.357  20.198  -0.000  -0.000   6.157
 Approx polarizability:  26.073 -14.820  49.829  -0.000  -0.000   9.716

 ******    1 imaginary frequencies (negative Signs) ******

                      1                      2                      3
                     A'                     A'                     A'
 Frequencies --   -881.4045               594.5535              2173.2663
 Red. masses --      1.0828                 1.3928                10.9430
 Frc consts  --      0.4956                 0.2901                30.4516
 IR Inten    --    138.2209                 1.7384                61.4378

 - Thermochemistry -
 -------------------
 Temperature   298.150 Kelvin.  Pressure   1.00000 Atm.
 Atom     1 has atomic number  7 and mass  14.00307

 Molecular mass:    29.01397 amu.
 Principal axes and moments of inertia in atomic units:
                           1         2         3
     Eigenvalues --     5.48222  39.80086  45.28308
           X           -0.19602   0.98060   0.00000
           Y            0.98060   0.19602   0.00000
           Z            0.00000   0.00000   1.00000
 This molecule is an asymmetric top.
 Rotational symmetry number  1.
 Rotational temperatures (Kelvin)     15.79906     2.17618     1.91272
 Rotational constants (GHZ):         329.19900    45.34427    39.85465
    1 imaginary frequencies ignored.
 Zero-point vibrational energy      16555.2 (Joules/Mol)
                                    3.95680 (Kcal/Mol)
 Warning -- explicit consideration of   1 degrees of freedom as
           vibrations may cause significant error
 Vibrational temperatures:    855.43  3126.85
          (Kelvin)

 Zero-point correction=                           0.006306 (Hartree/Particle)
 Thermal correction to Energy=                    0.009301
 Thermal correction to Enthalpy=                  0.010246
 Thermal correction to Gibbs Free Energy=        -0.015796
 Sum of electronic and zero-point Energies=           -110.009698
 Sum of electronic and thermal Energies=              -110.006702
 Sum of electronic and thermal Enthalpies=            -110.005758
 Sum of electronic and thermal Free Energies=         -110.031799

                     E (Thermal)             CV                S
                      KCal/Mol        Cal/Mol-Kelvin    Cal/Mol-Kelvin
 Total                    5.837              7.011             54.809
 Electronic               0.000              0.000              1.377
 Translational            0.889              2.981             36.030
 Rotational               0.889              2.981             16.942
 Vibrational              4.059              1.049              0.460
 Vibration     1          0.952              1.043              0.459

                           ! Non-Optimized Parameters !
 Normal termination of Gaussian 16 at Wed Oct  7 14:11:43 2020.
