 Gaussian 16, Revision A.03,

 ----------------------------------------------------------------------
 #P Opt(TS,MaxCyc=50,NoEigenTest,MaxStep=10,AddRedundant) BP86/6-31G* 5
 D 7F Integral=UltraFineGrid SCF=(NoSymm,XQC,MaxCyc=120) EmpiricalDispe
 rsion=GD3BJ IOp(1/33=1)
 ----------------------------------------------------------------------

 TstMul:  Mul=     2
 TstMul:  ICh=     0
 TstMul:  Mul=     2
 Symbolic Z-matrix:
 Charge =  0 Multiplicity = 2

 SCF Done:  E(UB-P86) =  -140.190394234     A.U. after   14 cycles
 SCF Done:  E(UB-P86) =  -140.191457578     A.U. after   12 cycles
 SCF Done:  E(UB-P86) =  -140.191840810     A.U. after   13 cycles
 SCF Done:  E(UB-P86) =  -140.191517755     A.U. after   13 cycles
 SCF Done:  E(UB-P86) =  -140.191381529     A.U. after   13 cycles
 SCF Done:  E(UB-P86) =  -140.191385143     A.U. after   10 cycles
 SCF Done:  E(UB-P86) =  -140.191387816     A.U. after   10 cycles
 SCF Done:  E(UB-P86) =  -140.191395773     A.U. after    9 cycles
 SCF Done:  E(UB-P86) =  -140.191403365     A.U. after   12 cycles
 SCF Done:  E(UB-P86) =  -140.191405520     A.U. after   11 cycles
 SCF Done:  E(UB-P86) =  -140.191405828     A.U. after    9 cycles
 Optimization completed.
    -- Stationary point found.

 1\1\GINC-NODE34\FTS\UBP86\6-31G(d)\C1H4F1(2)\RPEVERATI\07-Oct-2020\0\\
 #P Opt(TS,MaxCyc=50,NoEigenTest,MaxStep=10,AddRedundant) BP86/6-31G* 5
 D 7F Integral=UltraFineGrid SCF=(NoSymm,XQC,MaxCyc=120) EmpiricalDispe
 rsion=GD3BJ IOp(1/33=1)\\TS search on BH76.\\0,2\H,0.0042255965,2.0716
 93629,0.\F,0.0013878065,0.7854737763,0.\C,-0.0008765598,-0.90546566,0.
 \H,1.0627640046,-1.1632345589,0.\H,-0.5332273482,-1.1614216817,0.92136
 88294\H,-0.5332273482,-1.1614216817,-0.9213688294\\Version=ES64L-G16Re
 vA.03\State=2-A'\HF=-140.1914058\S2=0.757648\S2-1=0.\S2A=0.750012\RMSD

 Normal termination of Gaussian 16 at Wed Oct  7 14:11:06 2020.
 Gaussian 16:  ES64L-G16RevA.03 25-Dec-2016

 ----------------------------------------------------------------------
 #P Freq BP86/6-31G* 5D 7F Integral=UltraFineGrid SCF=(NoSymm,XQC,MaxCy
 c=120) EmpiricalDispersion=GD3BJ IOp(1/33=1) Geom=Check Guess=Read
 ----------------------------------------------------------------------

 TstMul:  Mul=     2
 TstMul:  ICh=     0
 TstMul:  Mul=     2
 Structure from the checkpoint file:  "MN_53_hfch3ts_BH76_BP86DBJ_631Gs.chk"
 Charge =  0 Multiplicity = 2

                         Standard orientation:
 ---------------------------------------------------------------------
 Center     Atomic      Atomic             Coordinates (Angstroms)
 Number     Number       Type             X           Y           Z
 ---------------------------------------------------------------------
      1          1           0        0.001058    2.060008    0.000000
      2          9           0       -0.000057    0.773786    0.000000
      3          6           0       -0.000057   -0.917155    0.000000
      4          1           0        1.063928   -1.173500    0.000000
      5          1           0       -0.532065   -1.173824    0.921369
      6          1           0       -0.532065   -1.173824   -0.921369
 ---------------------------------------------------------------------

 SCF Done:  E(UB-P86) =  -140.191405828     A.U. after    1 cycles

 The electronic state is 2-A'.
 Alpha  occ. eigenvalues --  -24.26300  -9.95413  -1.02174  -0.63738  -0.43978
 Alpha  occ. eigenvalues --   -0.39201  -0.39198  -0.28797  -0.28797  -0.15344
 Alpha virt. eigenvalues --   -0.01032   0.08467   0.13663   0.13664   0.45115
 Alpha virt. eigenvalues --    0.51011   0.51013   0.64257   0.77084   0.81906
 Alpha virt. eigenvalues --    0.81910   0.96094   1.14996   1.14999   1.47345

  Beta  occ. eigenvalues --  -24.26215  -9.94654  -1.01979  -0.62163  -0.42122
  Beta  occ. eigenvalues --   -0.38640  -0.38638  -0.28591  -0.28591
  Beta virt. eigenvalues --   -0.07993   0.03635   0.09073   0.14139   0.14141
  Beta virt. eigenvalues --    0.48694   0.51549   0.51551   0.72486   0.78452
  Beta virt. eigenvalues --    0.82497   0.82501   0.97673   1.15446   1.15448

 Mulliken charges and spin densities:
               1          2
     1  H    0.100655   0.639064
     2  F   -0.320928  -0.079960
     3  C   -0.324383   0.499010
     4  H    0.181561  -0.019376
     5  H    0.181548  -0.019369
     6  H    0.181548  -0.019369
 Sum of Mulliken charges =  -0.00000   1.00000

 Dipole moment (field-independent basis, Debye):
    X=              0.0004    Y=             -1.3693    Z=             -0.0000  Tot=              1.3693
 Quadrupole moment (field-independent basis, Debye-Ang):
   XX=            -12.8131   YY=            -11.9743   ZZ=            -12.8136
   XY=              0.0011   XZ=              0.0000   YZ=             -0.0000

  Exact polarizability:  13.323   0.018  48.893   0.000  -0.000  13.323
 Approx polarizability:  17.930   0.039 100.100  -0.000  -0.000  17.929

 ******    1 imaginary frequencies (negative Signs) ******

                      1                      2                      3
                     A'                     A'                     A"
 Frequencies --  -1243.0494               157.6497               157.7014
 Red. masses --      2.0592                 1.1626                 1.1626
 Frc consts  --      1.8747                 0.0170                 0.0170
 IR Inten    --   1129.3448                 7.8783                 7.8774

                      4                      5                      6
                     A"                     A'                     A'
 Frequencies --    785.3530               785.5909               955.0308
 Red. masses --      1.1331                 1.1331                 1.4580
 Frc consts  --      0.4118                 0.4120                 0.7835
 IR Inten    --      0.9261                 0.9244               165.4472

                      7                      8                      9
                     A'                     A"                     A'
 Frequencies --   1173.1096              1429.0134              1429.0798
 Red. masses --      1.2713                 1.0862                 1.0861
 Frc consts  --      1.0308                 1.3068                 1.3069
 IR Inten    --     51.7358                 3.1484                 3.1484

                     10                     11                     12
                     A'                     A"                     A'
 Frequencies --   3042.8307              3185.9329              3186.1798
 Red. masses --      1.0170                 1.1144                 1.1145
 Frc consts  --      5.5479                 6.6648                 6.6659
 IR Inten    --      1.7686                14.6863                14.6701

 - Thermochemistry -
 -------------------
 Temperature   298.150 Kelvin.  Pressure   1.00000 Atm.
 Atom     1 has atomic number  1 and mass   1.00783

 Molecular mass:    35.02970 amu.
 Principal axes and moments of inertia in atomic units:
                           1         2         3
     Eigenvalues --    12.22212 112.42221 112.42325
           X            0.00009   1.00000   0.00000
           Y            1.00000  -0.00009   0.00000
           Z            0.00000   0.00000   1.00000
 This molecule is an asymmetric top.
 Rotational symmetry number  1.
 Rotational temperatures (Kelvin)      7.08665     0.77043     0.77043
 Rotational constants (GHZ):         147.66183    16.05324    16.05310
    1 imaginary frequencies ignored.
 Zero-point vibrational energy      97420.7 (Joules/Mol)
                                   23.28411 (Kcal/Mol)
 Warning -- explicit consideration of   2 degrees of freedom as
           vibrations may cause significant error
 Vibrational temperatures:    226.82   226.90  1129.95  1130.29  1374.08
          (Kelvin)           1687.84  2056.03  2056.13  4377.95  4583.85
                             4584.20

 Zero-point correction=                           0.037106 (Hartree/Particle)
 Thermal correction to Energy=                    0.041439
 Thermal correction to Enthalpy=                  0.042384
 Thermal correction to Gibbs Free Energy=         0.012247
 Sum of electronic and zero-point Energies=           -140.154300
 Sum of electronic and thermal Energies=              -140.149966
 Sum of electronic and thermal Enthalpies=            -140.149022
 Sum of electronic and thermal Free Energies=         -140.179158

                     E (Thermal)             CV                S
                      KCal/Mol        Cal/Mol-Kelvin    Cal/Mol-Kelvin
 Total                   26.004             11.944             63.427
 Electronic               0.000              0.000              1.377
 Translational            0.889              2.981             36.591
 Rotational               0.889              2.981             19.674
 Vibrational             24.226              5.982              5.784
 Vibration     1          0.621              1.894              2.578
 Vibration     2          0.621              1.894              2.577

 Optimization completed.
    -- Stationary point found.
 Normal termination of Gaussian 16 at Wed Oct  7 14:11:35 2020.
