 Gaussian 16, Revision A.03,

 ----------------------------------------------------------------------
 #P Opt(TS,MaxCyc=50,NoEigenTest,MaxStep=10,AddRedundant) BP86/6-31G* 5
 D 7F Integral=UltraFineGrid SCF=(NoSymm,XQC,MaxCyc=120) EmpiricalDispe
 rsion=GD3BJ IOp(1/33=1)
 ----------------------------------------------------------------------

 TstMul:  Mul=     2
 TstMul:  ICh=     0
 TstMul:  Mul=     2
 Symbolic Z-matrix:
 Charge =  0 Multiplicity = 2

 SCF Done:  E(UB-P86) =  -100.871037454     A.U. after    9 cycles
 SCF Done:  E(UB-P86) =  -100.872585540     A.U. after    9 cycles
 SCF Done:  E(UB-P86) =  -100.873218279     A.U. after    9 cycles
 SCF Done:  E(UB-P86) =  -100.873247254     A.U. after    7 cycles
 Optimization completed.
    -- Stationary point found.
 Normal termination of Gaussian 16 at Wed Oct  7 14:09:29 2020.
 Gaussian 16:  ES64L-G16RevA.03 25-Dec-2016

 ----------------------------------------------------------------------
 #P Freq BP86/6-31G* 5D 7F Integral=UltraFineGrid SCF=(NoSymm,XQC,MaxCy
 c=120) EmpiricalDispersion=GD3BJ IOp(1/33=1) Geom=Check Guess=Read
 ----------------------------------------------------------------------

 TstMul:  Mul=     2
 TstMul:  ICh=     0
 TstMul:  Mul=     2
 Structure from the checkpoint file:  "MN_54_hfhts_BH76_BP86DBJ_631Gs.chk"
 Charge =  0 Multiplicity = 2

                         Standard orientation:
 ---------------------------------------------------------------------
 Center     Atomic      Atomic             Coordinates (Angstroms)
 Number     Number       Type             X           Y           Z
 ---------------------------------------------------------------------
      1          1           0        0.000000    0.000000    1.195064
      2          9           0        0.000000    0.000000    0.000000
      3          1           0        0.000000    0.000000   -1.195064
 ---------------------------------------------------------------------

 SCF Done:  E(UB-P86) =  -100.873247254     A.U. after    1 cycles

 The electronic state is 2-SGG.
 Alpha  occ. eigenvalues --  -24.29754  -1.06269  -0.52503  -0.33318  -0.33318
 Alpha  occ. eigenvalues --   -0.16745
 Alpha virt. eigenvalues --   -0.02145   0.55224   0.68852   1.08486   1.08486
 Alpha virt. eigenvalues --    1.51980   1.57863   1.70652   1.70652   1.77977
 Alpha virt. eigenvalues --    1.77977   2.22921
  Beta  occ. eigenvalues --  -24.29608  -1.05944  -0.50066  -0.32993  -0.32993
  Beta virt. eigenvalues --   -0.08412   0.03745   0.62491   0.76864   1.08863
  Beta virt. eigenvalues --    1.08863   1.52532   1.60382   1.70288   1.70288
  Beta virt. eigenvalues --    1.78061   1.78061   2.25469

 Mulliken charges and spin densities:
               1          2
     1  H    0.186156   0.545457
     2  F   -0.372312  -0.090915
     3  H    0.186156   0.545457
 Sum of Mulliken charges =  -0.00000   1.00000

 Dipole moment (field-independent basis, Debye):
    X=              0.0000    Y=              0.0000    Z=              0.0000  Tot=              0.0000
 Quadrupole moment (field-independent basis, Debye-Ang):
   XX=             -6.9872   YY=             -6.9872   ZZ=             -4.7400
   XY=             -0.0000   XZ=             -0.0000   YZ=              0.0000

  Exact polarizability:   1.956  -0.000   1.956   0.000  -0.000  34.754
 Approx polarizability:   2.398  -0.000   2.398  -0.000   0.000  74.257

 ******    3 imaginary frequencies (negative Signs) ******

                      1                      2                      3
                     SGU                    PIU                    PIU
 Frequencies --  -2040.1306               -91.8084               -91.8084
 Red. masses --      1.1085                 1.1085                 1.1085
 Frc consts  --      2.7184                 0.0055                 0.0055
 IR Inten    --   3183.5167                43.6323                43.6323

                      4
                     SGG
 Frequencies --   2066.5992
 Red. masses --      1.0078
 Frc consts  --      2.5360
 IR Inten    --      0.0000

 - Thermochemistry -
 -------------------
 Temperature   298.150 Kelvin.  Pressure   1.00000 Atm.
 Atom     1 has atomic number  1 and mass   1.00783

 Molecular mass:    21.01405 amu.
 Principal axes and moments of inertia in atomic units:
                           1         2         3
     Eigenvalues --     0.00000  10.28004  10.28004
           X           -0.00000   1.00000   0.00000
           Y            0.00000   0.00000   1.00000
           Z            1.00000   0.00000   0.00000
 This molecule is a prolate symmetric top.
 Rotational symmetry number  2.
 Rotational temperature (Kelvin)      8.42544
 Rotational constant (GHZ):         175.557726
    3 imaginary frequencies ignored.
 Zero-point vibrational energy      12361.0 (Joules/Mol)
                                    2.95435 (Kcal/Mol)
 Vibrational temperatures:   2973.38
          (Kelvin)

 Zero-point correction=                           0.004708 (Hartree/Particle)
 Thermal correction to Energy=                    0.007069
 Thermal correction to Enthalpy=                  0.008013
 Thermal correction to Gibbs Free Energy=        -0.012961
 Sum of electronic and zero-point Energies=           -100.868539
 Sum of electronic and thermal Energies=              -100.866178
 Sum of electronic and thermal Enthalpies=            -100.865234
 Sum of electronic and thermal Free Energies=         -100.886208

                     E (Thermal)             CV                S
                      KCal/Mol        Cal/Mol-Kelvin    Cal/Mol-Kelvin
 Total                    4.436              4.977             44.143
 Electronic               0.000              0.000              1.377
 Translational            0.889              2.981             35.068
 Rotational               0.592              1.987              7.697
 Vibrational              2.955              0.009              0.001

 Optimization completed.
    -- Stationary point found.
 Normal termination of Gaussian 16 at Wed Oct  7 14:09:52 2020.
