 Gaussian 16, Revision A.03,
 Gaussian 16:  ES64L-G16RevA.03 25-Dec-2016

 ----------------------------------------------------------------------
 #P Opt(MaxCyc=100) BP86/6-31G* 5D 7F Integral=UltraFineGrid SCF=(NoSym
 m,XQC,MaxCyc=120) EmpiricalDispersion=GD3BJ IOp(1/33=1)
 ----------------------------------------------------------------------

 TstMul:  Mul=     1
 TstMul:  ICh=     0
 TstMul:  Mul=     1
 Symbolic Z-matrix:
 Charge =  0 Multiplicity = 1

 SCF Done:  E(RB-P86) =  -184.678184880     A.U. after   13 cycles
 SCF Done:  E(RB-P86) =  -184.680573955     A.U. after   12 cycles
 SCF Done:  E(RB-P86) =  -184.680639701     A.U. after    9 cycles
 SCF Done:  E(RB-P86) =  -184.680639860     A.U. after    7 cycles
 Optimization completed.
    -- Stationary point found.

                         Standard orientation:
 ---------------------------------------------------------------------
 Center     Atomic      Atomic             Coordinates (Angstroms)
 Number     Number       Type             X           Y           Z
 ---------------------------------------------------------------------
      1          7           0        0.000000    0.000000   -1.221708
      2          7           0        0.000000    0.000000   -0.070351
      3          8           0        0.000000    0.000000    1.130551
 ---------------------------------------------------------------------

 The electronic state is 1-SG.
 Alpha  occ. eigenvalues --  -18.89728 -14.23687 -14.11401  -1.14265  -0.99051
 Alpha  occ. eigenvalues --   -0.54590  -0.49975  -0.49975  -0.41848  -0.30060
 Alpha  occ. eigenvalues --   -0.30060
 Alpha virt. eigenvalues --   -0.05940  -0.05940   0.07232   0.38472   0.54949
 Alpha virt. eigenvalues --    0.55479   0.55479   0.68255   0.69326   0.69472
 Alpha virt. eigenvalues --    0.69472   0.89364   0.89364   0.96416   1.27859

 Mulliken charges:
               1
     1  N   -0.107440
     2  N    0.506183
     3  O   -0.398743
 Sum of Mulliken charges =   0.00000

 Dipole moment (field-independent basis, Debye):
    X=              0.0000    Y=              0.0000    Z=              0.1668  Tot=              0.1668
 Quadrupole moment (field-independent basis, Debye-Ang):
   XX=            -15.0402   YY=            -15.0402   ZZ=            -18.6593
   XY=              0.0000   XZ=              0.0000   YZ=             -0.0000

 Normal termination of Gaussian 16 at Wed Oct  7 14:10:25 2020.
