 Gaussian 16, Revision A.03,
 Gaussian 16:  ES64L-G16RevA.03 25-Dec-2016

 ----------------------------------------------------------------------
 #P Opt(MaxCyc=100) BP86/6-31G* 5D 7F Integral=UltraFineGrid SCF=(NoSym
 m,XQC,MaxCyc=120) EmpiricalDispersion=GD3BJ IOp(1/33=1)
 ----------------------------------------------------------------------

 TstMul:  Mul=     1
 TstMul:  ICh=     0
 TstMul:  Mul=     1
 Symbolic Z-matrix:
 Charge =  0 Multiplicity = 1

 SCF Done:  E(RB-P86) =  -109.522718605     A.U. after    8 cycles
 SCF Done:  E(RB-P86) =  -109.523830923     A.U. after    6 cycles
 SCF Done:  E(RB-P86) =  -109.523847688     A.U. after    6 cycles
 Optimization completed.
    -- Stationary point found.

                         Standard orientation:
 ---------------------------------------------------------------------
 Center     Atomic      Atomic             Coordinates (Angstroms)
 Number     Number       Type             X           Y           Z
 ---------------------------------------------------------------------
      1          7           0        0.000000    0.000000    0.558696
      2          7           0        0.000000    0.000000   -0.558696
 ---------------------------------------------------------------------

 The electronic state is 1-SGG.
 Alpha  occ. eigenvalues --  -14.12189 -14.12108  -1.02693  -0.49434  -0.41550
 Alpha  occ. eigenvalues --   -0.41550  -0.36736
 Alpha virt. eigenvalues --   -0.06972  -0.06972   0.37575   0.56418   0.56496
 Alpha virt. eigenvalues --    0.56496   0.67754   0.70329   0.70329   0.73618
 Alpha virt. eigenvalues --    1.22295   1.38540   1.38540   1.46537   1.46537

 Mulliken charges:
               1
     1  N   -0.000000
     2  N   -0.000000
 Sum of Mulliken charges =  -0.00000

 Dipole moment (field-independent basis, Debye):
    X=              0.0000    Y=             -0.0000    Z=              0.0000  Tot=              0.0000
 Quadrupole moment (field-independent basis, Debye-Ang):
   XX=            -10.0259   YY=            -10.0259   ZZ=            -11.6106
   XY=             -0.0000   XZ=              0.0000   YZ=             -0.0000

 Normal termination of Gaussian 16 at Wed Oct  7 14:10:30 2020.
