 Gaussian 16, Revision A.03,
 Gaussian 16:  ES64L-G16RevA.03 25-Dec-2016

 ----------------------------------------------------------------------
 #P Opt(MaxCyc=100) BP86/6-31G* 5D 7F Integral=UltraFineGrid SCF=(NoSym
 m,XQC,MaxCyc=120) EmpiricalDispersion=GD3BJ IOp(1/33=1)
 ----------------------------------------------------------------------

 TstMul:  Mul=     1
 TstMul:  ICh=    -1
 TstMul:  Mul=     1
 Symbolic Z-matrix:
 Charge = -1 Multiplicity = 1

 SCF Done:  E(RB-P86) =  -215.553817080     A.U. after   13 cycles
 SCF Done:  E(RB-P86) =  -215.555809084     A.U. after   12 cycles
 SCF Done:  E(RB-P86) =  -215.553979158     A.U. after   12 cycles
 SCF Done:  E(RB-P86) =  -215.559637796     A.U. after   11 cycles
 SCF Done:  E(RB-P86) =  -215.558650216     A.U. after   12 cycles
 SCF Done:  E(RB-P86) =  -215.561642221     A.U. after   12 cycles
 SCF Done:  E(RB-P86) =  -215.562195864     A.U. after   12 cycles
 SCF Done:  E(RB-P86) =  -215.562376491     A.U. after   10 cycles
 SCF Done:  E(RB-P86) =  -215.562426765     A.U. after   11 cycles
 SCF Done:  E(RB-P86) =  -215.562433698     A.U. after    9 cycles
 SCF Done:  E(RB-P86) =  -215.562490149     A.U. after   11 cycles
 SCF Done:  E(RB-P86) =  -215.562521728     A.U. after   11 cycles
 SCF Done:  E(RB-P86) =  -215.562507029     A.U. after   11 cycles
 SCF Done:  E(RB-P86) =  -215.562621804     A.U. after   10 cycles
 SCF Done:  E(RB-P86) =  -215.562805753     A.U. after   11 cycles
 SCF Done:  E(RB-P86) =  -215.562836821     A.U. after   10 cycles
 SCF Done:  E(RB-P86) =  -215.562840138     A.U. after    8 cycles
 SCF Done:  E(RB-P86) =  -215.562841159     A.U. after    9 cycles
 SCF Done:  E(RB-P86) =  -215.562841519     A.U. after    8 cycles
 SCF Done:  E(RB-P86) =  -215.562841546     A.U. after    7 cycles
 Optimization completed.
    -- Stationary point found.

                         Standard orientation:
 ---------------------------------------------------------------------
 Center     Atomic      Atomic             Coordinates (Angstroms)
 Number     Number       Type             X           Y           Z
 ---------------------------------------------------------------------
      1          6           0       -1.246522   -0.385961   -0.000012
      2          8           0       -0.498720    0.755258    0.000011
      3          1           0       -1.949257   -0.505886   -0.893210
      4          1           0       -0.625848   -1.326958    0.000259
      5          1           0       -1.949676   -0.505749    0.892951
      6          1           0        0.698147    0.317128   -0.000007
      7          9           0        1.699503   -0.189426   -0.000001
 ---------------------------------------------------------------------

 The electronic state is 1-A.
 Alpha  occ. eigenvalues --  -23.91875 -18.48712  -9.72946  -0.70726  -0.62703
 Alpha  occ. eigenvalues --   -0.35958  -0.18419  -0.15136  -0.13157  -0.07151
 Alpha  occ. eigenvalues --    0.00924   0.00927   0.04319   0.05588
 Alpha virt. eigenvalues --    0.27447   0.33193   0.33619   0.37320   0.50705
 Alpha virt. eigenvalues --    0.73730   0.75533   0.76275   0.89936   0.97127
 Alpha virt. eigenvalues --    0.98452   1.03449   1.15865   1.17019   1.19441

 Mulliken charges:
               1
     1  C   -0.138567
     2  O   -0.685472
     3  H   -0.000995
     4  H    0.052823
     5  H   -0.001032
     6  H    0.445546
     7  F   -0.672304
 Sum of Mulliken charges =  -1.00000

 Dipole moment (field-independent basis, Debye):
    X=             -1.3467    Y=             -0.9279    Z=             -0.0001  Tot=              1.6354
 Quadrupole moment (field-independent basis, Debye-Ang):
   XX=            -31.0028   YY=            -22.7030   ZZ=            -20.9444
   XY=              1.6532   XZ=              0.0003   YZ=             -0.0001

 Normal termination of Gaussian 16 at Wed Oct  7 14:15:01 2020.
