 Gaussian 16, Revision A.03,

 ----------------------------------------------------------------------
 #P Opt(TS,MaxCyc=50,NoEigenTest,MaxStep=10,AddRedundant) BP86/6-31G* 5
 D 7F Integral=UltraFineGrid SCF=(NoSymm,XQC,MaxCyc=120) EmpiricalDispe
 rsion=GD3BJ IOp(1/33=1)
 ----------------------------------------------------------------------

 TstMul:  Mul=     2
 TstMul:  ICh=     0
 TstMul:  Mul=     2
 Symbolic Z-matrix:
 Charge =  0 Multiplicity = 2

 SCF Done:  E(UB-P86) =  -185.162671788     A.U. after   17 cycles
 SCF Done:  E(UB-P86) =  -185.166012981     A.U. after   16 cycles
 SCF Done:  E(UB-P86) =  -185.165756607     A.U. after   15 cycles
 SCF Done:  E(UB-P86) =  -185.164929654     A.U. after   16 cycles
 SCF Done:  E(UB-P86) =  -185.164908871     A.U. after   16 cycles
 SCF Done:  E(UB-P86) =  -185.164944095     A.U. after   11 cycles
 SCF Done:  E(UB-P86) =  -185.164961579     A.U. after   13 cycles
 Optimization completed.
    -- Stationary point found.

 1\1\GINC-NODE22\FTS\UBP86\6-31G(d)\H1N2O1(2)\RPEVERATI\07-Oct-2020\0\\
 #P Opt(TS,MaxCyc=50,NoEigenTest,MaxStep=10,AddRedundant) BP86/6-31G* 5
 D 7F Integral=UltraFineGrid SCF=(NoSymm,XQC,MaxCyc=120) EmpiricalDispe
 rsion=GD3BJ IOp(1/33=1)\\TS search on BH76.\\0,2\H,-0.3416240555,-2.02
 63682993,0.\O,-0.8538072967,-0.6116545261,0.\N,0.0097005264,0.27614495
 33,0.\N,1.0487712968,0.7957731542,0.\\Version=ES64L-G16RevA.03\State=2
 -A'\HF=-185.1649616\S2=0.758825\S2-1=0.\S2A=0.750008\RMSD=9.990e-09\RM
 SF=1.998e-04\Dipole=-0.0937719,-0.0771722,0.\Quadrupole=-0.8890673,0.0

 Normal termination of Gaussian 16 at Wed Oct  7 14:11:24 2020.
 Gaussian 16:  ES64L-G16RevA.03 25-Dec-2016

 ----------------------------------------------------------------------
 #P Freq BP86/6-31G* 5D 7F Integral=UltraFineGrid SCF=(NoSymm,XQC,MaxCy
 c=120) EmpiricalDispersion=GD3BJ IOp(1/33=1) Geom=Check Guess=Read
 ----------------------------------------------------------------------

 TstMul:  Mul=     2
 TstMul:  ICh=     0
 TstMul:  Mul=     2
 Structure from the checkpoint file:  "MN_68_n2ohts_BH76_BP86DBJ_631Gs.chk"
 Charge =  0 Multiplicity = 2

                         Standard orientation:
 ---------------------------------------------------------------------
 Center     Atomic      Atomic             Coordinates (Angstroms)
 Number     Number       Type             X           Y           Z
 ---------------------------------------------------------------------
      1          1           0       -0.356956   -2.050885   -0.000000
      2          8           0       -0.865677   -0.634922    0.000000
      3          7           0       -0.000000    0.250762    0.000000
      4          7           0        1.040339    0.767847   -0.000000
 ---------------------------------------------------------------------

 SCF Done:  E(UB-P86) =  -185.164961579     A.U. after    1 cycles

 The electronic state is 2-A'.
 Alpha  occ. eigenvalues --  -18.91478 -14.21879 -14.11563  -1.12702  -0.97827
 Alpha  occ. eigenvalues --   -0.58537  -0.49348  -0.48818  -0.42689  -0.33891
 Alpha  occ. eigenvalues --   -0.30787  -0.19693
 Alpha virt. eigenvalues --   -0.08369  -0.07140   0.08671   0.40691   0.53614
 Alpha virt. eigenvalues --    0.55372   0.55893   0.64267   0.66414   0.68394
 Alpha virt. eigenvalues --    0.69312   0.71936   0.87006   0.87788   1.04000

  Beta  occ. eigenvalues --  -18.91396 -14.21705 -14.11086  -1.12262  -0.97278
  Beta  occ. eigenvalues --   -0.57717  -0.48539  -0.48494  -0.41706  -0.32000
  Beta  occ. eigenvalues --   -0.30496
  Beta virt. eigenvalues --   -0.12983  -0.06662  -0.04145   0.09209   0.41227
  Beta virt. eigenvalues --    0.55562   0.56145   0.56763   0.66967   0.68068
  Beta virt. eigenvalues --    0.69673   0.71456   0.74420   0.87091   0.88306

 Mulliken charges and spin densities:
               1          2
     1  H    0.045249   0.718153
     2  O   -0.353724  -0.063772
     3  N    0.409309   0.085610
     4  N   -0.100835   0.260010
 Sum of Mulliken charges =  -0.00000   1.00000

 Dipole moment (field-independent basis, Debye):
    X=             -0.2388    Y=             -0.1956    Z=             -0.0000  Tot=              0.3087
 Quadrupole moment (field-independent basis, Debye-Ang):
   XX=            -18.7489   YY=            -17.4741   ZZ=            -16.4143
   XY=             -1.4892   XZ=              0.0000   YZ=              0.0000

  Exact polarizability:  22.205  12.081  38.726   0.000   0.000   7.653
 Approx polarizability:  74.410  55.012 109.896   0.000  -0.000  11.829

 ******    1 imaginary frequencies (negative Signs) ******

                      1                      2                      3
                     A'                     A'                     A"
 Frequencies --  -1082.2376               453.1174               552.7433
 Red. masses --      1.5155                 1.3055                 4.9723
 Frc consts  --      1.0458                 0.1579                 0.8951
 IR Inten    --    353.0285                11.2870                 4.8328

                      4                      5                      6
                     A'                     A'                     A'
 Frequencies --    785.9799              1192.1706              2106.6386
 Red. masses --      2.5380                 5.9266                13.9429
 Frc consts  --      0.9238                 4.9628                36.4571
 IR Inten    --      0.2845                28.7087               215.1396

 - Thermochemistry -
 -------------------
 Temperature   298.150 Kelvin.  Pressure   1.00000 Atm.
 Atom     1 has atomic number  1 and mass   1.00783

 Molecular mass:    45.00889 amu.
 Principal axes and moments of inertia in atomic units:
                           1         2         3
     Eigenvalues --     8.78611 159.04921 167.83531
           X            0.76782  -0.64066   0.00000
           Y            0.64066   0.76782   0.00000
           Z           -0.00000   0.00000   1.00000
 This molecule is an asymmetric top.
 Rotational symmetry number  1.
 Rotational temperatures (Kelvin)      9.85805     0.54457     0.51606
 Rotational constants (GHZ):         205.40850    11.34706    10.75305
    1 imaginary frequencies ignored.
 Zero-point vibrational energy      30448.8 (Joules/Mol)
                                    7.27745 (Kcal/Mol)
 Warning -- explicit consideration of   2 degrees of freedom as
           vibrations may cause significant error
 Vibrational temperatures:    651.93   795.27  1130.85  1715.27  3030.98
          (Kelvin)

 Zero-point correction=                           0.011597 (Hartree/Particle)
 Thermal correction to Energy=                    0.014979
 Thermal correction to Enthalpy=                  0.015923
 Thermal correction to Gibbs Free Energy=        -0.012771
 Sum of electronic and zero-point Energies=           -185.153364
 Sum of electronic and thermal Energies=              -185.149982
 Sum of electronic and thermal Enthalpies=            -185.149038
 Sum of electronic and thermal Free Energies=         -185.177733

                     E (Thermal)             CV                S
                      KCal/Mol        Cal/Mol-Kelvin    Cal/Mol-Kelvin
 Total                    9.400              9.341             60.392
 Electronic               0.000              0.000              1.377
 Translational            0.889              2.981             37.338
 Rotational               0.889              2.981             20.089
 Vibrational              7.622              3.380              1.587
 Vibration     1          0.812              1.354              0.786
 Vibration     2          0.908              1.134              0.539

 Optimization completed.
    -- Stationary point found.
 Normal termination of Gaussian 16 at Wed Oct  7 14:11:53 2020.
