 Gaussian 16, Revision A.03,
 Gaussian 16:  ES64L-G16RevA.03 25-Dec-2016

 ----------------------------------------------------------------------
 #P Opt(MaxCyc=100) BP86/6-31G* 5D 7F Integral=UltraFineGrid SCF=(NoSym
 m,XQC,MaxCyc=120) EmpiricalDispersion=GD3BJ IOp(1/33=1)
 ----------------------------------------------------------------------

 TstMul:  Mul=     1
 TstMul:  ICh=    -1
 TstMul:  Mul=     1
 Symbolic Z-matrix:
 Charge = -1 Multiplicity = 1

 SCF Done:  E(RB-P86) =  -215.476202392     A.U. after   15 cycles
 SCF Done:  E(RB-P86) =  -215.481139717     A.U. after   13 cycles
 SCF Done:  E(RB-P86) =  -215.485124169     A.U. after   15 cycles
 SCF Done:  E(RB-P86) =  -215.487007376     A.U. after   13 cycles
 SCF Done:  E(RB-P86) =  -215.487396427     A.U. after   13 cycles
 SCF Done:  E(RB-P86) =  -215.487973793     A.U. after   12 cycles
 SCF Done:  E(RB-P86) =  -215.488101372     A.U. after   11 cycles
 SCF Done:  E(RB-P86) =  -215.488187837     A.U. after   12 cycles
 SCF Done:  E(RB-P86) =  -215.488218083     A.U. after   11 cycles
 SCF Done:  E(RB-P86) =  -215.488263177     A.U. after   11 cycles
 SCF Done:  E(RB-P86) =  -215.493903229     A.U. after   13 cycles
 SCF Done:  E(RB-P86) =  -215.494114258     A.U. after   11 cycles
 SCF Done:  E(RB-P86) =  -215.494192134     A.U. after   11 cycles
 SCF Done:  E(RB-P86) =  -215.494236114     A.U. after   12 cycles
 SCF Done:  E(RB-P86) =  -215.494297127     A.U. after   11 cycles
 SCF Done:  E(RB-P86) =  -215.494317879     A.U. after   11 cycles
 SCF Done:  E(RB-P86) =  -215.494333192     A.U. after   11 cycles
 SCF Done:  E(RB-P86) =  -215.494336873     A.U. after   11 cycles
 SCF Done:  E(RB-P86) =  -215.494337109     A.U. after    8 cycles
 SCF Done:  E(RB-P86) =  -215.494337279     A.U. after    8 cycles
 Optimization completed.
    -- Stationary point found.

                         Standard orientation:
 ---------------------------------------------------------------------
 Center     Atomic      Atomic             Coordinates (Angstroms)
 Number     Number       Type             X           Y           Z
 ---------------------------------------------------------------------
      1          9           0        1.661715   -0.426916   -0.014985
      2          6           0        0.555718    0.497424    0.016616
      3          1           0        0.737959    1.242206   -0.796082
      4          1           0       -0.561902    0.034075   -0.091620
      5          1           0        0.641435    1.060626    0.978332
      6          8           0       -2.117785   -0.143450   -0.113726
      7          1           0       -2.164951   -0.331605    0.854345
 ---------------------------------------------------------------------

 The electronic state is 1-A.
 Alpha  occ. eigenvalues --  -24.05394 -18.41152  -9.73505  -0.84960  -0.50391
 Alpha  occ. eigenvalues --   -0.39495  -0.20406  -0.19226  -0.16815  -0.07195
 Alpha  occ. eigenvalues --   -0.06718  -0.03150   0.11239   0.11769
 Alpha virt. eigenvalues --    0.27096   0.28359   0.31925   0.33417   0.47705
 Alpha virt. eigenvalues --    0.68198   0.72282   0.75624   0.98349   0.99606
 Alpha virt. eigenvalues --    1.04660   1.07584   1.12587   1.19580   1.28909

 Mulliken charges:
               1
     1  F   -0.384894
     2  C   -0.234100
     3  H    0.049084
     4  H    0.246300
     5  H    0.045283
     6  O   -0.947923
     7  H    0.226251
 Sum of Mulliken charges =  -1.00000

 Dipole moment (field-independent basis, Debye):
    X=              4.8815    Y=              0.7691    Z=              1.2897  Tot=              5.1072
 Quadrupole moment (field-independent basis, Debye-Ang):
   XX=            -40.7353   YY=            -21.1287   ZZ=            -19.4015
   XY=             -0.0403   XZ=             -2.9009   YZ=             -0.5392

 Normal termination of Gaussian 16 at Wed Oct  7 14:18:46 2020.
