 Gaussian 16, Revision A.03,
 Gaussian 16:  ES64L-G16RevA.03 25-Dec-2016

 ----------------------------------------------------------------------
 #P Opt(MaxCyc=100) BP86/6-31G* 5D 7F Integral=UltraFineGrid SCF=(NoSym
 m,XQC,MaxCyc=120) EmpiricalDispersion=GD3BJ IOp(1/33=1)
 ----------------------------------------------------------------------

 TstMul:  Mul=     3
 TstMul:  ICh=     0
 TstMul:  Mul=     3
 Symbolic Z-matrix:
 Charge =  0 Multiplicity = 3

 SCF Done:  E(UB-P86) =  -55.2107723402     A.U. after   11 cycles
 SCF Done:  E(UB-P86) =  -55.2110920579     A.U. after    8 cycles
 SCF Done:  E(UB-P86) =  -55.2110956724     A.U. after    7 cycles
 Optimization completed.
    -- Stationary point found.

                         Standard orientation:
 ---------------------------------------------------------------------
 Center     Atomic      Atomic             Coordinates (Angstroms)
 Number     Number       Type             X           Y           Z
 ---------------------------------------------------------------------
      1          7           0        0.000000    0.000000    0.132368
      2          1           0        0.000000    0.000000   -0.926578
 ---------------------------------------------------------------------

 The electronic state is 3-SG.
 Alpha  occ. eigenvalues --  -14.09001  -0.75661  -0.34627  -0.27665  -0.27665
 Alpha virt. eigenvalues --    0.06125   0.58960   0.58960   0.66556   0.68829
 Alpha virt. eigenvalues --    0.90504   1.57980   1.57980   1.58317   1.58317
 Alpha virt. eigenvalues --    2.11420
  Beta  occ. eigenvalues --  -14.05488  -0.66592  -0.30764
  Beta virt. eigenvalues --   -0.13998  -0.13998   0.07923   0.69390   0.69390
  Beta virt. eigenvalues --    0.69965   0.70714   0.97976   1.65521   1.65521
  Beta virt. eigenvalues --    1.73220   1.73220   2.17274

 Mulliken charges and spin densities:
               1          2
     1  N   -0.290287   2.064568
     2  H    0.290287  -0.064568
 Sum of Mulliken charges =  -0.00000   2.00000

 Dipole moment (field-independent basis, Debye):
    X=              0.0000    Y=             -0.0000    Z=             -1.5620  Tot=              1.5620
 Quadrupole moment (field-independent basis, Debye-Ang):
   XX=             -6.1867   YY=             -6.1867   ZZ=             -5.7696
   XY=             -0.0000   XZ=              0.0000   YZ=              0.0000

 Normal termination of Gaussian 16 at Wed Oct  7 14:10:21 2020.
