 Gaussian 16, Revision A.03,
 Gaussian 16:  ES64L-G16RevA.03 25-Dec-2016

 ----------------------------------------------------------------------
 #P Opt(MaxCyc=100) BP86/6-31G* 5D 7F Integral=UltraFineGrid SCF=(NoSym
 m,XQC,MaxCyc=120) EmpiricalDispersion=GD3BJ IOp(1/33=1)
 ----------------------------------------------------------------------

 TstMul:  Mul=     1
 TstMul:  ICh=     0
 TstMul:  Mul=     1
 Symbolic Z-matrix:
 Charge =  0 Multiplicity = 1

 SCF Done:  E(RB-P86) =  -93.3913691691     A.U. after   11 cycles
 SCF Done:  E(RB-P86) =  -93.3922826094     A.U. after   10 cycles
 SCF Done:  E(RB-P86) =  -93.3922879750     A.U. after    7 cycles
 Optimization completed.
    -- Stationary point found.

                         Standard orientation:
 ---------------------------------------------------------------------
 Center     Atomic      Atomic             Coordinates (Angstroms)
 Number     Number       Type             X           Y           Z
 ---------------------------------------------------------------------
      1          6           0        0.000000    0.000000   -0.751401
      2          7           0        0.000000    0.000000    0.437363
      3          1           0        0.000000    0.000000    1.446859
 ---------------------------------------------------------------------

 The electronic state is 1-SG.
 Alpha  occ. eigenvalues --  -14.05812  -9.95985  -0.85736  -0.60502  -0.32849
 Alpha  occ. eigenvalues --   -0.32849  -0.26711
 Alpha virt. eigenvalues --   -0.01653  -0.01653   0.04074   0.32114   0.46151
 Alpha virt. eigenvalues --    0.51397   0.51397   0.60520   0.67739   0.67739
 Alpha virt. eigenvalues --    0.86012   1.11176   1.36619   1.42813   1.42813

 Mulliken charges:
               1
     1  C    0.018758
     2  N   -0.382477
     3  H    0.363719
 Sum of Mulliken charges =  -0.00000

 Dipole moment (field-independent basis, Debye):
    X=              0.0000    Y=              0.0000    Z=              2.9555  Tot=              2.9555
 Quadrupole moment (field-independent basis, Debye-Ang):
   XX=            -11.5635   YY=            -11.5635   ZZ=             -9.8713
   XY=              0.0000   XZ=              0.0000   YZ=             -0.0000

 Normal termination of Gaussian 16 at Wed Oct  7 14:09:59 2020.
