 Gaussian 16, Revision A.03,

 ----------------------------------------------------------------------
 #P Opt(TS,MaxCyc=50,NoEigenTest,MaxStep=10,AddRedundant) BP86/6-31G* 5
 D 7F Integral=UltraFineGrid SCF=(NoSymm,XQC,MaxCyc=120) EmpiricalDispe
 rsion=GD3BJ IOp(1/33=1)
 ----------------------------------------------------------------------

 TstMul:  Mul=     1
 TstMul:  ICh=    -1
 TstMul:  Mul=     1
 Symbolic Z-matrix:
 Charge = -1 Multiplicity = 1

 SCF Done:  E(RB-P86) =  -215.479892619     A.U. after   14 cycles
 SCF Done:  E(RB-P86) =  -215.481509296     A.U. after   13 cycles
 SCF Done:  E(RB-P86) =  -215.481667627     A.U. after   11 cycles
 SCF Done:  E(RB-P86) =  -215.481758271     A.U. after   12 cycles
 SCF Done:  E(RB-P86) =  -215.481770429     A.U. after    9 cycles
 SCF Done:  E(RB-P86) =  -215.481780625     A.U. after    9 cycles
 SCF Done:  E(RB-P86) =  -215.481758737     A.U. after   12 cycles
 SCF Done:  E(RB-P86) =  -215.481761936     A.U. after    9 cycles
 SCF Done:  E(RB-P86) =  -215.481764256     A.U. after    9 cycles
 SCF Done:  E(RB-P86) =  -215.481764740     A.U. after    8 cycles
 SCF Done:  E(RB-P86) =  -215.481764892     A.U. after    8 cycles
 Optimization completed.
    -- Stationary point found.
 Normal termination of Gaussian 16 at Wed Oct  7 14:12:05 2020.
 Gaussian 16:  ES64L-G16RevA.03 25-Dec-2016

 ----------------------------------------------------------------------
 #P Freq BP86/6-31G* 5D 7F Integral=UltraFineGrid SCF=(NoSymm,XQC,MaxCy
 c=120) EmpiricalDispersion=GD3BJ IOp(1/33=1) Geom=Check Guess=Read
 ----------------------------------------------------------------------

 TstMul:  Mul=     1
 TstMul:  ICh=    -1
 TstMul:  Mul=     1
 Structure from the checkpoint file:  "MN_63_hoch3fts_BH76_BP86DBJ_631Gs.chk"
 Charge = -1 Multiplicity = 1

                         Standard orientation:
 ---------------------------------------------------------------------
 Center     Atomic      Atomic             Coordinates (Angstroms)
 Number     Number       Type             X           Y           Z
 ---------------------------------------------------------------------
      1          9           0        1.869053   -0.021633    0.000023
      2          6           0        0.076471    0.031024   -0.000011
      3          1           0        0.031578    1.117452   -0.001199
      4          1           0        0.015845   -0.502534   -0.945656
      5          1           0        0.015391   -0.500462    0.946760
      6          8           0       -1.910851    0.096489   -0.000012
      7          1           0       -2.056312   -0.877813    0.000057
 ---------------------------------------------------------------------

 SCF Done:  E(RB-P86) =  -215.481764892     A.U. after    1 cycles

 The electronic state is 1-A.
 Alpha  occ. eigenvalues --  -23.90984 -18.46443  -9.72647  -0.67729  -0.55715
 Alpha  occ. eigenvalues --   -0.37475  -0.16205  -0.16154  -0.08387  -0.04713
 Alpha  occ. eigenvalues --    0.02832   0.02948   0.06242   0.07727
 Alpha virt. eigenvalues --    0.25974   0.27851   0.33510   0.34817   0.35085
 Alpha virt. eigenvalues --    0.74194   0.74892   0.85392   0.96218   1.02357
 Alpha virt. eigenvalues --    1.04889   1.06713   1.13547   1.16750   1.28194

 Mulliken charges:
               1
     1  F   -0.580080
     2  C   -0.186734
     3  H    0.129937
     4  H    0.116796
     5  H    0.116846
     6  O   -0.856346
     7  H    0.259582
 Sum of Mulliken charges =  -1.00000

 Dipole moment (field-independent basis, Debye):
    X=              0.3888    Y=             -1.1811    Z=              0.0000  Tot=              1.2434
 Quadrupole moment (field-independent basis, Debye-Ang):
   XX=            -40.3171   YY=            -18.2403   ZZ=            -19.7170
   XY=              2.9247   XZ=             -0.0007   YZ=             -0.0001

  Exact polarizability:  41.309   2.310  20.877  -0.002   0.000  16.391
 Approx polarizability:  92.313   0.209  31.305  -0.002  -0.000  22.461

 ******    1 imaginary frequencies (negative Signs) ******

                      1                      2                      3
                      A                      A                      A
 Frequencies --   -420.2328               208.6115               284.1435
 Red. masses --      9.4469                 1.0520                 3.3505
 Frc consts  --      0.9829                 0.0270                 0.1594
 IR Inten    --    651.4881                43.5864                11.9031

                      4                      5                      6
                      A                      A                      A
 Frequencies --    302.8017               328.8575               771.2967
 Red. masses --      4.4481                13.0826                 1.1230
 Frc consts  --      0.2403                 0.8336                 0.3936
 IR Inten    --     18.9901                 5.5135                27.5609

                      7                      8                      9
                      A                      A                      A
 Frequencies --    928.9422               972.5928              1056.2022
 Red. masses --      1.0211                 1.0640                 1.0589
 Frc consts  --      0.5192                 0.5930                 0.6960
 IR Inten    --      0.0100                 5.3432                 0.5782

                     10                     11                     12
                      A                      A                      A
 Frequencies --   1331.6086              1337.3059              3045.6882
 Red. masses --      1.1264                 1.1158                 1.0086
 Frc consts  --      1.1767                 1.1757                 5.5122
 IR Inten    --      1.0707                 1.8251                 0.2173

                     13                     14                     15
                      A                      A                      A
 Frequencies --   3225.4170              3230.1450              3505.8281
 Red. masses --      1.1282                 1.1258                 1.0676
 Frc consts  --      6.9155                 6.9206                 7.7313
 IR Inten    --     57.0209                47.8910                80.4865

 - Thermochemistry -
 -------------------
 Temperature   298.150 Kelvin.  Pressure   1.00000 Atm.
 Atom     1 has atomic number  9 and mass  18.99840

 Molecular mass:    51.02462 amu.
 Principal axes and moments of inertia in atomic units:
                           1         2         3
     Eigenvalues --    15.98625 466.54836 469.64570
           X            0.99989   0.01510  -0.00000
           Y           -0.01510   0.99989   0.00001
           Z            0.00000  -0.00001   1.00000
 This molecule is an asymmetric top.
 Rotational symmetry number  1.
 Rotational temperatures (Kelvin)      5.41803     0.18565     0.18442
 Rotational constants (GHZ):         112.89337     3.86828     3.84277
    1 imaginary frequencies ignored.
 Zero-point vibrational energy     122793.3 (Joules/Mol)
                                   29.34831 (Kcal/Mol)
 Warning -- explicit consideration of   4 degrees of freedom as
           vibrations may cause significant error
 Vibrational temperatures:    300.15   408.82   435.66   473.15  1109.72
          (Kelvin)           1336.54  1399.34  1519.64  1915.89  1924.08
                             4382.07  4640.66  4647.46  5044.10

 Zero-point correction=                           0.046770 (Hartree/Particle)
 Thermal correction to Energy=                    0.051617
 Thermal correction to Enthalpy=                  0.052561
 Thermal correction to Gibbs Free Energy=         0.020584
 Sum of electronic and zero-point Energies=           -215.434995
 Sum of electronic and thermal Energies=              -215.430148
 Sum of electronic and thermal Enthalpies=            -215.429203
 Sum of electronic and thermal Free Energies=         -215.461181

                     E (Thermal)             CV                S
                      KCal/Mol        Cal/Mol-Kelvin    Cal/Mol-Kelvin
 Total                   32.390             14.932             67.302
 Electronic               0.000              0.000              0.000
 Translational            0.889              2.981             37.712
 Rotational               0.889              2.981             22.776
 Vibrational             30.613              8.970              6.814
 Vibration     1          0.642              1.828              2.056
 Vibration     2          0.683              1.703              1.509
 Vibration     3          0.694              1.668              1.401
 Vibration     4          0.712              1.618              1.266

 Optimization completed.
    -- Stationary point found.
 Normal termination of Gaussian 16 at Wed Oct  7 14:12:34 2020.
