 Gaussian 16, Revision A.03,
 Gaussian 16:  ES64L-G16RevA.03 25-Dec-2016

 ----------------------------------------------------------------------
 #P Opt(MaxCyc=100) BP86/6-31G* 5D 7F Integral=UltraFineGrid SCF=(NoSym
 m,XQC,MaxCyc=120) EmpiricalDispersion=GD3BJ IOp(1/33=1)
 ----------------------------------------------------------------------

 TstMul:  Mul=     1
 TstMul:  ICh=     0
 TstMul:  Mul=     1
 Symbolic Z-matrix:
 Charge =  0 Multiplicity = 1

 SCF Done:  E(RB-P86) =  -343.153593604     A.U. after   10 cycles
 SCF Done:  E(RB-P86) =  -343.154302610     A.U. after    9 cycles
 SCF Done:  E(RB-P86) =  -343.154317188     A.U. after    7 cycles
 Optimization completed.
    -- Stationary point found.

                         Standard orientation:
 ---------------------------------------------------------------------
 Center     Atomic      Atomic             Coordinates (Angstroms)
 Number     Number       Type             X           Y           Z
 ---------------------------------------------------------------------
      1         15           0        0.000000    0.000000    0.131929
      2          1           0        0.000000    1.199092   -0.659645
      3          1           0        1.038444   -0.599546   -0.659645
      4          1           0       -1.038444   -0.599546   -0.659645
 ---------------------------------------------------------------------

 The electronic state is 1-A1.
 Alpha  occ. eigenvalues --  -76.35061  -6.31344  -4.53050  -4.53050  -4.52578
 Alpha  occ. eigenvalues --   -0.59005  -0.34793  -0.34793  -0.24629
 Alpha virt. eigenvalues --   -0.00009  -0.00009   0.08022   0.25468   0.25468
 Alpha virt. eigenvalues --    0.27433   0.36314   0.60623   0.60623   0.62452
 Alpha virt. eigenvalues --    0.63604   0.63604   0.87845   1.06718   1.06718

 Mulliken charges:
               1
     1  P   -0.142065
     2  H    0.047355
     3  H    0.047355
     4  H    0.047355
 Sum of Mulliken charges =  -0.00000

 Dipole moment (field-independent basis, Debye):
    X=             -0.0000    Y=             -0.0000    Z=             -1.0198  Tot=              1.0198
 Quadrupole moment (field-independent basis, Debye-Ang):
   XX=            -14.6491   YY=            -14.6491   ZZ=            -16.9380
   XY=             -0.0000   XZ=              0.0000   YZ=             -0.0000

 Normal termination of Gaussian 16 at Wed Oct  7 14:10:47 2020.
