 Gaussian 16, Revision A.03,
 Gaussian 16:  ES64L-G16RevA.03 25-Dec-2016

 ----------------------------------------------------------------------
 #P Opt(MaxCyc=100) BP86/6-31G* 5D 7F Integral=UltraFineGrid SCF=(NoSym
 m,XQC,MaxCyc=120) EmpiricalDispersion=GD3BJ IOp(1/33=1)
 ----------------------------------------------------------------------

 TstMul:  Mul=     1
 TstMul:  ICh=     0
 TstMul:  Mul=     1
 Symbolic Z-matrix:
 Charge =  0 Multiplicity = 1

 SCF Done:  E(RB-P86) =  -56.5455522445     A.U. after    9 cycles
 SCF Done:  E(RB-P86) =  -56.5461871037     A.U. after    9 cycles
 SCF Done:  E(RB-P86) =  -56.5462689298     A.U. after    8 cycles
 SCF Done:  E(RB-P86) =  -56.5462718995     A.U. after    6 cycles
 Optimization completed.
    -- Stationary point found.

                         Standard orientation:
 ---------------------------------------------------------------------
 Center     Atomic      Atomic             Coordinates (Angstroms)
 Number     Number       Type             X           Y           Z
 ---------------------------------------------------------------------
      1          7           0        0.000000    0.000000    0.122992
      2          1           0        0.000000    0.943418   -0.286981
      3          1           0        0.817024   -0.471709   -0.286981
      4          1           0       -0.817024   -0.471709   -0.286981
 ---------------------------------------------------------------------

 The electronic state is 1-A1.
 Alpha  occ. eigenvalues --  -13.98569  -0.76734  -0.40134  -0.40134  -0.20520
 Alpha virt. eigenvalues --    0.05697   0.13921   0.13921   0.64064   0.64064
 Alpha virt. eigenvalues --    0.67309   0.85351   0.85351   0.86708   1.19204
 Alpha virt. eigenvalues --    1.60318   1.60318   1.85482   2.30836   2.30836

 Mulliken charges:
               1
     1  N   -0.896905
     2  H    0.298968
     3  H    0.298968
     4  H    0.298968
 Sum of Mulliken charges =  -0.00000

 Dipole moment (field-independent basis, Debye):
    X=              0.0000    Y=              0.0000    Z=             -1.9314  Tot=              1.9314
 Quadrupole moment (field-independent basis, Debye-Ang):
   XX=             -6.1873   YY=             -6.1873   ZZ=             -8.8002
   XY=             -0.0000   XZ=             -0.0000   YZ=             -0.0000

 Normal termination of Gaussian 16 at Wed Oct  7 14:10:38 2020.
