 Gaussian 16, Revision A.03,
 Gaussian 16:  ES64L-G16RevA.03 25-Dec-2016

 ----------------------------------------------------------------------
 #P Opt(MaxCyc=100) BP86/6-31G* 5D 7F Integral=UltraFineGrid SCF=(NoSym
 m,XQC,MaxCyc=120) EmpiricalDispersion=GD3BJ IOp(1/33=1)
 ----------------------------------------------------------------------

 TstMul:  Mul=     2
 TstMul:  ICh=     0
 TstMul:  Mul=     2
 Symbolic Z-matrix:
 Charge =  0 Multiplicity = 2

 SCF Done:  E(UB-P86) =  -55.8672462514     A.U. after   11 cycles
 SCF Done:  E(UB-P86) =  -55.8678297324     A.U. after   10 cycles
 SCF Done:  E(UB-P86) =  -55.8678537455     A.U. after    8 cycles
 Optimization completed.
    -- Stationary point found.

                         Standard orientation:
 ---------------------------------------------------------------------
 Center     Atomic      Atomic             Coordinates (Angstroms)
 Number     Number       Type             X           Y           Z
 ---------------------------------------------------------------------
      1          7           0        0.000000    0.000000    0.147051
      2          1           0       -0.000000    0.808705   -0.514677
      3          1           0       -0.000000   -0.808705   -0.514677
 ---------------------------------------------------------------------

 The electronic state is 2-B1.
 Alpha  occ. eigenvalues --  -14.04246  -0.77125  -0.41545  -0.27134  -0.25829
 Alpha virt. eigenvalues --    0.05247   0.11864   0.60217   0.63590   0.66749
 Alpha virt. eigenvalues --    0.77227   0.82201   1.03124   1.58194   1.60218
 Alpha virt. eigenvalues --    1.60773   1.99106   2.27292
  Beta  occ. eigenvalues --  -14.02482  -0.72850  -0.40312  -0.24992
  Beta virt. eigenvalues --   -0.14421   0.06324   0.12463   0.64142   0.68336
  Beta virt. eigenvalues --    0.69254   0.79397   0.83288   1.07731   1.62219
  Beta virt. eigenvalues --    1.65137   1.67515   2.06981   2.28364

 Mulliken charges and spin densities:
               1          2
     1  N   -0.586462   1.070013
     2  H    0.293231  -0.035006
     3  H    0.293231  -0.035006
 Sum of Mulliken charges =  -0.00000   1.00000

 Dipole moment (field-independent basis, Debye):
    X=             -0.0000    Y=              0.0000    Z=             -1.9897  Tot=              1.9897
 Quadrupole moment (field-independent basis, Debye-Ang):
   XX=             -6.9886   YY=             -5.5691   ZZ=             -7.3205
   XY=              0.0000   XZ=              0.0000   YZ=             -0.0000

 Normal termination of Gaussian 16 at Wed Oct  7 14:10:32 2020.
