 Gaussian 16, Revision A.03,
 Gaussian 16:  ES64L-G16RevA.03 25-Dec-2016

 ----------------------------------------------------------------------
 #P Opt(MaxCyc=100) BP86/6-31G* 5D 7F Integral=UltraFineGrid SCF=(NoSym
 m,XQC,MaxCyc=120) EmpiricalDispersion=GD3BJ IOp(1/33=1)
 ----------------------------------------------------------------------

 TstMul:  Mul=     2
 TstMul:  ICh=     0
 TstMul:  Mul=     2
 Symbolic Z-matrix:
 Charge =  0 Multiplicity = 2

 SCF Done:  E(UB-P86) =  -342.516332915     A.U. after   12 cycles
 SCF Done:  E(UB-P86) =  -342.516854844     A.U. after   11 cycles
 SCF Done:  E(UB-P86) =  -342.516856072     A.U. after    6 cycles
 Optimization completed.
    -- Stationary point found.

                         Standard orientation:
 ---------------------------------------------------------------------
 Center     Atomic      Atomic             Coordinates (Angstroms)
 Number     Number       Type             X           Y           Z
 ---------------------------------------------------------------------
      1         15           0        0.000000    0.000000    0.119059
      2          1           0       -0.000000    1.028509   -0.892940
      3          1           0       -0.000000   -1.028509   -0.892940
 ---------------------------------------------------------------------

 The electronic state is 2-B1.
 Alpha  occ. eigenvalues --  -76.36821  -6.32844  -4.54909  -4.54433  -4.54098
 Alpha  occ. eigenvalues --   -0.58143  -0.35152  -0.27879  -0.22014
 Alpha virt. eigenvalues --   -0.00621   0.04254   0.21116   0.24978   0.26476
 Alpha virt. eigenvalues --    0.27019   0.58515   0.59205   0.60085   0.63064
 Alpha virt. eigenvalues --    0.68003   0.89397   1.05077
  Beta  occ. eigenvalues --  -76.36475  -6.32462  -4.54193  -4.53874  -4.53868
  Beta  occ. eigenvalues --   -0.55744  -0.34564  -0.26589
  Beta virt. eigenvalues --   -0.15407   0.00080   0.06256   0.24011   0.25831
  Beta virt. eigenvalues --    0.27983   0.30712   0.60817   0.63235   0.63669
  Beta virt. eigenvalues --    0.64198   0.73030   0.90802   1.05525

 Mulliken charges and spin densities:
               1          2
     1  P   -0.032411   1.075275
     2  H    0.016206  -0.037637
     3  H    0.016206  -0.037637
 Sum of Mulliken charges =  -0.00000   1.00000

 Dipole moment (field-independent basis, Debye):
    X=              0.0000    Y=              0.0000    Z=             -0.9008  Tot=              0.9008
 Quadrupole moment (field-independent basis, Debye-Ang):
   XX=            -14.9792   YY=            -13.9658   ZZ=            -15.3757
   XY=              0.0000   XZ=             -0.0000   YZ=             -0.0000

 Normal termination of Gaussian 16 at Wed Oct  7 14:10:56 2020.
