 Gaussian 16, Revision A.03,

 ----------------------------------------------------------------------
 #P Opt(TS,MaxCyc=50,NoEigenTest,MaxStep=10,AddRedundant) BP86/6-31G* 5
 D 7F Integral=UltraFineGrid SCF=(NoSymm,XQC,MaxCyc=120) EmpiricalDispe
 rsion=GD3BJ IOp(1/33=1)
 ----------------------------------------------------------------------

 TstMul:  Mul=     2
 TstMul:  ICh=     0
 TstMul:  Mul=     2
 Symbolic Z-matrix:
 Charge =  0 Multiplicity = 2

 SCF Done:  E(UB-P86) =  -461.325718385     A.U. after   12 cycles
 SCF Done:  E(UB-P86) =  -461.328180668     A.U. after   10 cycles
 SCF Done:  E(UB-P86) =  -461.329717332     A.U. after   11 cycles
 SCF Done:  E(UB-P86) =  -461.330655674     A.U. after   11 cycles
 SCF Done:  E(UB-P86) =  -461.331242561     A.U. after   11 cycles
 SCF Done:  E(UB-P86) =  -461.331640243     A.U. after   11 cycles
 SCF Done:  E(UB-P86) =  -461.331929306     A.U. after   11 cycles
 SCF Done:  E(UB-P86) =  -461.332140887     A.U. after   11 cycles
 SCF Done:  E(UB-P86) =  -461.332290759     A.U. after   11 cycles
 SCF Done:  E(UB-P86) =  -461.332392168     A.U. after   11 cycles
 SCF Done:  E(UB-P86) =  -461.332451760     A.U. after   11 cycles
 SCF Done:  E(UB-P86) =  -461.332471904     A.U. after   11 cycles
 SCF Done:  E(UB-P86) =  -461.332473590     A.U. after    8 cycles
 Optimization completed.
    -- Stationary point found.
 Normal termination of Gaussian 16 at Wed Oct  7 14:13:06 2020.
 Gaussian 16:  ES64L-G16RevA.03 25-Dec-2016

 ----------------------------------------------------------------------
 #P Freq BP86/6-31G* 5D 7F Integral=UltraFineGrid SCF=(NoSymm,XQC,MaxCy
 c=120) EmpiricalDispersion=GD3BJ IOp(1/33=1) Geom=Check Guess=Read
 ----------------------------------------------------------------------

 TstMul:  Mul=     2
 TstMul:  ICh=     0
 TstMul:  Mul=     2
 Structure from the checkpoint file:  "MN_78_RKT01_BH76_BP86DBJ_631Gs.chk"
 Charge =  0 Multiplicity = 2

                         Standard orientation:
 ---------------------------------------------------------------------
 Center     Atomic      Atomic             Coordinates (Angstroms)
 Number     Number       Type             X           Y           Z
 ---------------------------------------------------------------------
      1          1           0        0.000000    0.000000   -1.694221
      2         17           0        0.000000    0.000000    0.245198
      3          1           0        0.000000    0.000000   -2.474140
 ---------------------------------------------------------------------

 SCF Done:  E(UB-P86) =  -461.332473590     A.U. after    1 cycles

 The electronic state is 2-SG.
 Alpha  occ. eigenvalues -- -100.75049  -9.21094  -7.04375  -7.02263  -7.02263
 Alpha  occ. eigenvalues --   -0.75594  -0.45506  -0.32282  -0.29642  -0.29642
 Alpha virt. eigenvalues --    0.07122   0.32585   0.39890   0.39890   0.42158
 Alpha virt. eigenvalues --    0.59436   0.74841   0.74841   0.79254   0.79254
 Alpha virt. eigenvalues --    0.87354   1.07361
  Beta  occ. eigenvalues -- -100.74556  -9.20607  -7.02992  -7.01962  -7.01962
  Beta  occ. eigenvalues --   -0.72226  -0.43290  -0.28397  -0.28397
  Beta virt. eigenvalues --   -0.26537   0.08753   0.34696   0.40551   0.40551
  Beta virt. eigenvalues --    0.45421   0.62537   0.79649   0.79649   0.79959
  Beta virt. eigenvalues --    0.79959   0.92117   1.08886

 Mulliken charges and spin densities:
               1          2
     1  H   -0.040841  -0.035223
     2  Cl  -0.073132   0.834105
     3  H    0.113973   0.201118
 Sum of Mulliken charges =  -0.00000   1.00000

 Dipole moment (field-independent basis, Debye):
    X=              0.0000    Y=             -0.0000    Z=             -1.1312  Tot=              1.1312
 Quadrupole moment (field-independent basis, Debye-Ang):
   XX=            -15.0582   YY=            -15.0582   ZZ=            -10.2209
   XY=             -0.0000   XZ=              0.0000   YZ=             -0.0000

  Exact polarizability:   5.873   0.000   5.873   0.000  -0.000  30.296
 Approx polarizability:   7.577  -0.000   7.577   0.000  -0.000  51.570

                      1                      2                      3
                     PI                     PI                     SG
 Frequencies --    297.4527               297.4527               308.8511
 Red. masses --      1.0094                 1.0094                 1.0640
 Frc consts  --      0.0526                 0.0526                 0.0598
 IR Inten    --      2.7536                 2.7536                43.8933

                      4
                     SG
 Frequencies --   3674.6471
 Red. masses --      1.0079
 Frc consts  --      8.0188
 IR Inten    --    354.9231

 - Thermochemistry -
 -------------------
 Temperature   298.150 Kelvin.  Pressure   1.00000 Atm.
 Atom     1 has atomic number  1 and mass   1.00783

 Molecular mass:    36.98450 amu.
 Principal axes and moments of inertia in atomic units:
                           1         2         3
     Eigenvalues --     0.00000  38.02248  38.02248
           X            0.00000   0.00000   1.00000
           Y            0.00000   1.00000   0.00000
           Z            1.00000   0.00000   0.00000
 This molecule is a prolate symmetric top.
 Rotational symmetry number  1.
 Rotational temperature (Kelvin)      2.27797
 Rotational constant (GHZ):          47.465115
 Zero-point vibrational energy      27384.9 (Joules/Mol)
                                    6.54516 (Kcal/Mol)
 Warning -- explicit consideration of   3 degrees of freedom as
           vibrations may cause significant error
 Vibrational temperatures:    427.97   427.97   444.37  5287.00
          (Kelvin)

 Zero-point correction=                           0.010430 (Hartree/Particle)
 Thermal correction to Energy=                    0.014047
 Thermal correction to Enthalpy=                  0.014991
 Thermal correction to Gibbs Free Energy=        -0.010683
 Sum of electronic and zero-point Energies=           -461.322043
 Sum of electronic and thermal Energies=              -461.318427
 Sum of electronic and thermal Enthalpies=            -461.317483
 Sum of electronic and thermal Free Energies=         -461.343156

                     E (Thermal)             CV                S
                      KCal/Mol        Cal/Mol-Kelvin    Cal/Mol-Kelvin
 Total                    8.814              9.982             54.035
 Electronic               0.000              0.000              1.377
 Translational            0.889              2.981             36.753
 Rotational               0.592              1.987             11.673
 Vibrational              7.333              5.014              4.231
 Vibration     1          0.691              1.678              1.431
 Vibration     2          0.691              1.678              1.431
 Vibration     3          0.698              1.657              1.368

 Optimization completed.
    -- Stationary point found.

 1\1\GINC-NODE62\Freq\UBP86\6-31G(d)\Cl1H2(2)\RPEVERATI\07-Oct-2020\0\\
 #P Freq BP86/6-31G* 5D 7F Integral=UltraFineGrid SCF=(NoSymm,XQC,MaxCy
 c=120) EmpiricalDispersion=GD3BJ IOp(1/33=1) Geom=Check Guess=Read\\TS
  search on BH76.\\0,2\H,0.,0.,-1.4705123216\Cl,0.,0.,0.4689064423\H,0.
 ,0.,-2.2504309734\\Version=ES64L-G16RevA.03\State=2-SG\HF=-461.3324736
 \S2=0.752325\S2-1=0.\S2A=0.750003\RMSD=3.111e-10\RMSF=5.019e-05\ZeroPo
 int=0.0104304\Thermal=0.0140467\Dipole=0.,0.,-0.4450629\DipoleDeriv=-0
 .002991,0.,0.,0.,-0.002991,0.,0.,0.,-0.5627869,-0.0857675,0.,0.,0.,-0.

 Normal termination of Gaussian 16 at Wed Oct  7 14:13:22 2020.
