 Gaussian 16, Revision A.03,

 ----------------------------------------------------------------------
 #P Opt(TS,MaxCyc=50,NoEigenTest,MaxStep=10,AddRedundant) BP86/6-31G* 5
 D 7F Integral=UltraFineGrid SCF=(NoSymm,XQC,MaxCyc=120) EmpiricalDispe
 rsion=GD3BJ IOp(1/33=1)
 ----------------------------------------------------------------------

 TstMul:  Mul=     2
 TstMul:  ICh=     0
 TstMul:  Mul=     2
 Symbolic Z-matrix:
 Charge =  0 Multiplicity = 2

 SCF Done:  E(UB-P86) =  -132.283265697     A.U. after   16 cycles
 SCF Done:  E(UB-P86) =  -132.283310633     A.U. after   11 cycles
 SCF Done:  E(UB-P86) =  -132.283302115     A.U. after   11 cycles
 SCF Done:  E(UB-P86) =  -132.283765065     A.U. after   13 cycles
 SCF Done:  E(UB-P86) =  -132.284150532     A.U. after   13 cycles
 SCF Done:  E(UB-P86) =  -132.284584772     A.U. after   13 cycles
 SCF Done:  E(UB-P86) =  -132.284670801     A.U. after   14 cycles
 SCF Done:  E(UB-P86) =  -132.284718878     A.U. after   14 cycles
 SCF Done:  E(UB-P86) =  -132.284968799     A.U. after   14 cycles
 SCF Done:  E(UB-P86) =  -132.284503446     A.U. after   14 cycles
 SCF Done:  E(UB-P86) =  -132.283791922     A.U. after   13 cycles
 SCF Done:  E(UB-P86) =  -132.283800078     A.U. after   10 cycles
 SCF Done:  E(UB-P86) =  -132.283805180     A.U. after   13 cycles
 SCF Done:  E(UB-P86) =  -132.283807585     A.U. after   11 cycles
 SCF Done:  E(UB-P86) =  -132.283808954     A.U. after   11 cycles
 SCF Done:  E(UB-P86) =  -132.283809739     A.U. after   10 cycles
 SCF Done:  E(UB-P86) =  -132.283809898     A.U. after   10 cycles
 SCF Done:  E(UB-P86) =  -132.283810034     A.U. after   10 cycles
 SCF Done:  E(UB-P86) =  -132.283810111     A.U. after    9 cycles
 Optimization completed.
    -- Stationary point found.

 1\1\GINC-NODE13\FTS\UBP86\6-31G(d)\H4N1O1(2)\RPEVERATI\07-Oct-2020\0\\
 #P Opt(TS,MaxCyc=50,NoEigenTest,MaxStep=10,AddRedundant) BP86/6-31G* 5
 D 7F Integral=UltraFineGrid SCF=(NoSymm,XQC,MaxCyc=120) EmpiricalDispe
 rsion=GD3BJ IOp(1/33=1)\\TS search on BH76.\\0,2\N,-1.1846144688,-0.08
 86048537,-0.0726600782\O,1.2620628859,0.1027795648,-0.1944498968\H,-1.
 1942878436,-0.4292476643,0.8964924503\H,-1.347800368,0.9255613648,-0.0
 575987041\H,-0.2272911553,-0.2728906283,-0.4883752032\H,1.3425237705,0
 .6748606291,0.6039750072\\Version=ES64L-G16RevA.03\State=2-A\HF=-132.2

 Normal termination of Gaussian 16 at Wed Oct  7 14:16:21 2020.
 Gaussian 16:  ES64L-G16RevA.03 25-Dec-2016

 ----------------------------------------------------------------------
 #P Freq BP86/6-31G* 5D 7F Integral=UltraFineGrid SCF=(NoSymm,XQC,MaxCy
 c=120) EmpiricalDispersion=GD3BJ IOp(1/33=1) Geom=Check Guess=Read
 ----------------------------------------------------------------------

 TstMul:  Mul=     2
 TstMul:  ICh=     0
 TstMul:  Mul=     2
 Structure from the checkpoint file:  "MN_83_RKT07_BH76_BP86DBJ_631Gs.chk"
 Charge =  0 Multiplicity = 2

                         Standard orientation:
 ---------------------------------------------------------------------
 Center     Atomic      Atomic             Coordinates (Angstroms)
 Number     Number       Type             X           Y           Z
 ---------------------------------------------------------------------
      1          7           0       -1.209594   -0.096499   -0.000143
      2          8           0        1.247550   -0.084894   -0.000060
      3          1           0       -1.296633    0.498495    0.832800
      4          1           0       -1.296632    0.500935   -0.831339
      5          1           0       -0.247992   -0.542111   -0.000794
      6          1           0        1.328014    0.897327    0.000816
 ---------------------------------------------------------------------

 SCF Done:  E(UB-P86) =  -132.283810111     A.U. after    1 cycles

 The electronic state is 2-A.
 Alpha  occ. eigenvalues --  -18.78798 -14.03449  -0.86949  -0.79899  -0.45233
 Alpha  occ. eigenvalues --   -0.44483  -0.36391  -0.29124  -0.23484  -0.22310
 Alpha virt. eigenvalues --    0.03694   0.08992   0.11498   0.20823   0.58193
 Alpha virt. eigenvalues --    0.60871   0.62382   0.73776   0.77575   0.82174
 Alpha virt. eigenvalues --    0.85948   0.86186   0.92782   1.03828   1.18226

  Beta  occ. eigenvalues --  -18.77242 -14.02805  -0.83613  -0.78314  -0.44195
  Beta  occ. eigenvalues --   -0.44059  -0.34910  -0.24887  -0.20752
  Beta virt. eigenvalues --   -0.17243   0.04219   0.09516   0.11682   0.21511
  Beta virt. eigenvalues --    0.59676   0.61114   0.64303   0.74362   0.79812
  Beta virt. eigenvalues --    0.82521   0.86499   0.87246   0.94925   1.06583

 Mulliken charges and spin densities:
               1          2
     1  N   -0.827360   0.356191
     2  O   -0.605841   0.702043
     3  H    0.326495  -0.010848
     4  H    0.326482  -0.010849
     5  H    0.407086  -0.016968
     6  H    0.373139  -0.019569
 Sum of Mulliken charges =   0.00000   1.00000

 Dipole moment (field-independent basis, Debye):
    X=             -1.0475    Y=              2.6680    Z=              0.0030  Tot=              2.8662
 Quadrupole moment (field-independent basis, Debye-Ang):
   XX=            -15.2977   YY=            -11.7208   ZZ=            -12.3480
   XY=             -0.2663   XZ=             -0.0019   YZ=             -0.0002

  Exact polarizability:  42.371   1.581  13.880   0.002   0.001  11.728
 Approx polarizability: 129.204   3.782  20.292   0.008   0.003  15.843

 ******    1 imaginary frequencies (negative Signs) ******

                      1                      2                      3
                      A                      A                      A
 Frequencies --   -297.6041               300.4475               337.4322
 Red. masses --      1.0820                 2.1186                 1.3483
 Frc consts  --      0.0565                 0.1127                 0.0904
 IR Inten    --     66.3215                 6.2823                62.3066

                      4                      5                      6
                      A                      A                      A
 Frequencies --    410.5475               603.8330              1005.7773
 Red. masses --      1.0131                 1.1664                 1.1933
 Frc consts  --      0.1006                 0.2506                 0.7112
 IR Inten    --     19.8797               152.3507               293.1303

                      7                      8                      9
                      A                      A                      A
 Frequencies --   1530.7700              1650.9532              2874.8831
 Red. masses --      1.0702                 1.0709                 1.0626
 Frc consts  --      1.4775                 1.7198                 5.1744
 IR Inten    --     35.6969                19.6784                59.1371

                     10                     11                     12
                      A                      A                      A
 Frequencies --   3416.8147              3511.0746              3585.0631
 Red. masses --      1.0555                 1.0916                 1.0669
 Frc consts  --      7.2600                 7.9285                 8.0795
 IR Inten    --      5.7984                 3.4574                 8.3608

 - Thermochemistry -
 -------------------
 Temperature   298.150 Kelvin.  Pressure   1.00000 Atm.
 Atom     1 has atomic number  7 and mass  14.00307

 Molecular mass:    34.02929 amu.
 Principal axes and moments of inertia in atomic units:
                           1         2         3
     Eigenvalues --    11.42426 185.48370 186.94100
           X            1.00000  -0.00061  -0.00001
           Y            0.00061   1.00000  -0.00019
           Z            0.00001   0.00019   1.00000
 This molecule is an asymmetric top.
 Rotational symmetry number  1.
 Rotational temperatures (Kelvin)      7.58158     0.46696     0.46332
 Rotational constants (GHZ):         157.97446     9.72992     9.65407
    1 imaginary frequencies ignored.
 Zero-point vibrational energy     115006.6 (Joules/Mol)
                                   27.48723 (Kcal/Mol)
 Warning -- explicit consideration of   4 degrees of freedom as
           vibrations may cause significant error
 Vibrational temperatures:    432.28   485.49   590.69   868.78  1447.09
          (Kelvin)           2202.44  2375.35  4136.32  4916.03  5051.65
                             5158.11

 Zero-point correction=                           0.043804 (Hartree/Particle)
 Thermal correction to Energy=                    0.047931
 Thermal correction to Enthalpy=                  0.048875
 Thermal correction to Gibbs Free Energy=         0.019129
 Sum of electronic and zero-point Energies=           -132.240006
 Sum of electronic and thermal Energies=              -132.235879
 Sum of electronic and thermal Enthalpies=            -132.234935
 Sum of electronic and thermal Free Energies=         -132.264681

                     E (Thermal)             CV                S
                      KCal/Mol        Cal/Mol-Kelvin    Cal/Mol-Kelvin
 Total                   30.077             12.189             62.607
 Electronic               0.000              0.000              1.377
 Translational            0.889              2.981             36.505
 Rotational               0.889              2.981             20.610
 Vibrational             28.300              6.227              4.114
 Vibration     1          0.693              1.673              1.414
 Vibration     2          0.718              1.601              1.224
 Vibration     3          0.775              1.447              0.925
 Vibration     4          0.962              1.024              0.443

 Optimization completed.
    -- Stationary point found.
 Normal termination of Gaussian 16 at Wed Oct  7 14:16:48 2020.
