 Gaussian 16, Revision A.03,

 ----------------------------------------------------------------------
 #P Opt(TS,MaxCyc=50,NoEigenTest,MaxStep=10,AddRedundant) BP86/6-31G* 5
 D 7F Integral=UltraFineGrid SCF=(NoSymm,XQC,MaxCyc=120) EmpiricalDispe
 rsion=GD3BJ IOp(1/33=1)
 ----------------------------------------------------------------------

 TstMul:  Mul=     3
 TstMul:  ICh=     0
 TstMul:  Mul=     3
 Symbolic Z-matrix:
 Charge =  0 Multiplicity = 3

 SCF Done:  E(UB-P86) =  -115.555686445     A.U. after   13 cycles
 SCF Done:  E(UB-P86) =  -115.556341753     A.U. after   12 cycles
 SCF Done:  E(UB-P86) =  -115.556643369     A.U. after   11 cycles
 SCF Done:  E(UB-P86) =  -115.556045728     A.U. after   11 cycles
 SCF Done:  E(UB-P86) =  -115.555622931     A.U. after   12 cycles
 SCF Done:  E(UB-P86) =  -115.555436142     A.U. after   12 cycles
 SCF Done:  E(UB-P86) =  -115.555440764     A.U. after   11 cycles
 SCF Done:  E(UB-P86) =  -115.555442329     A.U. after    8 cycles
 SCF Done:  E(UB-P86) =  -115.555442471     A.U. after    8 cycles
 Optimization completed.
    -- Stationary point found.

 1\1\GINC-NODE62\FTS\UBP86\6-31G(d)\C1H4O1(3)\RPEVERATI\07-Oct-2020\0\\
 #P Opt(TS,MaxCyc=50,NoEigenTest,MaxStep=10,AddRedundant) BP86/6-31G* 5
 D 7F Integral=UltraFineGrid SCF=(NoSymm,XQC,MaxCyc=120) EmpiricalDispe
 rsion=GD3BJ IOp(1/33=1)\\TS search on BH76.\\0,3\C,0.0026400592,-1.185
 3690427,0.\H,-1.0743180084,-1.3954391836,0.\H,0.5313931146,-1.42742338
 62,0.9295868704\H,0.5313931146,-1.4274233862,-0.9295868704\H,0.0104672
 654,0.2483387979,0.\O,-0.0052515881,1.3793743005,0.\\Version=ES64L-G16
 RevA.03\State=3-A'\HF=-115.5554425\S2=2.005634\S2-1=0.\S2A=2.000015\RM

 Normal termination of Gaussian 16 at Wed Oct  7 14:12:47 2020.
 Gaussian 16:  ES64L-G16RevA.03 25-Dec-2016

 ----------------------------------------------------------------------
 #P Freq BP86/6-31G* 5D 7F Integral=UltraFineGrid SCF=(NoSymm,XQC,MaxCy
 c=120) EmpiricalDispersion=GD3BJ IOp(1/33=1) Geom=Check Guess=Read
 ----------------------------------------------------------------------

 TstMul:  Mul=     3
 TstMul:  ICh=     0
 TstMul:  Mul=     3
 Structure from the checkpoint file:  "MN_87_RKT11_BH76_BP86DBJ_631Gs.chk"
 Charge =  0 Multiplicity = 3

                         Standard orientation:
 ---------------------------------------------------------------------
 Center     Atomic      Atomic             Coordinates (Angstroms)
 Number     Number       Type             X           Y           Z
 ---------------------------------------------------------------------
      1          6           0        0.000519   -1.180978   -0.000000
      2          1           0       -1.077080   -1.387733   -0.000000
      3          1           0        0.528525   -1.424658    0.929587
      4          1           0        0.528525   -1.424658   -0.929587
      5          1           0        0.012758    0.252699    0.000000
      6          8           0        0.000519    1.383777    0.000000
 ---------------------------------------------------------------------

 SCF Done:  E(UB-P86) =  -115.555442471     A.U. after    1 cycles

 The electronic state is 3-A'.
 Alpha  occ. eigenvalues --  -18.84137  -9.94034  -0.87900  -0.65001  -0.41400
 Alpha  occ. eigenvalues --   -0.39086  -0.39050  -0.32698  -0.25216  -0.22864
 Alpha virt. eigenvalues --    0.07157   0.12461   0.12567   0.20293   0.46352
 Alpha virt. eigenvalues --    0.46759   0.48513   0.65904   0.79443   0.81329
 Alpha virt. eigenvalues --    0.81952   0.82065   0.84293   0.89098   1.08627

  Beta  occ. eigenvalues --  -18.81028  -9.93033  -0.80226  -0.62462  -0.38294
  Beta  occ. eigenvalues --   -0.38277  -0.36815  -0.22156
  Beta virt. eigenvalues --   -0.18873  -0.15651   0.08140   0.13148   0.13231
  Beta virt. eigenvalues --    0.23404   0.47598   0.47643   0.53703   0.67168
  Beta virt. eigenvalues --    0.82607   0.82719   0.83273   0.86380   0.89493

 Mulliken charges and spin densities:
               1          2
     1  C   -0.653864   0.739476
     2  H    0.206187  -0.020861
     3  H    0.206588  -0.022085
     4  H    0.206588  -0.022085
     5  H    0.401800  -0.042240
     6  O   -0.367298   1.367795
 Sum of Mulliken charges =  -0.00000   2.00000

 Dipole moment (field-independent basis, Debye):
    X=             -0.0002    Y=             -2.1821    Z=             -0.0000  Tot=              2.1821
 Quadrupole moment (field-independent basis, Debye-Ang):
   XX=            -12.3428   YY=            -15.4343   ZZ=            -13.4641
   XY=             -0.0031   XZ=             -0.0000   YZ=              0.0000

  Exact polarizability:  14.716  -0.087  30.462  -0.000  -0.000  14.475
 Approx polarizability:  20.102  -0.132  51.295  -0.000   0.000  19.229

 ******    1 imaginary frequencies (negative Signs) ******

                      1                      2                      3
                     A'                     A"                     A'
 Frequencies --   -676.3352               252.4567               384.8835
 Red. masses --      1.5408                 1.0523                 1.0691
 Frc consts  --      0.4153                 0.0395                 0.0933
 IR Inten    --     81.4106                12.6258                 3.2689

                      4                      5                      6
                     A'                     A"                     A'
 Frequencies --    667.7875               810.4937              1056.9687
 Red. masses --      1.8861                 1.0660                 1.0560
 Frc consts  --      0.4956                 0.4126                 0.6951
 IR Inten    --      0.4027                42.4220                50.3259

                      7                      8                      9
                     A'                     A'                     A"
 Frequencies --   1247.3224              1401.4908              1408.7317
 Red. masses --      1.2926                 1.0840                 1.0876
 Frc consts  --      1.1849                 1.2544                 1.2716
 IR Inten    --     26.1151                 4.8231                 4.9863

                     10                     11                     12
                     A'                     A'                     A"
 Frequencies --   3027.3445              3174.6047              3182.9296
 Red. masses --      1.0159                 1.1120                 1.1133
 Frc consts  --      5.4853                 6.6030                 6.6451
 IR Inten    --      0.1484                 4.9972                 4.7688

 - Thermochemistry -
 -------------------
 Temperature   298.150 Kelvin.  Pressure   1.00000 Atm.
 Atom     1 has atomic number  6 and mass  12.00000

 Molecular mass:    32.02621 amu.
 Principal axes and moments of inertia in atomic units:
                           1         2         3
     Eigenvalues --    12.40654 195.36110 195.39463
           X           -0.00009   0.00000   1.00000
           Y            1.00000   0.00000   0.00009
           Z            0.00000   1.00000   0.00000
 This molecule is an asymmetric top.
 Rotational symmetry number  1.
 Rotational temperatures (Kelvin)      6.98131     0.44335     0.44328
 Rotational constants (GHZ):         145.46692     9.23798     9.23639
    1 imaginary frequencies ignored.
 Zero-point vibrational energy      99379.9 (Joules/Mol)
                                   23.75235 (Kcal/Mol)
 Warning -- explicit consideration of   2 degrees of freedom as
           vibrations may cause significant error
 Vibrational temperatures:    363.23   553.76   960.80  1166.12  1520.74
          (Kelvin)           1794.62  2016.43  2026.85  4355.67  4567.55
                             4579.53

 Zero-point correction=                           0.037852 (Hartree/Particle)
 Thermal correction to Energy=                    0.041751
 Thermal correction to Enthalpy=                  0.042696
 Thermal correction to Gibbs Free Energy=         0.012897
 Sum of electronic and zero-point Energies=           -115.517591
 Sum of electronic and thermal Energies=              -115.513691
 Sum of electronic and thermal Enthalpies=            -115.512747
 Sum of electronic and thermal Free Energies=         -115.542546

                     E (Thermal)             CV                S
                      KCal/Mol        Cal/Mol-Kelvin    Cal/Mol-Kelvin
 Total                   26.199             11.452             62.717
 Electronic               0.000              0.000              2.183
 Translational            0.889              2.981             36.324
 Rotational               0.889              2.981             20.787
 Vibrational             24.422              5.490              3.422
 Vibration     1          0.664              1.759              1.713
 Vibration     2          0.754              1.502              1.020

 Optimization completed.
    -- Stationary point found.
 Normal termination of Gaussian 16 at Wed Oct  7 14:13:08 2020.
