 Gaussian 16, Revision A.03,

 ----------------------------------------------------------------------
 #P Opt(TS,MaxCyc=50,NoEigenTest,MaxStep=10,AddRedundant) BP86/6-31G* 5
 D 7F Integral=UltraFineGrid SCF=(NoSymm,XQC,MaxCyc=120) EmpiricalDispe
 rsion=GD3BJ IOp(1/33=1)
 ----------------------------------------------------------------------

 TstMul:  Mul=     2
 TstMul:  ICh=     0
 TstMul:  Mul=     2
 Symbolic Z-matrix:
 Charge =  0 Multiplicity = 2

 SCF Done:  E(UB-P86) =  -100.891496321     A.U. after   14 cycles
 SCF Done:  E(UB-P86) =  -100.891428230     A.U. after   12 cycles
 SCF Done:  E(UB-P86) =  -100.891347181     A.U. after   10 cycles
 SCF Done:  E(UB-P86) =  -100.891303109     A.U. after   12 cycles
 SCF Done:  E(UB-P86) =  -100.892085377     A.U. after   12 cycles
 SCF Done:  E(UB-P86) =  -100.891207589     A.U. after   13 cycles
 SCF Done:  E(UB-P86) =  -100.890605747     A.U. after   13 cycles
 SCF Done:  E(UB-P86) =  -100.890281489     A.U. after   12 cycles
 SCF Done:  E(UB-P86) =  -100.890084083     A.U. after   12 cycles
 SCF Done:  E(UB-P86) =  -100.889898903     A.U. after   12 cycles
 SCF Done:  E(UB-P86) =  -100.889127803     A.U. after   12 cycles
 SCF Done:  E(UB-P86) =  -100.888963170     A.U. after   12 cycles
 SCF Done:  E(UB-P86) =  -100.888828550     A.U. after   12 cycles
 SCF Done:  E(UB-P86) =  -100.888733634     A.U. after   12 cycles
 SCF Done:  E(UB-P86) =  -100.888686439     A.U. after   12 cycles
 SCF Done:  E(UB-P86) =  -100.888686466     A.U. after   12 cycles
 SCF Done:  E(UB-P86) =  -100.888687061     A.U. after   11 cycles
 SCF Done:  E(UB-P86) =  -100.888687556     A.U. after    9 cycles
 SCF Done:  E(UB-P86) =  -100.888687384     A.U. after    8 cycles
 Optimization completed.
    -- Stationary point found.
 Normal termination of Gaussian 16 at Wed Oct  7 14:15:57 2020.
 Gaussian 16:  ES64L-G16RevA.03 25-Dec-2016

 ----------------------------------------------------------------------
 #P Freq BP86/6-31G* 5D 7F Integral=UltraFineGrid SCF=(NoSymm,XQC,MaxCy
 c=120) EmpiricalDispersion=GD3BJ IOp(1/33=1) Geom=Check Guess=Read
 ----------------------------------------------------------------------

 TstMul:  Mul=     2
 TstMul:  ICh=     0
 TstMul:  Mul=     2
 Structure from the checkpoint file:  "MN_86_RKT10_BH76_BP86DBJ_631Gs.chk"
 Charge =  0 Multiplicity = 2

                         Standard orientation:
 ---------------------------------------------------------------------
 Center     Atomic      Atomic             Coordinates (Angstroms)
 Number     Number       Type             X           Y           Z
 ---------------------------------------------------------------------
      1          1           0        0.393262   -1.350321   -0.000000
      2          9           0        0.000000    0.300049    0.000000
      3          1           0       -0.393262   -1.350124   -0.000000
 ---------------------------------------------------------------------

 SCF Done:  E(UB-P86) =  -100.888687384     A.U. after    1 cycles

 The electronic state is 2-A'.
 Alpha  occ. eigenvalues --  -24.30390  -1.04068  -0.48458  -0.32813  -0.32631
 Alpha  occ. eigenvalues --   -0.32121
 Alpha virt. eigenvalues --    0.04029   0.52706   0.94976   1.10749   1.12412
 Alpha virt. eigenvalues --    1.15897   1.33765   1.75336   1.76453   1.78033
 Alpha virt. eigenvalues --    1.79690   1.79713
  Beta  occ. eigenvalues --  -24.28110  -0.98710  -0.43912  -0.30641  -0.29933
  Beta virt. eigenvalues --   -0.23436   0.05570   0.54553   0.97452   1.12155
  Beta virt. eigenvalues --    1.17384   1.19981   1.37411   1.79448   1.80249
  Beta virt. eigenvalues --    1.80270   1.82106   1.82182

 Mulliken charges and spin densities:
               1          2
     1  H    0.084484   0.108523
     2  F   -0.169013   0.783055
     3  H    0.084529   0.108422
 Sum of Mulliken charges =   0.00000   1.00000

 Dipole moment (field-independent basis, Debye):
    X=             -0.0001    Y=             -1.2486    Z=             -0.0000  Tot=              1.2486
 Quadrupole moment (field-independent basis, Debye-Ang):
   XX=             -6.2447   YY=             -4.6224   ZZ=             -6.6808
   XY=             -0.0000   XZ=             -0.0000   YZ=              0.0000

  Exact polarizability:   7.396  -0.001  12.858   0.000   0.000   1.600
 Approx polarizability:  10.292  -0.002  22.969  -0.000   0.000   1.914

 ******    1 imaginary frequencies (negative Signs) ******

                      1                      2                      3
                     A'                     A'                     A'
 Frequencies --   -582.1208               577.8055              3779.1942
 Red. masses --      1.0133                 1.1082                 1.0081
 Frc consts  --      0.2023                 0.2180                 8.4830
 IR Inten    --      3.6174                18.7019                95.1997

 - Thermochemistry -
 -------------------
 Temperature   298.150 Kelvin.  Pressure   1.00000 Atm.
 Atom     1 has atomic number  1 and mass   1.00783

 Molecular mass:    21.01405 amu.
 Principal axes and moments of inertia in atomic units:
                           1         2         3
     Eigenvalues --     1.11321  17.72275  18.83596
           X           -0.00002   1.00000   0.00000
           Y            1.00000   0.00002   0.00000
           Z            0.00000   0.00000   1.00000
 This molecule is an asymmetric top.
 Rotational symmetry number  1.
 Rotational temperatures (Kelvin)     77.80547     4.88716     4.59833
 Rotational constants (GHZ):        1621.20279   101.83190    95.81361
    1 imaginary frequencies ignored.
 Zero-point vibrational energy      26060.6 (Joules/Mol)
                                    6.22864 (Kcal/Mol)
 Warning -- explicit consideration of   1 degrees of freedom as
           vibrations may cause significant error
 Vibrational temperatures:    831.33  5437.42
          (Kelvin)

 Zero-point correction=                           0.009926 (Hartree/Particle)
 Thermal correction to Energy=                    0.012931
 Thermal correction to Enthalpy=                  0.013875
 Thermal correction to Gibbs Free Energy=        -0.010175
 Sum of electronic and zero-point Energies=           -100.878761
 Sum of electronic and thermal Energies=              -100.875756
 Sum of electronic and thermal Enthalpies=            -100.874812
 Sum of electronic and thermal Free Energies=         -100.898862

                     E (Thermal)             CV                S
                      KCal/Mol        Cal/Mol-Kelvin    Cal/Mol-Kelvin
 Total                    8.114              7.041             50.618
 Electronic               0.000              0.000              1.377
 Translational            0.889              2.981             35.068
 Rotational               0.889              2.981             13.683
 Vibrational              6.337              1.079              0.489
 Vibration     1          0.934              1.079              0.489

 Optimization completed.
    -- Stationary point found.
 Normal termination of Gaussian 16 at Wed Oct  7 14:16:31 2020.
