 Gaussian 16, Revision A.03,

 ----------------------------------------------------------------------
 #P Opt(TS,MaxCyc=50,NoEigenTest,MaxStep=10,AddRedundant) BP86/6-31G* 5
 D 7F Integral=UltraFineGrid SCF=(NoSymm,XQC,MaxCyc=120) EmpiricalDispe
 rsion=GD3BJ IOp(1/33=1)
 ----------------------------------------------------------------------

 TstMul:  Mul=     2
 TstMul:  ICh=     0
 TstMul:  Mul=     2
 Symbolic Z-matrix:
 Charge =  0 Multiplicity = 2

 SCF Done:  E(UB-P86) =  -40.9995764045     A.U. after   12 cycles
 SCF Done:  E(UB-P86) =  -41.0001014739     A.U. after   11 cycles
 SCF Done:  E(UB-P86) =  -41.0002234285     A.U. after   11 cycles
 SCF Done:  E(UB-P86) =  -41.0001611871     A.U. after    9 cycles
 SCF Done:  E(UB-P86) =  -41.0004751288     A.U. after   11 cycles
 SCF Done:  E(UB-P86) =  -41.0000648337     A.U. after   11 cycles
 SCF Done:  E(UB-P86) =  -40.9998545292     A.U. after   11 cycles
 SCF Done:  E(UB-P86) =  -40.9998317274     A.U. after   11 cycles
 SCF Done:  E(UB-P86) =  -40.9998324734     A.U. after    8 cycles
 Optimization completed.
    -- Stationary point found.
 Normal termination of Gaussian 16 at Wed Oct  7 14:12:14 2020.
 Gaussian 16:  ES64L-G16RevA.03 25-Dec-2016

 ----------------------------------------------------------------------
 #P Freq BP86/6-31G* 5D 7F Integral=UltraFineGrid SCF=(NoSymm,XQC,MaxCy
 c=120) EmpiricalDispersion=GD3BJ IOp(1/33=1) Geom=Check Guess=Read
 ----------------------------------------------------------------------

 TstMul:  Mul=     2
 TstMul:  ICh=     0
 TstMul:  Mul=     2
 Structure from the checkpoint file:  "MN_80_RKT03_BH76_BP86DBJ_631Gs.chk"
 Charge =  0 Multiplicity = 2

                         Standard orientation:
 ---------------------------------------------------------------------
 Center     Atomic      Atomic             Coordinates (Angstroms)
 Number     Number       Type             X           Y           Z
 ---------------------------------------------------------------------
      1          6           0        0.000000    0.284068    0.000000
      2          1           0        1.070950    0.518288    0.000000
      3          1           0       -0.535785    0.517753    0.927466
      4          1           0       -0.535785    0.517753   -0.927466
      5          1           0        0.000471   -1.186371    0.000000
      6          1           0        0.000150   -2.071829    0.000000
 ---------------------------------------------------------------------

 SCF Done:  E(UB-P86) =  -40.9998324734     A.U. after    1 cycles

 The electronic state is 2-A'.
 Alpha  occ. eigenvalues --   -9.91960  -0.63108  -0.39381  -0.37017  -0.37010
 Alpha  occ. eigenvalues --   -0.17789
 Alpha virt. eigenvalues --    0.08714   0.14023   0.14027   0.16043   0.48882
 Alpha virt. eigenvalues --    0.48887   0.51096   0.64645   0.83768   0.83776
 Alpha virt. eigenvalues --    0.86149   0.96282   1.13894   1.56570   1.56573

  Beta  occ. eigenvalues --   -9.90931  -0.60812  -0.36605  -0.36274  -0.36268
  Beta virt. eigenvalues --   -0.10942   0.09657   0.14700   0.14704   0.18965
  Beta virt. eigenvalues --    0.49599   0.49604   0.56359   0.67817   0.84456
  Beta virt. eigenvalues --    0.84464   0.88331   0.97222   1.16702   1.61062

 Mulliken charges and spin densities:
               1          2
     1  C   -0.560707   0.747176
     2  H    0.189363  -0.023250
     3  H    0.189344  -0.023259
     4  H    0.189344  -0.023259
     5  H    0.005482  -0.114600
     6  H   -0.012827   0.437192
 Sum of Mulliken charges =  -0.00000   1.00000

 Dipole moment (field-independent basis, Debye):
    X=             -0.0003    Y=              0.7450    Z=             -0.0000  Tot=              0.7450
 Quadrupole moment (field-independent basis, Debye-Ang):
   XX=             -9.2136   YY=            -11.2440   ZZ=             -9.2148
   XY=              0.0005   XZ=             -0.0000   YZ=             -0.0000

  Exact polarizability:  12.653   0.001  29.009   0.000  -0.000  12.652
 Approx polarizability:  16.802   0.002  43.331  -0.000   0.000  16.799

 ******    1 imaginary frequencies (negative Signs) ******

                      1                      2                      3
                     A'                     A"                     A'
 Frequencies --   -737.4616               539.7358               539.7982
 Red. masses --      1.2125                 1.0457                 1.0457
 Frc consts  --      0.3885                 0.1795                 0.1795
 IR Inten    --      6.1593                 1.2733                 1.2715

                      4                      5                      6
                     A'                     A"                     A'
 Frequencies --   1012.6547              1113.3787              1113.4140
 Red. masses --      1.0790                 1.0409                 1.0409
 Frc consts  --      0.6519                 0.7602                 0.7603
 IR Inten    --     11.2127                 1.4091                 1.4070

                      7                      8                      9
                     A"                     A'                     A'
 Frequencies --   1407.3042              1407.5508              2147.0607
 Red. masses --      1.0806                 1.0806                 1.0372
 Frc consts  --      1.2609                 1.2613                 2.8172
 IR Inten    --      4.0561                 4.0503                50.8268

                     10                     11                     12
                     A'                     A"                     A'
 Frequencies --   3031.4908              3180.5747              3180.9144
 Red. masses --      1.0158                 1.1128                 1.1128
 Frc consts  --      5.4998                 6.6323                 6.6339
 IR Inten    --      0.1112                10.8100                10.7850

 - Thermochemistry -
 -------------------
 Temperature   298.150 Kelvin.  Pressure   1.00000 Atm.
 Atom     1 has atomic number  6 and mass  12.00000

 Molecular mass:    17.03913 amu.
 Principal axes and moments of inertia in atomic units:
                           1         2         3
     Eigenvalues --    12.38581  32.46083  32.46327
           X           -0.00011   1.00000   0.00000
           Y            1.00000   0.00011   0.00000
           Z            0.00000   0.00000   1.00000
 This molecule is an asymmetric top.
 Rotational symmetry number  1.
 Rotational temperatures (Kelvin)      6.99300     2.66826     2.66806
 Rotational constants (GHZ):         145.71039    55.59751    55.59333
    1 imaginary frequencies ignored.
 Zero-point vibrational energy     111694.6 (Joules/Mol)
                                   26.69565 (Kcal/Mol)
 Warning -- explicit consideration of   2 degrees of freedom as
           vibrations may cause significant error
 Vibrational temperatures:    776.56   776.65  1456.98  1601.90  1601.95
          (Kelvin)           2024.80  2025.15  3089.14  4361.64  4576.14
                             4576.63

 Zero-point correction=                           0.042542 (Hartree/Particle)
 Thermal correction to Energy=                    0.045865
 Thermal correction to Enthalpy=                  0.046809
 Thermal correction to Gibbs Free Energy=         0.020955
 Sum of electronic and zero-point Energies=            -40.957290
 Sum of electronic and thermal Energies=               -40.953968
 Sum of electronic and thermal Enthalpies=             -40.953024
 Sum of electronic and thermal Free Energies=          -40.978877

                     E (Thermal)             CV                S
                      KCal/Mol        Cal/Mol-Kelvin    Cal/Mol-Kelvin
 Total                   28.780              9.400             54.413
 Electronic               0.000              0.000              1.377
 Translational            0.889              2.981             34.443
 Rotational               0.889              2.981             17.219
 Vibrational             27.003              3.439              1.374
 Vibration     1          0.895              1.162              0.566
 Vibration     2          0.895              1.162              0.566

 Optimization completed.
    -- Stationary point found.
 Normal termination of Gaussian 16 at Wed Oct  7 14:12:37 2020.
