 Gaussian 16, Revision A.03,

 ----------------------------------------------------------------------
 #P Opt(TS,MaxCyc=50,NoEigenTest,MaxStep=10,AddRedundant) BP86/6-31G* 5
 D 7F Integral=UltraFineGrid SCF=(NoSymm,XQC,MaxCyc=120) EmpiricalDispe
 rsion=GD3BJ IOp(1/33=1)
 ----------------------------------------------------------------------

 TstMul:  Mul=     2
 TstMul:  ICh=     0
 TstMul:  Mul=     2
 Symbolic Z-matrix:
 Charge =  0 Multiplicity = 2

 SCF Done:  E(UB-P86) =  -1.66951758970     A.U. after    9 cycles
 SCF Done:  E(UB-P86) =  -1.66959901813     A.U. after    7 cycles
 SCF Done:  E(UB-P86) =  -1.66960375792     A.U. after    7 cycles
 Optimization completed.
    -- Stationary point found.
 Normal termination of Gaussian 16 at Wed Oct  7 14:10:57 2020.
 Gaussian 16:  ES64L-G16RevA.03 25-Dec-2016

 ----------------------------------------------------------------------
 #P Freq BP86/6-31G* 5D 7F Integral=UltraFineGrid SCF=(NoSymm,XQC,MaxCy
 c=120) EmpiricalDispersion=GD3BJ IOp(1/33=1) Geom=Check Guess=Read
 ----------------------------------------------------------------------

 TstMul:  Mul=     2
 TstMul:  ICh=     0
 TstMul:  Mul=     2
 Structure from the checkpoint file:  "MN_82_RKT06_BH76_BP86DBJ_631Gs.chk"
 Charge =  0 Multiplicity = 2

                         Standard orientation:
 ---------------------------------------------------------------------
 Center     Atomic      Atomic             Coordinates (Angstroms)
 Number     Number       Type             X           Y           Z
 ---------------------------------------------------------------------
      1          1           0        0.000000    0.000000    0.000000
      2          1           0        0.000000    0.000000    0.941465
      3          1           0        0.000000    0.000000   -0.941465
 ---------------------------------------------------------------------

 SCF Done:  E(UB-P86) =  -1.66960375792     A.U. after    1 cycles

 The electronic state is 2-SGU.
 Alpha  occ. eigenvalues --   -0.45502  -0.21837
 Alpha virt. eigenvalues --    0.11878   0.63020   0.70780   0.95540
  Beta  occ. eigenvalues --   -0.41834
  Beta virt. eigenvalues --   -0.13096   0.16200   0.67408   0.79130   0.99079

 Mulliken charges and spin densities:
               1          2
     1  H   -0.102097  -0.153881
     2  H    0.051048   0.576941
     3  H    0.051048   0.576941
 Sum of Mulliken charges =  -0.00000   1.00000

 Dipole moment (field-independent basis, Debye):
    X=              0.0000    Y=              0.0000    Z=             -0.0000  Tot=              0.0000
 Quadrupole moment (field-independent basis, Debye-Ang):
   XX=             -3.3147   YY=             -3.3147   ZZ=             -3.3100
   XY=              0.0000   XZ=             -0.0000   YZ=              0.0000

  Exact polarizability:   0.000   0.000   0.000  -0.000   0.000  18.923
 Approx polarizability:   0.000  -0.000  -0.000  -0.000  -0.000  28.989

                      1                      2                      3
                     SGU                    PIU                    PIU
 Frequencies --    465.7525              1069.3494              1069.3494
 Red. masses --      1.0078                 1.0078                 1.0078
 Frc consts  --      0.1288                 0.6790                 0.6790
 IR Inten    --     95.6885                 8.3330                 8.3330

                      4
                     SGG
 Frequencies --   2058.0119
 Red. masses --      1.0078
 Frc consts  --      2.5150
 IR Inten    --      0.0000

 - Thermochemistry -
 -------------------
 Temperature   298.150 Kelvin.  Pressure   1.00000 Atm.
 Atom     1 has atomic number  1 and mass   1.00783

 Molecular mass:     3.02348 amu.
 Principal axes and moments of inertia in atomic units:
                           1         2         3
     Eigenvalues --     0.00000   6.38000   6.38000
           X           -0.00000   1.00000   0.00000
           Y            0.00000   0.00000   1.00000
           Z            1.00000   0.00000   0.00000
 This molecule is a prolate symmetric top.
 Rotational symmetry number  2.
 Rotational temperature (Kelvin)     13.57584
 Rotational constant (GHZ):         282.874612
 Zero-point vibrational energy      27887.7 (Joules/Mol)
                                    6.66533 (Kcal/Mol)
 Warning -- explicit consideration of   1 degrees of freedom as
           vibrations may cause significant error
 Vibrational temperatures:    670.11  1538.56  1538.56  2961.02
          (Kelvin)

 Zero-point correction=                           0.010622 (Hartree/Particle)
 Thermal correction to Energy=                    0.013290
 Thermal correction to Enthalpy=                  0.014234
 Thermal correction to Gibbs Free Energy=        -0.003967
 Sum of electronic and zero-point Energies=             -1.658982
 Sum of electronic and thermal Energies=                -1.656314
 Sum of electronic and thermal Enthalpies=              -1.655370
 Sum of electronic and thermal Free Energies=           -1.673571

                     E (Thermal)             CV                S
                      KCal/Mol        Cal/Mol-Kelvin    Cal/Mol-Kelvin
 Total                    8.339              6.918             38.307
 Electronic               0.000              0.000              1.377
 Translational            0.889              2.981             29.289
 Rotational               0.592              1.987              6.749
 Vibrational              6.858              1.950              0.892
 Vibration     1          0.823              1.326              0.750

 Optimization completed.
    -- Stationary point found.
 Normal termination of Gaussian 16 at Wed Oct  7 14:11:17 2020.
