 Gaussian 16, Revision A.03,

 ----------------------------------------------------------------------
 #P Opt(TS,MaxCyc=50,NoEigenTest,MaxStep=10,AddRedundant) BP86/6-31G* 5
 D 7F Integral=UltraFineGrid SCF=(NoSymm,XQC,MaxCyc=120) EmpiricalDispe
 rsion=GD3BJ IOp(1/33=1)
 ----------------------------------------------------------------------

 TstMul:  Mul=     2
 TstMul:  ICh=     0
 TstMul:  Mul=     2
 Symbolic Z-matrix:
 Charge =  0 Multiplicity = 2

 SCF Done:  E(UB-P86) =  -343.658152693     A.U. after   12 cycles
 SCF Done:  E(UB-P86) =  -343.658220701     A.U. after    9 cycles
 SCF Done:  E(UB-P86) =  -343.658188702     A.U. after   10 cycles
 SCF Done:  E(UB-P86) =  -343.657494902     A.U. after   12 cycles
 SCF Done:  E(UB-P86) =  -343.656994625     A.U. after   12 cycles
 SCF Done:  E(UB-P86) =  -343.656560684     A.U. after   12 cycles
 SCF Done:  E(UB-P86) =  -343.656193791     A.U. after   12 cycles
 SCF Done:  E(UB-P86) =  -343.655823090     A.U. after   12 cycles
 SCF Done:  E(UB-P86) =  -343.655499166     A.U. after   12 cycles
 SCF Done:  E(UB-P86) =  -343.655228240     A.U. after   11 cycles
 SCF Done:  E(UB-P86) =  -343.653588458     A.U. after   10 cycles
 SCF Done:  E(UB-P86) =  -343.653620938     A.U. after   10 cycles
 SCF Done:  E(UB-P86) =  -343.653631681     A.U. after   10 cycles
 SCF Done:  E(UB-P86) =  -343.653633021     A.U. after   10 cycles
 SCF Done:  E(UB-P86) =  -343.653649623     A.U. after   10 cycles
 SCF Done:  E(UB-P86) =  -343.653677989     A.U. after   10 cycles
 SCF Done:  E(UB-P86) =  -343.653690714     A.U. after   10 cycles
 SCF Done:  E(UB-P86) =  -343.653690548     A.U. after    8 cycles
 SCF Done:  E(UB-P86) =  -343.653690532     A.U. after    7 cycles
 Optimization completed.
    -- Stationary point found.
 Normal termination of Gaussian 16 at Sun Oct 11 12:53:45 2020.
 Gaussian 16:  ES64L-G16RevA.03 25-Dec-2016

 ----------------------------------------------------------------------
 #P Freq BP86/6-31G* 5D 7F Integral=UltraFineGrid SCF=(NoSymm,XQC,MaxCy
 c=120) EmpiricalDispersion=GD3BJ IOp(1/33=1) Geom=Check Guess=Read
 ----------------------------------------------------------------------

 TstMul:  Mul=     2
 TstMul:  ICh=     0
 TstMul:  Mul=     2
 Structure from the checkpoint file:  "MN_88_RKT12_BH76_BP86DBJ_631Gs.chk"
 Charge =  0 Multiplicity = 2

                         Standard orientation:
 ---------------------------------------------------------------------
 Center     Atomic      Atomic             Coordinates (Angstroms)
 Number     Number       Type             X           Y           Z
 ---------------------------------------------------------------------
      1         15           0        0.286773   -0.000011   -0.031121
      2          1           0       -0.352726    1.040621    0.724538
      3          1           0       -0.352012   -1.038205    0.728476
      4          1           0       -0.747185   -0.002265   -1.029484
      5          1           0       -2.849678    0.000018    0.043286
 ---------------------------------------------------------------------

 SCF Done:  E(UB-P86) =  -343.653690532     A.U. after    1 cycles

 The electronic state is 2-A.
 Alpha  occ. eigenvalues --  -76.35411  -6.31680  -4.53381  -4.53378  -4.52943
 Alpha  occ. eigenvalues --   -0.59339  -0.35137  -0.35065  -0.28179  -0.23693
 Alpha virt. eigenvalues --   -0.00249  -0.00215   0.07728   0.25234   0.25266
 Alpha virt. eigenvalues --    0.28665   0.38172   0.60177   0.60250   0.61042
 Alpha virt. eigenvalues --    0.63366   0.63427   0.71405   0.88786   1.06517

  Beta  occ. eigenvalues --  -76.35392  -6.31661  -4.53367  -4.53366  -4.52891
  Beta  occ. eigenvalues --   -0.59242  -0.35057  -0.35040  -0.25083
  Beta virt. eigenvalues --   -0.10040  -0.00200  -0.00162   0.07951   0.25231
  Beta virt. eigenvalues --    0.25275   0.29088   0.38724   0.60350   0.60396
  Beta virt. eigenvalues --    0.61888   0.63362   0.63529   0.83720   0.93150

 Mulliken charges and spin densities:
               1          2
     1  P   -0.139849   0.034415
     2  H    0.052945  -0.000540
     3  H    0.052946  -0.000538
     4  H    0.050845  -0.005100
     5  H   -0.016886   0.971764
 Sum of Mulliken charges =  -0.00000   1.00000

 Dipole moment (field-independent basis, Debye):
    X=             -0.7275    Y=              0.0001    Z=              0.2188  Tot=              0.7597
 Quadrupole moment (field-independent basis, Debye-Ang):
   XX=            -19.0318   YY=            -15.9028   ZZ=            -16.0166
   XY=              0.0002   XZ=              0.5291   YZ=             -0.0000

  Exact polarizability:  32.471  -0.000  22.043   0.086   0.000  21.969
 Approx polarizability:  45.841   0.000  38.179   1.223   0.000  37.876

 ******    1 imaginary frequencies (negative Signs) ******

                      1                      2                      3
                      A                      A                      A
 Frequencies --    -82.6615                94.4616               215.4930
 Red. masses --      1.0133                 1.0132                 1.0366
 Frc consts  --      0.0041                 0.0053                 0.0284
 IR Inten    --      9.7785                 9.1504                20.4402

                      4                      5                      6
                      A                      A                      A
 Frequencies --    999.6389              1129.0043              1129.1385
 Red. masses --      1.0735                 1.0252                 1.0250
 Frc consts  --      0.6320                 0.7699                 0.7699
 IR Inten    --      9.7817                10.9533                10.7371

                      7                      8                      9
                      A                      A                      A
 Frequencies --   2328.0462              2345.4467              2351.3811
 Red. masses --      1.0324                 1.0400                 1.0405
 Frc consts  --      3.2966                 3.3707                 3.3895
 IR Inten    --     59.9539                94.8877                99.1393

 - Thermochemistry -
 -------------------
 Temperature   298.150 Kelvin.  Pressure   1.00000 Atm.
 Atom     1 has atomic number 15 and mass  30.97376

 Molecular mass:    35.00506 amu.
 Principal axes and moments of inertia in atomic units:
                           1         2         3
     Eigenvalues --    15.47681  46.81900  46.89543
           X            0.99996   0.00000   0.00880
           Y           -0.00000   1.00000  -0.00013
           Z           -0.00880   0.00013   0.99996
 This molecule is an asymmetric top.
 Rotational symmetry number  1.
 Rotational temperatures (Kelvin)      5.59637     1.84997     1.84696
 Rotational constants (GHZ):         116.60939    38.54720    38.48438
    1 imaginary frequencies ignored.
 Zero-point vibrational energy      63357.9 (Joules/Mol)
                                   15.14290 (Kcal/Mol)
 Warning -- explicit consideration of   2 degrees of freedom as
           vibrations may cause significant error
 Vibrational temperatures:    135.91   310.05  1438.26  1624.39  1624.58
          (Kelvin)           3349.54  3374.57  3383.11

 Zero-point correction=                           0.024132 (Hartree/Particle)
 Thermal correction to Energy=                    0.028328
 Thermal correction to Enthalpy=                  0.029272
 Thermal correction to Gibbs Free Energy=        -0.000140
 Sum of electronic and zero-point Energies=           -343.629559
 Sum of electronic and thermal Energies=              -343.625362
 Sum of electronic and thermal Enthalpies=            -343.624418
 Sum of electronic and thermal Free Energies=         -343.653831

                     E (Thermal)             CV                S
                      KCal/Mol        Cal/Mol-Kelvin    Cal/Mol-Kelvin
 Total                   17.776             10.631             61.904
 Electronic               0.000              0.000              1.377
 Translational            0.889              2.981             36.589
 Rotational               0.889              2.981             18.170
 Vibrational             15.999              4.670              5.767
 Vibration     1          0.603              1.953              3.565
 Vibration     2          0.645              1.817              1.997

                           ! Non-Optimized Parameters !
 Normal termination of Gaussian 16 at Sun Oct 11 12:53:56 2020.
