 Gaussian 16, Revision A.03,

 ----------------------------------------------------------------------
 #P Opt(TS,MaxCyc=50,NoEigenTest,MaxStep=10,AddRedundant) BP86/6-31G* 5
 D 7F Integral=UltraFineGrid SCF=(NoSymm,XQC,MaxCyc=120) EmpiricalDispe
 rsion=GD3BJ IOp(1/33=1)
 ----------------------------------------------------------------------

 TstMul:  Mul=     2
 TstMul:  ICh=     0
 TstMul:  Mul=     2
 Symbolic Z-matrix:
 Charge =  0 Multiplicity = 2

 SCF Done:  E(UB-P86) =  -116.233515680     A.U. after   13 cycles
 SCF Done:  E(UB-P86) =  -116.233989393     A.U. after   13 cycles
 SCF Done:  E(UB-P86) =  -116.234576004     A.U. after   12 cycles
 SCF Done:  E(UB-P86) =  -116.234590485     A.U. after   10 cycles
 SCF Done:  E(UB-P86) =  -116.234484823     A.U. after   14 cycles
 SCF Done:  E(UB-P86) =  -116.234491010     A.U. after   14 cycles
 SCF Done:  E(UB-P86) =  -116.234516272     A.U. after   13 cycles
 SCF Done:  E(UB-P86) =  -116.234532817     A.U. after   13 cycles
 SCF Done:  E(UB-P86) =  -116.234535208     A.U. after   13 cycles
 SCF Done:  E(UB-P86) =  -116.234536368     A.U. after   10 cycles
 Optimization completed.
    -- Stationary point found.

 1\1\GINC-NODE63\FTS\UBP86\6-31G(d)\C1H5O1(2)\RPEVERATI\07-Oct-2020\0\\
 #P Opt(TS,MaxCyc=50,NoEigenTest,MaxStep=10,AddRedundant) BP86/6-31G* 5
 D 7F Integral=UltraFineGrid SCF=(NoSymm,XQC,MaxCyc=120) EmpiricalDispe
 rsion=GD3BJ IOp(1/33=1)\\TS search on BH76.\\0,2\C,-1.2130143064,-0.00
 06090886,0.0077151523\O,1.329544389,-0.0845126099,0.0850645065\H,-0.00
 27984401,-0.1605213151,0.0730531622\H,-1.5944463809,-0.2756026014,1.00
 16873412\H,-1.4037699914,1.0544944612,-0.235630695\H,-1.554680197,-0.6
 811428781,-0.7853754597\H,1.4388503176,0.8689140155,-0.1494805894\\Ver

 Normal termination of Gaussian 16 at Wed Oct  7 14:12:38 2020.
 Gaussian 16:  ES64L-G16RevA.03 25-Dec-2016

 ----------------------------------------------------------------------
 #P Freq BP86/6-31G* 5D 7F Integral=UltraFineGrid SCF=(NoSymm,XQC,MaxCy
 c=120) EmpiricalDispersion=GD3BJ IOp(1/33=1) Geom=Check Guess=Read
 ----------------------------------------------------------------------

 TstMul:  Mul=     2
 TstMul:  ICh=     0
 TstMul:  Mul=     2
 Structure from the checkpoint file:  "MN_81_RKT04_BH76_BP86DBJ_631Gs.chk"
 Charge =  0 Multiplicity = 2

                         Standard orientation:
 ---------------------------------------------------------------------
 Center     Atomic      Atomic             Coordinates (Angstroms)
 Number     Number       Type             X           Y           Z
 ---------------------------------------------------------------------
      1          6           0       -1.225979    0.008342   -0.000079
      2          8           0        1.316344   -0.110901   -0.000064
      3          1           0       -0.016832   -0.171725   -0.001348
      4          1           0       -1.591774   -0.495658    0.906160
      5          1           0       -1.408132    1.092389    0.022501
      6          1           0       -1.591211   -0.457943   -0.926383
      7          1           0        1.433071    0.870097    0.000058
 ---------------------------------------------------------------------

 SCF Done:  E(UB-P86) =  -116.234536368     A.U. after    1 cycles

 The electronic state is 2-A.
 Alpha  occ. eigenvalues --  -18.80044  -9.91915  -0.88562  -0.64484  -0.42635
 Alpha  occ. eigenvalues --   -0.37396  -0.37167  -0.35823  -0.23644  -0.23509
 Alpha virt. eigenvalues --    0.05928   0.09791   0.13004   0.13269   0.23876
 Alpha virt. eigenvalues --    0.47630   0.47704   0.49745   0.73041   0.76263
 Alpha virt. eigenvalues --    0.82325   0.82381   0.83972   0.85793   0.92067

  Beta  occ. eigenvalues --  -18.78519  -9.91303  -0.85145  -0.63015  -0.40471
  Beta  occ. eigenvalues --   -0.36715  -0.36688  -0.33349  -0.22021
  Beta virt. eigenvalues --   -0.17135   0.06490   0.10374   0.13464   0.13744
  Beta virt. eigenvalues --    0.25442   0.48118   0.48135   0.52592   0.74093
  Beta virt. eigenvalues --    0.77208   0.82817   0.82926   0.84848   0.86783

 Mulliken charges and spin densities:
               1          2
     1  C   -0.696272   0.426022
     2  O   -0.593593   0.656121
     3  H    0.333556  -0.042148
     4  H    0.196480  -0.006316
     5  H    0.182806  -0.011745
     6  H    0.196267  -0.006435
     7  H    0.380755  -0.015499
 Sum of Mulliken charges =   0.00000   1.00000

 Dipole moment (field-independent basis, Debye):
    X=             -1.2852    Y=              1.5107    Z=              0.0005  Tot=              1.9834
 Quadrupole moment (field-independent basis, Debye-Ang):
   XX=            -14.4586   YY=            -12.5843   ZZ=            -14.4440
   XY=              2.5680   XZ=              0.0016   YZ=             -0.0011

  Exact polarizability:  35.396   1.333  18.652   0.007  -0.001  14.913
 Approx polarizability:  60.972  -0.214  26.858   0.018  -0.001  19.922

 ******    1 imaginary frequencies (negative Signs) ******

                      1                      2                      3
                      A                      A                      A
 Frequencies --   -416.9374                28.4950               247.2285
 Red. masses --      1.7288                 1.0533                 1.0563
 Frc consts  --      0.1771                 0.0005                 0.0380
 IR Inten    --    100.1806                82.1591                 5.1039

                      4                      5                      6
                      A                      A                      A
 Frequencies --    351.5204               838.9053               997.7627
 Red. masses --      1.1076                 1.1272                 1.9756
 Frc consts  --      0.0806                 0.4674                 1.1588
 IR Inten    --      7.3829                33.3669               301.0679

                      7                      8                      9
                      A                      A                      A
 Frequencies --   1102.1347              1292.5421              1394.3327
 Red. masses --      1.1092                 1.0447                 1.1180
 Frc consts  --      0.7938                 1.0283                 1.2806
 IR Inten    --     43.9128                72.4764                28.6685

                     10                     11                     12
                      A                      A                      A
 Frequencies --   1431.4284              1449.2790              3012.3805
 Red. masses --      1.0561                 1.0172                 1.0235
 Frc consts  --      1.2750                 1.2588                 5.4722
 IR Inten    --      1.8672                 4.9012                 2.2309

                     13                     14                     15
                      A                      A                      A
 Frequencies --   3133.0800              3136.7010              3562.0107
 Red. masses --      1.1066                 1.1073                 1.0665
 Frc consts  --      6.4002                 6.4188                 7.9724
 IR Inten    --     12.4109                 9.8212                 7.7906

 - Thermochemistry -
 -------------------
 Temperature   298.150 Kelvin.  Pressure   1.00000 Atm.
 Atom     1 has atomic number  6 and mass  12.00000

 Molecular mass:    33.03404 amu.
 Principal axes and moments of inertia in atomic units:
                           1         2         3
     Eigenvalues --    15.35202 201.20901 204.46966
           X            0.99976   0.02191  -0.00000
           Y           -0.02191   0.99976  -0.00003
           Z            0.00000   0.00003   1.00000
 This molecule is an asymmetric top.
 Rotational symmetry number  1.
 Rotational temperatures (Kelvin)      5.64186     0.43047     0.42360
 Rotational constants (GHZ):         117.55722     8.96949     8.82645
    1 imaginary frequencies ignored.
 Zero-point vibrational energy     131456.4 (Joules/Mol)
                                   31.41884 (Kcal/Mol)
 Warning -- explicit consideration of   3 degrees of freedom as
           vibrations may cause significant error
 Vibrational temperatures:     41.00   355.71   505.76  1207.00  1435.56
          (Kelvin)           1585.73  1859.68  2006.13  2059.51  2085.19
                             4334.14  4507.80  4513.01  5124.94

 Zero-point correction=                           0.050069 (Hartree/Particle)
 Thermal correction to Energy=                    0.054794
 Thermal correction to Enthalpy=                  0.055738
 Thermal correction to Gibbs Free Energy=         0.023372
 Sum of electronic and zero-point Energies=           -116.184467
 Sum of electronic and thermal Energies=              -116.179742
 Sum of electronic and thermal Enthalpies=            -116.178798
 Sum of electronic and thermal Free Energies=         -116.211164

                     E (Thermal)             CV                S
                      KCal/Mol        Cal/Mol-Kelvin    Cal/Mol-Kelvin
 Total                   34.384             12.976             68.119
 Electronic               0.000              0.000              1.377
 Translational            0.889              2.981             36.416
 Rotational               0.889              2.981             21.073
 Vibrational             32.606              7.015              9.252
 Vibration     1          0.593              1.984              5.932
 Vibration     2          0.661              1.767              1.750
 Vibration     3          0.728              1.572              1.159

                           ! Non-Optimized Parameters !
 Normal termination of Gaussian 16 at Wed Oct  7 14:13:04 2020.
