 Gaussian 16, Revision A.03,

 ----------------------------------------------------------------------
 #P Opt(TS,MaxCyc=50,NoEigenTest,MaxStep=10,AddRedundant) BP86/6-31G* 5
 D 7F Integral=UltraFineGrid SCF=(NoSymm,XQC,MaxCyc=120) EmpiricalDispe
 rsion=GD3BJ IOp(1/33=1)
 ----------------------------------------------------------------------

 TstMul:  Mul=     3
 TstMul:  ICh=     0
 TstMul:  Mul=     3
 Symbolic Z-matrix:
 Charge =  0 Multiplicity = 3

 SCF Done:  E(UB-P86) =  -76.2165791274     A.U. after   12 cycles
 SCF Done:  E(UB-P86) =  -76.2166192178     A.U. after   10 cycles
 SCF Done:  E(UB-P86) =  -76.2166032317     A.U. after   10 cycles
 SCF Done:  E(UB-P86) =  -76.2163236016     A.U. after   11 cycles
 SCF Done:  E(UB-P86) =  -76.2164896821     A.U. after   11 cycles
 SCF Done:  E(UB-P86) =  -76.2163860268     A.U. after   11 cycles
 SCF Done:  E(UB-P86) =  -76.2163786302     A.U. after   11 cycles
 SCF Done:  E(UB-P86) =  -76.2163990501     A.U. after   11 cycles
 SCF Done:  E(UB-P86) =  -76.2163930956     A.U. after    8 cycles
 SCF Done:  E(UB-P86) =  -76.2163928540     A.U. after    9 cycles
 Optimization completed.
    -- Stationary point found.
 Normal termination of Gaussian 16 at Wed Oct  7 14:12:32 2020.
 Gaussian 16:  ES64L-G16RevA.03 25-Dec-2016

 ----------------------------------------------------------------------
 #P Freq BP86/6-31G* 5D 7F Integral=UltraFineGrid SCF=(NoSymm,XQC,MaxCy
 c=120) EmpiricalDispersion=GD3BJ IOp(1/33=1) Geom=Check Guess=Read
 ----------------------------------------------------------------------

 TstMul:  Mul=     3
 TstMul:  ICh=     0
 TstMul:  Mul=     3
 Structure from the checkpoint file:  "MN_89_RKT14_BH76_BP86DBJ_631Gs.chk"
 Charge =  0 Multiplicity = 3

                         Standard orientation:
 ---------------------------------------------------------------------
 Center     Atomic      Atomic             Coordinates (Angstroms)
 Number     Number       Type             X           Y           Z
 ---------------------------------------------------------------------
      1          1           0        0.000000    0.000000   -0.774517
      2          8           0        0.000000    0.000000    0.327406
      3          1           0        0.000000    0.000000   -1.844731
 ---------------------------------------------------------------------

 SCF Done:  E(UB-P86) =  -76.2163928540     A.U. after    1 cycles

 Unable to determine electronic state:  partially filled degenerate orbitals.
 Alpha  occ. eigenvalues --  -18.87081  -0.91028  -0.46351  -0.35390  -0.28564
 Alpha  occ. eigenvalues --   -0.27782
 Alpha virt. eigenvalues --    0.13924   0.61736   0.69629   0.75101   0.79981
 Alpha virt. eigenvalues --    0.86345   1.31045   1.61022   1.66067   1.67208
 Alpha virt. eigenvalues --    1.67271   2.16845
  Beta  occ. eigenvalues --  -18.83975  -0.83350  -0.41058  -0.24721
  Beta virt. eigenvalues --   -0.21386  -0.18817   0.18075   0.65424   0.77725
  Beta virt. eigenvalues --    0.82061   0.85405   0.90863   1.37266   1.68851
  Beta virt. eigenvalues --    1.69834   1.73541   1.75106   2.21614

 Mulliken charges and spin densities:
               1          2
     1  H    0.275710  -0.062863
     2  O   -0.299258   1.365437
     3  H    0.023548   0.697425
 Sum of Mulliken charges =   0.00000   2.00000

 Dipole moment (field-independent basis, Debye):
    X=              0.0000    Y=             -0.0000    Z=             -1.2892  Tot=              1.2892
 Quadrupole moment (field-independent basis, Debye-Ang):
   XX=             -6.6009   YY=             -7.7361   ZZ=             -6.3195
   XY=              0.0000   XZ=              0.0000   YZ=              0.0000

  Exact polarizability:   2.679   0.000   2.387   0.000  -0.000  19.833
 Approx polarizability:   3.645   0.000   2.714   0.000  -0.000  33.857

 ******    1 imaginary frequencies (negative Signs) ******

                      1                      2                      3
                     SG                     PI                     PI
 Frequencies --   -512.2410               165.2340               833.0238
 Red. masses --      1.0079                 1.0193                 1.0193
 Frc consts  --      0.1558                 0.0164                 0.4167
 IR Inten    --    158.9588                40.8341                30.4763

                      4
                     SG
 Frequencies --   1597.9869
 Red. masses --      1.1259
 Frc consts  --      1.6939
 IR Inten    --      1.2727

 - Thermochemistry -
 -------------------
 Temperature   298.150 Kelvin.  Pressure   1.00000 Atm.
 Atom     1 has atomic number  1 and mass   1.00783

 Molecular mass:    18.01056 amu.
 Principal axes and moments of inertia in atomic units:
                           1         2         3
     Eigenvalues --     0.00000  19.19200  19.19200
           X            0.00000   0.00000   1.00000
           Y            0.00000   1.00000   0.00000
           Z            1.00000   0.00000   0.00000
 This molecule is a prolate symmetric top.
 Rotational symmetry number  1.
 Rotational temperature (Kelvin)      4.51302
 Rotational constant (GHZ):          94.036121
    1 imaginary frequencies ignored.
 Zero-point vibrational energy      15529.0 (Joules/Mol)
                                    3.71152 (Kcal/Mol)
 Warning -- explicit consideration of   1 degrees of freedom as
           vibrations may cause significant error
 Vibrational temperatures:    237.73  1198.54  2299.15
          (Kelvin)

 Zero-point correction=                           0.005915 (Hartree/Particle)
 Thermal correction to Energy=                    0.008965
 Thermal correction to Enthalpy=                  0.009909
 Thermal correction to Gibbs Free Energy=        -0.013745
 Sum of electronic and zero-point Energies=            -76.210478
 Sum of electronic and thermal Energies=               -76.207428
 Sum of electronic and thermal Enthalpies=             -76.206484
 Sum of electronic and thermal Free Energies=          -76.230138

                     E (Thermal)             CV                S
                      KCal/Mol        Cal/Mol-Kelvin    Cal/Mol-Kelvin
 Total                    5.626              7.504             49.785
 Electronic               0.000              0.000              2.183
 Translational            0.889              2.981             34.608
 Rotational               0.592              1.987             10.315
 Vibrational              4.144              2.536              2.679
 Vibration     1          0.624              1.885              2.489

 Optimization completed.
    -- Stationary point found.
 Normal termination of Gaussian 16 at Wed Oct  7 14:12:51 2020.
