 Gaussian 16, Revision A.03,

 ----------------------------------------------------------------------
 #P Opt(TS,MaxCyc=50,NoEigenTest,MaxStep=10,AddRedundant) BP86/6-31G* 5
 D 7F Integral=UltraFineGrid SCF=(NoSymm,XQC,MaxCyc=120) EmpiricalDispe
 rsion=GD3BJ IOp(1/33=1)
 ----------------------------------------------------------------------

 TstMul:  Mul=     2
 TstMul:  ICh=     0
 TstMul:  Mul=     2
 Symbolic Z-matrix:
 Charge =  0 Multiplicity = 2

 SCF Done:  E(UB-P86) =  -135.687223286     A.U. after   14 cycles
 SCF Done:  E(UB-P86) =  -135.688231439     A.U. after   12 cycles
 SCF Done:  E(UB-P86) =  -135.688490369     A.U. after   12 cycles
 SCF Done:  E(UB-P86) =  -135.688769091     A.U. after   12 cycles
 SCF Done:  E(UB-P86) =  -135.688840230     A.U. after   12 cycles
 SCF Done:  E(UB-P86) =  -135.688845071     A.U. after   10 cycles
 SCF Done:  E(UB-P86) =  -135.688827938     A.U. after   12 cycles
 SCF Done:  E(UB-P86) =  -135.688833253     A.U. after   12 cycles
 SCF Done:  E(UB-P86) =  -135.688833872     A.U. after    8 cycles
 SCF Done:  E(UB-P86) =  -135.688833991     A.U. after    7 cycles
 SCF Done:  E(UB-P86) =  -135.688834171     A.U. after    8 cycles
 SCF Done:  E(UB-P86) =  -135.688833741     A.U. after   10 cycles
 SCF Done:  E(UB-P86) =  -135.688833837     A.U. after    9 cycles
 Optimization completed.
    -- Stationary point found.

 1\1\GINC-NODE56\FTS\UBP86\6-31G(d)\C2H8N1(2)\RPEVERATI\07-Oct-2020\0\\
 #P Opt(TS,MaxCyc=50,NoEigenTest,MaxStep=10,AddRedundant) BP86/6-31G* 5
 D 7F Integral=UltraFineGrid SCF=(NoSymm,XQC,MaxCyc=120) EmpiricalDispe
 rsion=GD3BJ IOp(1/33=1)\\TS search on BH76.\\0,2\C,-1.5208126519,-0.44
 76833451,-0.0074471497\C,-0.4958582564,0.6698806176,0.0121894687\N,1.9
 239172533,-0.324213481,0.0246054402\H,-1.4097383747,-1.0824915214,-0.9
 042689514\H,-1.4253363746,-1.0985788434,0.8795020105\H,-2.5545664697,-
 0.045051384,-0.0131377119\H,-0.4869593613,1.3024029921,-0.8908026243\H

 Normal termination of Gaussian 16 at Wed Oct  7 14:14:24 2020.
 Gaussian 16:  ES64L-G16RevA.03 25-Dec-2016

 ----------------------------------------------------------------------
 #P Freq BP86/6-31G* 5D 7F Integral=UltraFineGrid SCF=(NoSymm,XQC,MaxCy
 c=120) EmpiricalDispersion=GD3BJ IOp(1/33=1) Geom=Check Guess=Read
 ----------------------------------------------------------------------

 TstMul:  Mul=     2
 TstMul:  ICh=     0
 TstMul:  Mul=     2
 Structure from the checkpoint file:  "MN_94_RKT20_BH76_BP86DBJ_631Gs.chk"
 Charge =  0 Multiplicity = 2

                         Standard orientation:
 ---------------------------------------------------------------------
 Center     Atomic      Atomic             Coordinates (Angstroms)
 Number     Number       Type             X           Y           Z
 ---------------------------------------------------------------------
      1          6           0       -1.534822   -0.425363    0.004804
      2          6           0       -0.495229    0.678697   -0.008015
      3          7           0        1.911352   -0.346710    0.016402
      4          1           0       -1.436898   -1.083212   -0.876815
      5          1           0       -1.443106   -1.055695    0.906873
      6          1           0       -2.563230   -0.009355   -0.005475
      7          1           0       -0.482908    1.288894   -0.926202
      8          1           0       -0.494538    1.320365    0.888670
      9          1           0        0.662173    0.068777    0.016860
     10          1           0        2.252629    0.107704   -0.854921
     11          1           0        2.306721    0.269484    0.755460
 ---------------------------------------------------------------------

 SCF Done:  E(UB-P86) =  -135.688833837     A.U. after    1 cycles

 The electronic state is 2-A.
 Alpha  occ. eigenvalues --  -14.00787  -9.90995  -9.90083  -0.76223  -0.68240
 Alpha  occ. eigenvalues --   -0.55197  -0.40331  -0.40308  -0.39041  -0.34228
 Alpha  occ. eigenvalues --   -0.32929  -0.30639  -0.24256  -0.17357
 Alpha virt. eigenvalues --    0.05856   0.09324   0.11749   0.12216   0.13623
 Alpha virt. eigenvalues --    0.14275   0.16535   0.20067   0.25792   0.45837
 Alpha virt. eigenvalues --    0.48630   0.51220   0.55528   0.56556   0.60813

  Beta  occ. eigenvalues --  -13.99694  -9.90280  -9.90093  -0.73829  -0.67408
  Beta  occ. eigenvalues --   -0.54284  -0.39694  -0.38772  -0.38592  -0.33287
  Beta  occ. eigenvalues --   -0.32320  -0.30411  -0.22431
  Beta virt. eigenvalues --   -0.11862   0.06439   0.09688   0.12066   0.12731
  Beta virt. eigenvalues --    0.13874   0.14592   0.16961   0.20642   0.27256
  Beta virt. eigenvalues --    0.46433   0.48882   0.51780   0.56731   0.58159

 Mulliken charges and spin densities:
               1          2
     1  C   -0.464034  -0.015378
     2  C   -0.479835   0.478264
     3  N   -0.749191   0.602819
     4  H    0.169621   0.004247
     5  H    0.171098   0.004272
     6  H    0.164713   0.032259
     7  H    0.163558  -0.012482
     8  H    0.164592  -0.011976
     9  H    0.278992  -0.050699
    10  H    0.290187  -0.015651
    11  H    0.290299  -0.015675
 Sum of Mulliken charges =  -0.00000   1.00000

 Dipole moment (field-independent basis, Debye):
    X=             -0.2665    Y=              1.7023    Z=             -0.1761  Tot=              1.7320
 Quadrupole moment (field-independent basis, Debye-Ang):
   XX=            -20.5546   YY=            -23.2371   ZZ=            -20.1434
   XY=              3.6971   XZ=             -0.3685   YZ=              0.2487

  Exact polarizability:  59.647  -4.137  31.961   0.029   0.249  32.028
 Approx polarizability:  95.610 -15.151  49.760   0.428   0.297  48.335

 ******    1 imaginary frequencies (negative Signs) ******

                      1                      2                      3
                      A                      A                      A
 Frequencies --  -1282.8807                21.3464               146.6669
 Red. masses --      1.0906                 1.0847                 2.6421
 Frc consts  --      1.0575                 0.0003                 0.0335
 IR Inten    --    266.4322                48.4784                 5.7343

                      4                      5                      6
                      A                      A                      A
 Frequencies --    167.4702               426.3954               466.7274
 Red. masses --      1.0864                 1.0278                 2.2804
 Frc consts  --      0.0180                 0.1101                 0.2927
 IR Inten    --      0.4595                 1.9208                 0.6419

                      7                      8                      9
                      A                      A                      A
 Frequencies --    743.0466               762.4985               868.9503
 Red. masses --      1.1364                 1.3569                 1.0551
 Frc consts  --      0.3697                 0.4648                 0.4694
 IR Inten    --     10.5491                65.6915                 1.3824

                     10                     11                     12
                      A                      A                      A
 Frequencies --    918.9056              1034.7805              1169.3216
 Red. masses --      1.2178                 3.1425                 1.3989
 Frc consts  --      0.6059                 1.9825                 1.1270
 IR Inten    --    110.9547                 4.8082                11.7954

                     13                     14                     15
                      A                      A                      A
 Frequencies --   1205.6475              1343.6659              1381.7713
 Red. masses --      1.3940                 1.0855                 1.1932
 Frc consts  --      1.1939                 1.1547                 1.3422
 IR Inten    --      0.4337                97.7390                 0.2378

                     16                     17                     18
                      A                      A                      A
 Frequencies --   1446.4815              1467.5479              1474.8314
 Red. masses --      1.1328                 1.0325                 1.0502
 Frc consts  --      1.3965                 1.3102                 1.3458
 IR Inten    --      1.4164                 2.8205                 4.4597

                     19                     20                     21
                      A                      A                      A
 Frequencies --   1493.7525              1590.8270              2944.2956
 Red. masses --      1.0442                 1.0690                 1.0462
 Frc consts  --      1.3728                 1.5940                 5.3436
 IR Inten    --     12.4484                13.3684                24.5938

                     22                     23                     24
                      A                      A                      A
 Frequencies --   3006.5076              3018.5492              3044.3124
 Red. masses --      1.0619                 1.0791                 1.1021
 Frc consts  --      5.6551                 5.7931                 6.0181
 IR Inten    --      5.1830                40.1882                 9.1704

                     25                     26                     27
                      A                      A                      A
 Frequencies --   3082.7895              3244.7054              3352.0717
 Red. masses --      1.1087                 1.0496                 1.0878
 Frc consts  --      6.2082                 6.5110                 7.2017
 IR Inten    --     41.1161                11.7448                 7.9935

 - Thermochemistry -
 -------------------
 Temperature   298.150 Kelvin.  Pressure   1.00000 Atm.
 Atom     1 has atomic number  6 and mass  12.00000

 Molecular mass:    46.06567 amu.
 Principal axes and moments of inertia in atomic units:
                           1         2         3
     Eigenvalues --    70.31570 389.96019 427.56536
           X            0.99954   0.03014  -0.00175
           Y           -0.03013   0.99952   0.00730
           Z            0.00197  -0.00724   0.99997
 This molecule is an asymmetric top.
 Rotational symmetry number  1.
 Rotational temperatures (Kelvin)      1.23179     0.22211     0.20257
 Rotational constants (GHZ):          25.66626     4.62801     4.22097
    1 imaginary frequencies ignored.
 Zero-point vibrational energy     238199.6 (Joules/Mol)
                                   56.93107 (Kcal/Mol)
 Warning -- explicit consideration of   5 degrees of freedom as
           vibrations may cause significant error
 Vibrational temperatures:     30.71   211.02   240.95   613.49   671.52
          (Kelvin)           1069.08  1097.07  1250.23  1322.10  1488.82
                             1682.39  1734.66  1933.24  1988.06  2081.16
                             2111.47  2121.95  2149.18  2288.85  4236.18
                             4325.69  4343.02  4380.09  4435.45  4668.41
                             4822.88

 Zero-point correction=                           0.090725 (Hartree/Particle)
 Thermal correction to Energy=                    0.096659
 Thermal correction to Enthalpy=                  0.097604
 Thermal correction to Gibbs Free Energy=         0.060961
 Sum of electronic and zero-point Energies=           -135.598108
 Sum of electronic and thermal Energies=              -135.592174
 Sum of electronic and thermal Enthalpies=            -135.591230
 Sum of electronic and thermal Free Energies=         -135.627873

                     E (Thermal)             CV                S
                      KCal/Mol        Cal/Mol-Kelvin    Cal/Mol-Kelvin
 Total                   60.655             18.351             77.121
 Electronic               0.000              0.000              1.377
 Translational            0.889              2.981             37.408
 Rotational               0.889              2.981             23.976
 Vibrational             58.877             12.389             14.360
 Vibration     1          0.593              1.985              6.505
 Vibration     2          0.617              1.906              2.715
 Vibration     3          0.624              1.882              2.464
 Vibration     4          0.788              1.413              0.871
 Vibration     5          0.824              1.324              0.747

                           ! Non-Optimized Parameters !
 Normal termination of Gaussian 16 at Wed Oct  7 14:15:17 2020.
