 Gaussian 16, Revision A.03,

 ----------------------------------------------------------------------
 #P Opt(TS,MaxCyc=50,NoEigenTest,MaxStep=10,AddRedundant) BP86/6-31G* 5
 D 7F Integral=UltraFineGrid SCF=(NoSymm,XQC,MaxCyc=120) EmpiricalDispe
 rsion=GD3BJ IOp(1/33=1)
 ----------------------------------------------------------------------

 TstMul:  Mul=     3
 TstMul:  ICh=     0
 TstMul:  Mul=     3
 Symbolic Z-matrix:
 Charge =  0 Multiplicity = 3

 SCF Done:  E(UB-P86) =  -535.885748621     A.U. after   19 cycles
 SCF Done:  E(UB-P86) =  -535.885840703     A.U. after   11 cycles
 SCF Done:  E(UB-P86) =  -535.885795962     A.U. after   12 cycles
 SCF Done:  E(UB-P86) =  -535.883975894     A.U. after   14 cycles
 SCF Done:  E(UB-P86) =  -535.882470387     A.U. after   14 cycles
 SCF Done:  E(UB-P86) =  -535.881311233     A.U. after   14 cycles
 SCF Done:  E(UB-P86) =  -535.880413188     A.U. after   14 cycles
 SCF Done:  E(UB-P86) =  -535.879739700     A.U. after   14 cycles
 SCF Done:  E(UB-P86) =  -535.879228715     A.U. after   14 cycles
 SCF Done:  E(UB-P86) =  -535.878819012     A.U. after   15 cycles
 SCF Done:  E(UB-P86) =  -535.877289109     A.U. after   18 cycles
 SCF Done:  E(UB-P86) =  -535.877326436     A.U. after   19 cycles
 SCF Done:  E(UB-P86) =  -535.877341844     A.U. after   19 cycles
 SCF Done:  E(UB-P86) =  -535.877341269     A.U. after   19 cycles
 SCF Done:  E(UB-P86) =  -535.877338123     A.U. after   21 cycles
 SCF Done:  E(UB-P86) =  -535.877336834     A.U. after   20 cycles
 SCF Done:  E(UB-P86) =  -535.877336864     A.U. after   18 cycles
 SCF Done:  E(UB-P86) =  -535.877336830     A.U. after   11 cycles
 SCF Done:  E(UB-P86) =  -535.877336864     A.U. after   11 cycles
 Optimization completed.
    -- Stationary point found.
 Normal termination of Gaussian 16 at Thu Oct  8 20:02:26 2020.
 Gaussian 16:  ES64L-G16RevA.03 25-Dec-2016

 ----------------------------------------------------------------------
 #P Freq BP86/6-31G* 5D 7F Integral=UltraFineGrid SCF=(NoSymm,XQC,MaxCy
 c=120) EmpiricalDispersion=GD3BJ IOp(1/33=1) Geom=Check Guess=Read
 ----------------------------------------------------------------------

 TstMul:  Mul=     3
 TstMul:  ICh=     0
 TstMul:  Mul=     3
 Structure from the checkpoint file:  "MN_91_RKT17_BH76_BP86DBJ_631Gs.chk"
 Charge =  0 Multiplicity = 3

                         Standard orientation:
 ---------------------------------------------------------------------
 Center     Atomic      Atomic             Coordinates (Angstroms)
 Number     Number       Type             X           Y           Z
 ---------------------------------------------------------------------
      1         17           0        0.003279   -0.992667    0.000000
      2          1           0       -0.081984    0.338190    0.000000
      3          8           0        0.003279    2.067144    0.000000
 ---------------------------------------------------------------------

 SCF Done:  E(UB-P86) =  -535.877336864     A.U. after    1 cycles

 The electronic state is 3-A".
 Alpha  occ. eigenvalues -- -100.72024 -18.96556  -9.18604  -7.00909  -7.00053
 Alpha  occ. eigenvalues --   -7.00042  -0.94892  -0.76621  -0.43831  -0.41632
 Alpha  occ. eigenvalues --   -0.41518  -0.33910  -0.28915  -0.28892
 Alpha virt. eigenvalues --    0.02431   0.34721   0.38500   0.40132   0.40150
 Alpha virt. eigenvalues --    0.69535   0.70952   0.71868   0.77446   0.77496
 Alpha virt. eigenvalues --    0.80030   0.80030   0.80983   1.06078   1.22661

  Beta  occ. eigenvalues -- -100.71968 -18.92204  -9.18552  -7.00888  -6.99952
  Beta  occ. eigenvalues --   -6.99947  -0.83217  -0.76200  -0.43071  -0.30247
  Beta  occ. eigenvalues --   -0.28652  -0.28643
  Beta virt. eigenvalues --   -0.26465  -0.26434   0.03093   0.34858   0.38698
  Beta virt. eigenvalues --    0.40451   0.40456   0.73061   0.77521   0.77524
  Beta virt. eigenvalues --    0.80548   0.80549   0.81649   0.81781   0.84089

 Mulliken charges and spin densities:
               1          2
     1  Cl  -0.226233   0.095390
     2  H    0.213569  -0.017104
     3  O    0.012665   1.921714
 Sum of Mulliken charges =   0.00000   2.00000

 Dipole moment (field-independent basis, Debye):
    X=             -0.1039    Y=              1.6942    Z=              0.0000  Tot=              1.6973
 Quadrupole moment (field-independent basis, Debye-Ang):
   XX=            -18.5112   YY=            -18.6275   ZZ=            -18.5036
   XY=             -0.2373   XZ=              0.0000   YZ=              0.0000

  Exact polarizability:   8.711   0.018  60.278  -0.000  -0.000   8.696
 Approx polarizability:  11.875   0.163 322.513   0.000   0.000  11.826

 ******    1 imaginary frequencies (negative Signs) ******

                      1                      2                      3
                     A'                     A'                     A'
 Frequencies --    -54.7095               184.5717              2285.6641
 Red. masses --      1.9727                 1.8754                 1.0437
 Frc consts  --      0.0035                 0.0376                 3.2125
 IR Inten    --     39.5262                30.5822                 2.1437

 - Thermochemistry -
 -------------------
 Temperature   298.150 Kelvin.  Pressure   1.00000 Atm.
 Atom     1 has atomic number 17 and mass  34.96885

 Molecular mass:    51.97159 amu.
 Principal axes and moments of inertia in atomic units:
                           1         2         3
     Eigenvalues --     0.02562 367.41919 367.44481
           X           -0.00030   1.00000   0.00000
           Y            1.00000   0.00030   0.00000
           Z            0.00000   0.00000   1.00000
 This molecule is an asymmetric top.
 Rotational symmetry number  1.
 Rotational temperatures (Kelvin)   3380.30261     0.23574     0.23572
 Rotational constants (GHZ):       70434.07401     4.91194     4.91160
    1 imaginary frequencies ignored.
 Zero-point vibrational energy      14775.3 (Joules/Mol)
                                    3.53138 (Kcal/Mol)
 Warning -- explicit consideration of   1 degrees of freedom as
           vibrations may cause significant error
 Vibrational temperatures:    265.56  3288.56
          (Kelvin)

 Zero-point correction=                           0.005628 (Hartree/Particle)
 Thermal correction to Energy=                    0.009046
 Thermal correction to Enthalpy=                  0.009990
 Thermal correction to Gibbs Free Energy=        -0.017631
 Sum of electronic and zero-point Energies=           -535.871709
 Sum of electronic and thermal Energies=              -535.868291
 Sum of electronic and thermal Enthalpies=            -535.867347
 Sum of electronic and thermal Free Energies=         -535.894967

                     E (Thermal)             CV                S
                      KCal/Mol        Cal/Mol-Kelvin    Cal/Mol-Kelvin
 Total                    5.676              7.826             58.132
 Electronic               0.000              0.000              2.183
 Translational            0.889              2.981             37.767
 Rotational               0.889              2.981             15.900
 Vibrational              3.899              1.865              2.282
 Vibration     1          0.631              1.861              2.282

                           ! Non-Optimized Parameters !
 Normal termination of Gaussian 16 at Thu Oct  8 20:02:32 2020.
