 Gaussian 16, Revision A.03,

 ----------------------------------------------------------------------
 #P Opt(TS,MaxCyc=50,NoEigenTest,MaxStep=10,AddRedundant) BP86/6-31G* 5
 D 7F Integral=UltraFineGrid SCF=(NoSymm,XQC,MaxCyc=120) EmpiricalDispe
 rsion=GD3BJ IOp(1/33=1)
 ----------------------------------------------------------------------

 TstMul:  Mul=     3
 TstMul:  ICh=     0
 TstMul:  Mul=     3
 Symbolic Z-matrix:
 Charge =  0 Multiplicity = 3

 SCF Done:  E(UB-P86) =  -135.019108933     A.U. after   15 cycles
 SCF Done:  E(UB-P86) =  -135.019578185     A.U. after   12 cycles
 SCF Done:  E(UB-P86) =  -135.020915859     A.U. after   15 cycles
 SCF Done:  E(UB-P86) =  -135.021514412     A.U. after   15 cycles
 SCF Done:  E(UB-P86) =  -135.021832159     A.U. after   13 cycles
 SCF Done:  E(UB-P86) =  -135.021784074     A.U. after   13 cycles
 SCF Done:  E(UB-P86) =  -135.021647490     A.U. after   15 cycles
 SCF Done:  E(UB-P86) =  -135.021902037     A.U. after   13 cycles
 SCF Done:  E(UB-P86) =  -135.021421465     A.U. after   13 cycles
 SCF Done:  E(UB-P86) =  -135.021188042     A.U. after   13 cycles
 SCF Done:  E(UB-P86) =  -135.021207439     A.U. after    8 cycles
 SCF Done:  E(UB-P86) =  -135.021208381     A.U. after    8 cycles
 SCF Done:  E(UB-P86) =  -135.021209438     A.U. after    9 cycles
 SCF Done:  E(UB-P86) =  -135.021220228     A.U. after   13 cycles
 SCF Done:  E(UB-P86) =  -135.021226001     A.U. after   13 cycles
 SCF Done:  E(UB-P86) =  -135.021226557     A.U. after   12 cycles
 SCF Done:  E(UB-P86) =  -135.021226726     A.U. after   12 cycles
 SCF Done:  E(UB-P86) =  -135.021226751     A.U. after    9 cycles
 SCF Done:  E(UB-P86) =  -135.021226803     A.U. after    9 cycles
 Optimization completed.
    -- Stationary point found.

 1\1\GINC-NODE33\FTS\UBP86\6-31G(d)\C2H7N1(3)\RPEVERATI\07-Oct-2020\0\\
 #P Opt(TS,MaxCyc=50,NoEigenTest,MaxStep=10,AddRedundant) BP86/6-31G* 5
 D 7F Integral=UltraFineGrid SCF=(NoSymm,XQC,MaxCyc=120) EmpiricalDispe
 rsion=GD3BJ IOp(1/33=1)\\TS search on BH76.\\0,3\C,-1.422376719,-0.445
 2347764,-0.0061511773\C,-0.4437531653,0.7041048742,-0.0172325231\N,1.9
 895150002,-0.3403164881,0.0313138714\H,-1.2904355721,-1.1005322914,-0.
 8853421107\H,-1.3110661262,-1.0657492969,0.9007033306\H,-2.4712632274,
 -0.0802994867,-0.0253573042\H,-0.4029703742,1.2977345537,-0.9437944725

 Normal termination of Gaussian 16 at Wed Oct  7 14:18:04 2020.
 Gaussian 16:  ES64L-G16RevA.03 25-Dec-2016

 ----------------------------------------------------------------------
 #P Freq BP86/6-31G* 5D 7F Integral=UltraFineGrid SCF=(NoSymm,XQC,MaxCy
 c=120) EmpiricalDispersion=GD3BJ IOp(1/33=1) Geom=Check Guess=Read
 ----------------------------------------------------------------------

 TstMul:  Mul=     3
 TstMul:  ICh=     0
 TstMul:  Mul=     3
 Structure from the checkpoint file:  "MN_93_RKT19_BH76_BP86DBJ_631Gs.chk"
 Charge =  0 Multiplicity = 3

                         Standard orientation:
 ---------------------------------------------------------------------
 Center     Atomic      Atomic             Coordinates (Angstroms)
 Number     Number       Type             X           Y           Z
 ---------------------------------------------------------------------
      1          6           0       -1.435608   -0.434467   -0.000107
      2          6           0       -0.442362    0.702314    0.000116
      3          7           0        1.977563   -0.373758    0.000197
      4          1           0       -1.322057   -1.073887   -0.893443
      5          1           0       -1.322160   -1.074151    0.893061
      6          1           0       -2.479828   -0.055899   -0.000094
      7          1           0       -0.404308    1.313573   -0.915029
      8          1           0       -0.404827    1.313660    0.915218
      9          1           0        0.843232    0.055960    0.000328
     10          1           0        2.514828    0.529967   -0.001473
 ---------------------------------------------------------------------

 SCF Done:  E(UB-P86) =  -135.021226803     A.U. after    1 cycles

 The electronic state is 3-A.
 Alpha  occ. eigenvalues --  -14.04502  -9.91975  -9.90672  -0.75427  -0.68667
 Alpha  occ. eigenvalues --   -0.55494  -0.41300  -0.40155  -0.35695  -0.34186
 Alpha  occ. eigenvalues --   -0.31401  -0.29179  -0.25338  -0.17512
 Alpha virt. eigenvalues --    0.06830   0.09097   0.11416   0.11768   0.13641
 Alpha virt. eigenvalues --    0.16304   0.20007   0.24107   0.44803   0.48354
 Alpha virt. eigenvalues --    0.50757   0.53985   0.56381   0.60724   0.65506

  Beta  occ. eigenvalues --  -14.01945  -9.91072  -9.90697  -0.69944  -0.67011
  Beta  occ. eigenvalues --   -0.54248  -0.39711  -0.39234  -0.34541  -0.33604
  Beta  occ. eigenvalues --   -0.31098  -0.25481
  Beta virt. eigenvalues --   -0.13164  -0.11206   0.07691   0.09927   0.12031
  Beta virt. eigenvalues --    0.12211   0.14011   0.16825   0.20734   0.26550
  Beta virt. eigenvalues --    0.45486   0.49333   0.51385   0.57277   0.59588

 Mulliken charges and spin densities:
               1          2
     1  C   -0.468790  -0.028558
     2  C   -0.455120   0.636020
     3  N   -0.509128   1.483593
     4  H    0.173927   0.006664
     5  H    0.173945   0.006679
     6  H    0.170207   0.041036
     7  H    0.171288  -0.017918
     8  H    0.171305  -0.017913
     9  H    0.291137  -0.066750
    10  H    0.281228  -0.042854
 Sum of Mulliken charges =  -0.00000   2.00000

 Dipole moment (field-independent basis, Debye):
    X=             -0.8918    Y=              1.5911    Z=             -0.0022  Tot=              1.8240
 Quadrupole moment (field-independent basis, Debye-Ang):
   XX=            -21.4552   YY=            -21.7598   ZZ=            -20.5907
   XY=              3.9059   XZ=             -0.0060   YZ=              0.0004

  Exact polarizability:  56.112  -2.900  32.950  -0.006  -0.006  26.391
 Approx polarizability:  89.359 -12.505  51.375  -0.008  -0.011  38.868

 ******    1 imaginary frequencies (negative Signs) ******

                      1                      2                      3
                      A                      A                      A
 Frequencies --  -1049.8356                53.8596               134.8124
 Red. masses --      1.1575                 1.0800                 2.8108
 Frc consts  --      0.7516                 0.0018                 0.0301
 IR Inten    --    212.3181                66.0707                 4.8943

                      4                      5                      6
                      A                      A                      A
 Frequencies --    158.3071               450.9166               471.7573
 Red. masses --      1.1036                 1.0684                 1.8693
 Frc consts  --      0.0163                 0.1280                 0.2451
 IR Inten    --      1.2127                 3.4185                 8.3313

                      7                      8                      9
                      A                      A                      A
 Frequencies --    721.6109               812.0720               895.4965
 Red. masses --      1.4540                 1.0494                 1.1478
 Frc consts  --      0.4461                 0.4077                 0.5423
 IR Inten    --     10.8871                 8.8649                41.8696

                     10                     11                     12
                      A                      A                      A
 Frequencies --   1043.6703              1136.7145              1158.4792
 Red. masses --      3.0564                 1.1182                 1.4920
 Frc consts  --      1.9615                 0.8513                 1.1798
 IR Inten    --      0.6828                24.1696                 6.4362

                     13                     14                     15
                      A                      A                      A
 Frequencies --   1203.3881              1380.3310              1440.9220
 Red. masses --      1.3133                 1.2008                 1.1179
 Frc consts  --      1.1205                 1.3480                 1.3675
 IR Inten    --      6.1923                 3.4756                 5.5017

                     16                     17                     18
                      A                      A                      A
 Frequencies --   1461.7881              1467.2186              1471.7910
 Red. masses --      1.0797                 1.0358                 1.0506
 Frc consts  --      1.3594                 1.3137                 1.3408
 IR Inten    --     61.5109                 6.1521                18.3693

                     19                     20                     21
                      A                      A                      A
 Frequencies --   2931.8586              3008.1391              3022.3605
 Red. masses --      1.0507                 1.0786                 1.0558
 Frc consts  --      5.3211                 5.7505                 5.6823
 IR Inten    --     23.4869                 8.7566                30.9087

                     22                     23                     24
                      A                      A                      A
 Frequencies --   3045.3478              3101.2927              3191.4012
 Red. masses --      1.1022                 1.1115                 1.0724
 Frc consts  --      6.0224                 6.2985                 6.4355
 IR Inten    --     13.1114                32.9535                27.2376

 - Thermochemistry -
 -------------------
 Temperature   298.150 Kelvin.  Pressure   1.00000 Atm.
 Atom     1 has atomic number  6 and mass  12.00000

 Molecular mass:    45.05785 amu.
 Principal axes and moments of inertia in atomic units:
                           1         2         3
     Eigenvalues --    69.21422 365.17489 410.84655
           X            0.99925   0.03882  -0.00003
           Y           -0.03882   0.99925  -0.00003
           Z            0.00003   0.00003   1.00000
 This molecule is an asymmetric top.
 Rotational symmetry number  1.
 Rotational temperatures (Kelvin)      1.25139     0.23718     0.21082
 Rotational constants (GHZ):          26.07472     4.94213     4.39274
    1 imaginary frequencies ignored.
 Zero-point vibrational energy     201950.8 (Joules/Mol)
                                   48.26740 (Kcal/Mol)
 Warning -- explicit consideration of   5 degrees of freedom as
           vibrations may cause significant error
 Vibrational temperatures:     77.49   193.97   227.77   648.77   678.75
          (Kelvin)           1038.24  1168.39  1288.42  1501.61  1635.48
                             1666.79  1731.41  1985.99  2073.17  2103.19
                             2111.00  2117.58  4218.29  4328.04  4348.50
                             4381.58  4462.07  4591.71

 Zero-point correction=                           0.076919 (Hartree/Particle)
 Thermal correction to Energy=                    0.082741
 Thermal correction to Enthalpy=                  0.083685
 Thermal correction to Gibbs Free Energy=         0.047603
 Sum of electronic and zero-point Energies=           -134.944308
 Sum of electronic and thermal Energies=              -134.938486
 Sum of electronic and thermal Enthalpies=            -134.937542
 Sum of electronic and thermal Free Energies=         -134.973624

                     E (Thermal)             CV                S
                      KCal/Mol        Cal/Mol-Kelvin    Cal/Mol-Kelvin
 Total                   51.921             17.823             75.941
 Electronic               0.000              0.000              2.183
 Translational            0.889              2.981             37.342
 Rotational               0.889              2.981             23.855
 Vibrational             50.143             11.862             12.561
 Vibration     1          0.596              1.976              4.670
 Vibration     2          0.613              1.919              2.876
 Vibration     3          0.621              1.893              2.570
 Vibration     4          0.810              1.359              0.793
 Vibration     5          0.829              1.313              0.733

                           ! Non-Optimized Parameters !
 Normal termination of Gaussian 16 at Wed Oct  7 14:18:51 2020.
