 Gaussian 16, Revision A.03,

 ----------------------------------------------------------------------
 #P Opt(TS,MaxCyc=50,NoEigenTest,MaxStep=10,AddRedundant) BP86/6-31G* 5
 D 7F Integral=UltraFineGrid SCF=(NoSymm,XQC,MaxCyc=120) EmpiricalDispe
 rsion=GD3BJ IOp(1/33=1)
 ----------------------------------------------------------------------

 TstMul:  Mul=     2
 TstMul:  ICh=     0
 TstMul:  Mul=     2
 Symbolic Z-matrix:
 Charge =  0 Multiplicity = 2

 SCF Done:  E(UB-P86) =  -96.3715129149     A.U. after   13 cycles
 SCF Done:  E(UB-P86) =  -96.3715334258     A.U. after   10 cycles
 SCF Done:  E(UB-P86) =  -96.3715415266     A.U. after   10 cycles
 SCF Done:  E(UB-P86) =  -96.3720389153     A.U. after   12 cycles
 SCF Done:  E(UB-P86) =  -96.3723679491     A.U. after   12 cycles
 SCF Done:  E(UB-P86) =  -96.3727749713     A.U. after   12 cycles
 SCF Done:  E(UB-P86) =  -96.3727864497     A.U. after   10 cycles
 SCF Done:  E(UB-P86) =  -96.3727869321     A.U. after   10 cycles
 Optimization completed.
    -- Stationary point found.

 1\1\GINC-NODE23\FTS\UBP86\6-31G(d)\C1H6N1(2)\RPEVERATI\07-Oct-2020\0\\
 #P Opt(TS,MaxCyc=50,NoEigenTest,MaxStep=10,AddRedundant) BP86/6-31G* 5
 D 7F Integral=UltraFineGrid SCF=(NoSymm,XQC,MaxCyc=120) EmpiricalDispe
 rsion=GD3BJ IOp(1/33=1)\\TS search on BH76.\\0,2\C,-1.2652335409,0.000
 0157818,0.0070804486\N,1.3273375319,-0.0000269307,-0.1356063559\H,-1.6
 147276409,0.9201825187,-0.4819286874\H,-1.431508827,-0.0042779672,1.09
 27775016\H,-1.615613496,-0.9158347153,-0.4893577202\H,0.0653267024,-0.
 0000436183,-0.2270642413\H,1.479380408,0.8108463023,0.4965842164\H,1.4

 Normal termination of Gaussian 16 at Wed Oct  7 14:13:03 2020.
 Gaussian 16:  ES64L-G16RevA.03 25-Dec-2016

 ----------------------------------------------------------------------
 #P Freq BP86/6-31G* 5D 7F Integral=UltraFineGrid SCF=(NoSymm,XQC,MaxCy
 c=120) EmpiricalDispersion=GD3BJ IOp(1/33=1) Geom=Check Guess=Read
 ----------------------------------------------------------------------

 TstMul:  Mul=     2
 TstMul:  ICh=     0
 TstMul:  Mul=     2
 Structure from the checkpoint file:  "MN_95_RKT21_BH76_BP86DBJ_631Gs.chk"
 Charge =  0 Multiplicity = 2

                         Standard orientation:
 ---------------------------------------------------------------------
 Center     Atomic      Atomic             Coordinates (Angstroms)
 Number     Number       Type             X           Y           Z
 ---------------------------------------------------------------------
      1          6           0       -1.268450    0.000004    0.013985
      2          7           0        1.323429   -0.000004   -0.140768
      3          1           0       -1.620225    0.920198   -0.473335
      4          1           0       -1.429669   -0.004359    1.100444
      5          1           0       -1.621128   -0.915819   -0.480874
      6          1           0        0.061006   -0.000028   -0.226351
      7          1           0        1.478405    0.810831    0.490758
      8          1           0        1.478303   -0.810815    0.490825
 ---------------------------------------------------------------------

 SCF Done:  E(UB-P86) =  -96.3727869321     A.U. after    1 cycles

 The electronic state is 2-A.
 Alpha  occ. eigenvalues --  -14.01308  -9.90639  -0.77022  -0.62336  -0.40719
 Alpha  occ. eigenvalues --   -0.39442  -0.36052  -0.35920  -0.24878  -0.18250
 Alpha virt. eigenvalues --    0.05808   0.10368   0.12656   0.13969   0.14392
 Alpha virt. eigenvalues --    0.24899   0.46830   0.47881   0.51339   0.65472
 Alpha virt. eigenvalues --    0.68225   0.68482   0.81854   0.82854   0.83700

  Beta  occ. eigenvalues --  -14.00257  -9.89859  -0.74695  -0.60630  -0.40021
  Beta  occ. eigenvalues --   -0.37310  -0.35378  -0.35325  -0.22985
  Beta virt. eigenvalues --   -0.12499   0.06443   0.11056   0.13036   0.14549
  Beta virt. eigenvalues --    0.14955   0.26447   0.47283   0.48684   0.55129
  Beta virt. eigenvalues --    0.67540   0.68511   0.70670   0.82421   0.83506

 Mulliken charges and spin densities:
               1          2
     1  C   -0.680568   0.549416
     2  N   -0.756710   0.570328
     3  H    0.185508  -0.012381
     4  H    0.174788  -0.017688
     5  H    0.185564  -0.012346
     6  H    0.301669  -0.048504
     7  H    0.294877  -0.014414
     8  H    0.294872  -0.014412
 Sum of Mulliken charges =  -0.00000   1.00000

 Dipole moment (field-independent basis, Debye):
    X=             -0.5506    Y=              0.0000    Z=              1.6757  Tot=              1.7639
 Quadrupole moment (field-independent basis, Debye-Ang):
   XX=            -16.2606   YY=            -13.6569   ZZ=            -15.5064
   XY=              0.0002   XZ=              3.0384   YZ=              0.0002

  Exact polarizability:  44.072  -0.000  22.229   0.722   0.000  19.827
 Approx polarizability:  76.089  -0.000  31.781  -1.691   0.000  28.297

 ******    1 imaginary frequencies (negative Signs) ******

                      1                      2                      3
                      A                      A                      A
 Frequencies --  -1356.1347                39.1697               376.1486
 Red. masses --      1.0740                 1.0259                 1.2515
 Frc consts  --      1.1638                 0.0009                 0.1043
 IR Inten    --    153.7557                33.5940                 8.8712

                      4                      5                      6
                      A                      A                      A
 Frequencies --    397.0313               556.8122               775.3305
 Red. masses --      1.0261                 2.2793                 1.1085
 Frc consts  --      0.0953                 0.4164                 0.3926
 IR Inten    --      2.6573                 4.0955                 6.5500

                      7                      8                      9
                      A                      A                      A
 Frequencies --    849.4054              1132.9449              1380.4475
 Red. masses --      1.2698                 1.1719                 1.1196
 Frc consts  --      0.5398                 0.8863                 1.2571
 IR Inten    --    115.2558                12.6616               134.1989

                     10                     11                     12
                      A                      A                      A
 Frequencies --   1412.1352              1423.5890              1509.1432
 Red. masses --      1.0956                 1.0506                 1.0298
 Frc consts  --      1.2872                 1.2545                 1.3819
 IR Inten    --     10.3990                15.1867                11.6451

                     13                     14                     15
                      A                      A                      A
 Frequencies --   1604.4295              3011.5019              3141.6656
 Red. masses --      1.0613                 1.0206                 1.1090
 Frc consts  --      1.6097                 5.4533                 6.4490
 IR Inten    --     18.0014                 2.7646                13.0064

                     16                     17                     18
                      A                      A                      A
 Frequencies --   3144.1176              3257.9233              3363.5062
 Red. masses --      1.1091                 1.0497                 1.0878
 Frc consts  --      6.4595                 6.5645                 7.2508
 IR Inten    --     15.3753                11.2846                 5.6951

 - Thermochemistry -
 -------------------
 Temperature   298.150 Kelvin.  Pressure   1.00000 Atm.
 Atom     1 has atomic number  6 and mass  12.00000

 Molecular mass:    32.05002 amu.
 Principal axes and moments of inertia in atomic units:
                           1         2         3
     Eigenvalues --    19.50018 207.06337 209.15994
           X            0.99967   0.00000   0.02551
           Y           -0.00000   1.00000  -0.00000
           Z           -0.02551   0.00000   0.99967
 This molecule is an asymmetric top.
 Rotational symmetry number  1.
 Rotational temperatures (Kelvin)      4.44170     0.41830     0.41410
 Rotational constants (GHZ):          92.54997     8.71589     8.62852
    1 imaginary frequencies ignored.
 Zero-point vibrational energy     163740.7 (Joules/Mol)
                                   39.13496 (Kcal/Mol)
 Warning -- explicit consideration of   4 degrees of freedom as
           vibrations may cause significant error
 Vibrational temperatures:     56.36   541.19   571.24   801.13  1115.53
          (Kelvin)           1222.10  1630.05  1986.16  2031.75  2048.23
                             2171.32  2308.42  4332.88  4520.16  4523.68
                             4687.43  4839.34

 Zero-point correction=                           0.062366 (Hartree/Particle)
 Thermal correction to Energy=                    0.067090
 Thermal correction to Enthalpy=                  0.068034
 Thermal correction to Gibbs Free Energy=         0.035986
 Sum of electronic and zero-point Energies=            -96.310421
 Sum of electronic and thermal Energies=               -96.305697
 Sum of electronic and thermal Enthalpies=             -96.304753
 Sum of electronic and thermal Free Energies=          -96.336801

                     E (Thermal)             CV                S
                      KCal/Mol        Cal/Mol-Kelvin    Cal/Mol-Kelvin
 Total                   42.099             14.020             67.450
 Electronic               0.000              0.000              1.377
 Translational            0.889              2.981             36.326
 Rotational               0.889              2.981             21.362
 Vibrational             40.322              8.059              8.384
 Vibration     1          0.594              1.981              5.301
 Vibration     2          0.747              1.521              1.055
 Vibration     3          0.764              1.476              0.974
 Vibration     4          0.912              1.125              0.530

                           ! Non-Optimized Parameters !
 Normal termination of Gaussian 16 at Wed Oct  7 14:13:31 2020.
