 Gaussian 16, Revision A.03,

 ----------------------------------------------------------------------
 #P Opt(TS,MaxCyc=50,NoEigenTest,MaxStep=10,AddRedundant) BP86/6-31G* 5
 D 7F Integral=UltraFineGrid SCF=(NoSymm,XQC,MaxCyc=120) EmpiricalDispe
 rsion=GD3BJ IOp(1/33=1)
 ----------------------------------------------------------------------

 TstMul:  Mul=     1
 TstMul:  ICh=     0
 TstMul:  Mul=     1
 Symbolic Z-matrix:
 Charge =  0 Multiplicity = 1

 SCF Done:  E(RB-P86) =  -195.255283755     A.U. after   14 cycles
 SCF Done:  E(RB-P86) =  -195.256854281     A.U. after   12 cycles
 SCF Done:  E(RB-P86) =  -195.256814920     A.U. after    9 cycles
 SCF Done:  E(RB-P86) =  -195.256701428     A.U. after   11 cycles
 SCF Done:  E(RB-P86) =  -195.256643831     A.U. after    9 cycles
 SCF Done:  E(RB-P86) =  -195.256548961     A.U. after   11 cycles
 SCF Done:  E(RB-P86) =  -195.256374617     A.U. after   12 cycles
 SCF Done:  E(RB-P86) =  -195.256598677     A.U. after   13 cycles
 SCF Done:  E(RB-P86) =  -195.257024649     A.U. after   12 cycles
 SCF Done:  E(RB-P86) =  -195.257037221     A.U. after   13 cycles
 SCF Done:  E(RB-P86) =  -195.257140698     A.U. after   11 cycles
 SCF Done:  E(RB-P86) =  -195.257148450     A.U. after   11 cycles
 SCF Done:  E(RB-P86) =  -195.257149194     A.U. after    8 cycles
 SCF Done:  E(RB-P86) =  -195.257149653     A.U. after    8 cycles
 SCF Done:  E(RB-P86) =  -195.257149709     A.U. after    8 cycles
 SCF Done:  E(RB-P86) =  -195.257151593     A.U. after    9 cycles
 SCF Done:  E(RB-P86) =  -195.257149270     A.U. after    9 cycles
 Optimization completed.
    -- Stationary point found.
 Normal termination of Gaussian 16 at Wed Oct  7 14:17:28 2020.
 Gaussian 16:  ES64L-G16RevA.03 25-Dec-2016

 ----------------------------------------------------------------------
 #P Freq BP86/6-31G* 5D 7F Integral=UltraFineGrid SCF=(NoSymm,XQC,MaxCy
 c=120) EmpiricalDispersion=GD3BJ IOp(1/33=1) Geom=Check Guess=Read
 ----------------------------------------------------------------------

 TstMul:  Mul=     1
 TstMul:  ICh=     0
 TstMul:  Mul=     1
 Structure from the checkpoint file:  "MN_96_RKT22_BH76_BP86DBJ_631Gs.chk"
 Charge =  0 Multiplicity = 1

                         Standard orientation:
 ---------------------------------------------------------------------
 Center     Atomic      Atomic             Coordinates (Angstroms)
 Number     Number       Type             X           Y           Z
 ---------------------------------------------------------------------
      1          6           0       -1.317529   -0.911821   -0.022845
      2          6           0       -1.218540    0.510660   -0.012009
      3          6           0        0.000125    1.190932    0.152935
      4          6           0        1.218704    0.510541   -0.012270
      5          6           0        1.317363   -0.911951   -0.022534
      6          1           0        2.194294   -1.340213   -0.531922
      7          1           0        1.077295   -1.464369    0.897048
      8          1           0        2.057247    1.101689   -0.406829
      9          1           0        0.000139    2.285750    0.092989
     10          1           0       -2.057273    1.102123   -0.405696
     11          1           0       -2.194470   -1.339557   -0.532672
     12          1           0        0.000012   -1.210835   -0.509137
     13          1           0       -1.077986   -1.464751    0.896563
 ---------------------------------------------------------------------

 SCF Done:  E(RB-P86) =  -195.257149270     A.U. after    1 cycles

 The electronic state is 1-A.
 Alpha  occ. eigenvalues --   -9.91503  -9.91502  -9.90813  -9.90630  -9.90630
 Alpha  occ. eigenvalues --   -0.74372  -0.66487  -0.62078  -0.52739  -0.47228
 Alpha  occ. eigenvalues --   -0.44046  -0.37448  -0.36365  -0.36097  -0.34134
 Alpha  occ. eigenvalues --   -0.31751  -0.30612  -0.22781  -0.19297
 Alpha virt. eigenvalues --   -0.05301  -0.00290   0.06794   0.09743   0.11444
 Alpha virt. eigenvalues --    0.14238   0.15387   0.15560   0.18385   0.20033
 Alpha virt. eigenvalues --    0.24125   0.25544   0.31380   0.37394   0.47193

 Mulliken charges:
               1
     1  C   -0.502870
     2  C   -0.079276
     3  C   -0.134320
     4  C   -0.079256
     5  C   -0.502878
     6  H    0.152275
     7  H    0.189566
     8  H    0.146769
     9  H    0.132057
    10  H    0.146770
    11  H    0.152263
    12  H    0.189347
    13  H    0.189551
 Sum of Mulliken charges =  -0.00000

 Dipole moment (field-independent basis, Debye):
    X=             -0.0000    Y=              0.0078    Z=             -0.1382  Tot=              0.1384
 Quadrupole moment (field-independent basis, Debye-Ang):
   XX=            -30.1472   YY=            -29.8475   ZZ=            -33.5813
   XY=             -0.0009   XZ=             -0.0013   YZ=             -1.3923

  Exact polarizability:  75.783   0.003  64.513  -0.002  -0.704  30.299
 Approx polarizability: 158.972   0.023 133.308  -0.001   4.953  49.612

 ******    1 imaginary frequencies (negative Signs) ******

                      1                      2                      3
                      A                      A                      A
 Frequencies --  -1391.3196               265.3701               450.4786
 Red. masses --      1.1879                 2.1035                 2.3644
 Frc consts  --      1.3548                 0.0873                 0.2827
 IR Inten    --     14.6814                 0.1063                 0.5622

                      4                      5                      6
                      A                      A                      A
 Frequencies --    489.7137               546.3545               593.2065
 Red. masses --      2.3513                 3.5702                 1.3367
 Frc consts  --      0.3322                 0.6279                 0.2771
 IR Inten    --      3.6996                 3.4603                27.4625

                      7                      8                      9
                      A                      A                      A
 Frequencies --    721.5095               767.3646               785.8164
 Red. masses --      1.9193                 1.2464                 1.2922
 Frc consts  --      0.5887                 0.4324                 0.4701
 IR Inten    --      7.1602                 4.4748                45.3939

                     10                     11                     12
                      A                      A                      A
 Frequencies --    942.4753               944.9056               970.3654
 Red. masses --      1.2848                 1.3185                 1.4950
 Frc consts  --      0.6724                 0.6936                 0.8294
 IR Inten    --      5.1090                 0.9677                21.8201

                     13                     14                     15
                      A                      A                      A
 Frequencies --    987.0718               988.3955              1076.6480
 Red. masses --      2.3672                 1.3413                 1.3009
 Frc consts  --      1.3589                 0.7720                 0.8885
 IR Inten    --      0.7942                 0.4595                 2.8818

                     16                     17                     18
                      A                      A                      A
 Frequencies --   1107.2499              1160.2684              1230.3585
 Red. masses --      1.6149                 1.2052                 1.4852
 Frc consts  --      1.1665                 0.9559                 1.3246
 IR Inten    --      1.2702                 5.9750                 7.0500

                     19                     20                     21
                      A                      A                      A
 Frequencies --   1244.1820              1383.3002              1405.7859
 Red. masses --      1.2195                 1.1050                 1.3826
 Frc consts  --      1.1122                 1.2458                 1.6098
 IR Inten    --      9.9569                10.5222                 2.2065

                     22                     23                     24
                      A                      A                      A
 Frequencies --   1430.9311              1488.5012              1509.0799
 Red. masses --      1.0716                 1.4456                 1.5639
 Frc consts  --      1.2927                 1.8871                 2.0983
 IR Inten    --      5.0635                 0.0545                 0.8806

                     25                     26                     27
                      A                      A                      A
 Frequencies --   1520.6645              1560.3409              3026.0349
 Red. masses --      4.7225                 1.6739                 1.0565
 Frc consts  --      6.4342                 2.4011                 5.6999
 IR Inten    --      7.2846                 3.8738                28.7224

                     28                     29                     30
                      A                      A                      A
 Frequencies --   3027.7395              3065.3186              3068.8612
 Red. masses --      1.0568                 1.0874                 1.0919
 Frc consts  --      5.7077                 6.0202                 6.0587
 IR Inten    --     13.2335                 1.0500                 8.0453

                     31                     32                     33
                      A                      A                      A
 Frequencies --   3087.7505              3092.0067              3108.4583
 Red. masses --      1.1100                 1.1069                 1.0939
 Frc consts  --      6.2354                 6.2353                 6.2274
 IR Inten    --     32.3313                17.3375                28.6217

 - Thermochemistry -
 -------------------
 Temperature   298.150 Kelvin.  Pressure   1.00000 Atm.
 Atom     1 has atomic number  6 and mass  12.00000

 Molecular mass:    68.06260 amu.
 Principal axes and moments of inertia in atomic units:
                           1         2         3
     Eigenvalues --   226.31891 360.44721 564.90439
           X            1.00000  -0.00001  -0.00001
           Y            0.00001   0.99977  -0.02166
           Z            0.00001   0.02166   0.99977
 This molecule is an asymmetric top.
 Rotational symmetry number  1.
 Rotational temperatures (Kelvin)      0.38271     0.24030     0.15332
 Rotational constants (GHZ):           7.97433     5.00695     3.19477
    1 imaginary frequencies ignored.
 Zero-point vibrational energy     281400.6 (Joules/Mol)
                                   67.25636 (Kcal/Mol)
 Warning -- explicit consideration of   5 degrees of freedom as
           vibrations may cause significant error
 Vibrational temperatures:    381.81   648.14   704.59   786.08   853.49
          (Kelvin)           1038.09  1104.07  1130.61  1356.01  1359.51
                             1396.14  1420.18  1422.08  1549.06  1593.09
                             1669.37  1770.21  1790.10  1990.26  2022.61
                             2058.79  2141.62  2171.23  2187.90  2244.98
                             4353.79  4356.24  4410.31  4415.41  4442.58
                             4448.71  4472.38

 Zero-point correction=                           0.107180 (Hartree/Particle)
 Thermal correction to Energy=                    0.111954
 Thermal correction to Enthalpy=                  0.112898
 Thermal correction to Gibbs Free Energy=         0.079809
 Sum of electronic and zero-point Energies=           -195.149969
 Sum of electronic and thermal Energies=              -195.145195
 Sum of electronic and thermal Enthalpies=            -195.144251
 Sum of electronic and thermal Free Energies=         -195.177341

                     E (Thermal)             CV                S
                      KCal/Mol        Cal/Mol-Kelvin    Cal/Mol-Kelvin
 Total                   70.252             18.535             69.643
 Electronic               0.000              0.000              0.000
 Translational            0.889              2.981             38.571
 Rotational               0.889              2.981             25.336
 Vibrational             68.475             12.574              5.736
 Vibration     1          0.671              1.737              1.626
 Vibration     2          0.809              1.360              0.794
 Vibration     3          0.846              1.273              0.684
 Vibration     4          0.902              1.148              0.552
 Vibration     5          0.951              1.046              0.461

 Optimization completed.
    -- Stationary point found.
 Normal termination of Gaussian 16 at Wed Oct  7 14:18:35 2020.
