 Gaussian 16, Revision A.03,

 ----------------------------------------------------------------------
 #P Opt(TS,MaxCyc=50,NoEigenTest,MaxStep=10,AddRedundant) BP86/6-31G* 5
 D 7F Integral=UltraFineGrid SCF=(NoSymm,XQC,MaxCyc=120) EmpiricalDispe
 rsion=GD3BJ IOp(1/33=1)
 ----------------------------------------------------------------------

 TstMul:  Mul=     3
 TstMul:  ICh=     0
 TstMul:  Mul=     3
 Symbolic Z-matrix:
 Charge =  0 Multiplicity = 3

 SCF Done:  E(UB-P86) =  -95.7034189309     A.U. after   13 cycles
 SCF Done:  E(UB-P86) =  -95.7037255190     A.U. after   12 cycles
 SCF Done:  E(UB-P86) =  -95.7044274693     A.U. after   12 cycles
 SCF Done:  E(UB-P86) =  -95.7038888715     A.U. after   13 cycles
 SCF Done:  E(UB-P86) =  -95.7039901899     A.U. after   12 cycles
 SCF Done:  E(UB-P86) =  -95.7039053762     A.U. after   14 cycles
 SCF Done:  E(UB-P86) =  -95.7040343133     A.U. after   12 cycles
 SCF Done:  E(UB-P86) =  -95.7037360552     A.U. after   13 cycles
 SCF Done:  E(UB-P86) =  -95.7037841037     A.U. after   14 cycles
 SCF Done:  E(UB-P86) =  -95.7036249646     A.U. after   12 cycles
 SCF Done:  E(UB-P86) =  -95.7035091608     A.U. after   12 cycles
 SCF Done:  E(UB-P86) =  -95.7035354760     A.U. after   13 cycles
 SCF Done:  E(UB-P86) =  -95.7035409394     A.U. after   11 cycles
 SCF Done:  E(UB-P86) =  -95.7035414034     A.U. after    8 cycles
 SCF Done:  E(UB-P86) =  -95.7035414591     A.U. after    9 cycles
 SCF Done:  E(UB-P86) =  -95.7035415911     A.U. after    9 cycles
 SCF Done:  E(UB-P86) =  -95.7035415873     A.U. after    9 cycles
 SCF Done:  E(UB-P86) =  -95.7035416231     A.U. after    8 cycles
 SCF Done:  E(UB-P86) =  -95.7035416420     A.U. after    8 cycles
 Optimization completed.
    -- Stationary point found.

 1\1\GINC-NODE61\FTS\UBP86\6-31G(d)\C1H5N1(3)\RPEVERATI\07-Oct-2020\0\\
 #P Opt(TS,MaxCyc=50,NoEigenTest,MaxStep=10,AddRedundant) BP86/6-31G* 5
 D 7F Integral=UltraFineGrid SCF=(NoSymm,XQC,MaxCyc=120) EmpiricalDispe
 rsion=GD3BJ IOp(1/33=1)\\TS search on BH76.\\0,3\C,-1.250939971,-0.013
 3148389,0.0030198034\N,1.4327375908,0.1187614518,-0.0230576308\H,-1.42
 8316922,-0.5257255902,0.9557834012\H,-1.4427764447,-0.6056964398,-0.89
 9234447\H,-1.5687836014,1.0350145756,-0.0396879624\H,0.2834242393,0.18
 82417614,-0.0173835338\H,1.5682529644,-0.9208265606,0.0206216075\\Vers

 Normal termination of Gaussian 16 at Wed Oct  7 14:14:43 2020.
 Gaussian 16:  ES64L-G16RevA.03 25-Dec-2016

 ----------------------------------------------------------------------
 #P Freq BP86/6-31G* 5D 7F Integral=UltraFineGrid SCF=(NoSymm,XQC,MaxCy
 c=120) EmpiricalDispersion=GD3BJ IOp(1/33=1) Geom=Check Guess=Read
 ----------------------------------------------------------------------

 TstMul:  Mul=     3
 TstMul:  ICh=     0
 TstMul:  Mul=     3
 Structure from the checkpoint file:  "MN_92_RKT18_BH76_BP86DBJ_631Gs.chk"
 Charge =  0 Multiplicity = 3

                         Standard orientation:
 ---------------------------------------------------------------------
 Center     Atomic      Atomic             Coordinates (Angstroms)
 Number     Number       Type             X           Y           Z
 ---------------------------------------------------------------------
      1          6           0       -1.247350   -0.013094    0.000000
      2          7           0        1.436002    0.127881   -0.000011
      3          1           0       -1.430151   -0.566492    0.928504
      4          1           0       -1.430517   -0.566720   -0.928293
      5          1           0       -1.568289    1.035162   -0.000057
      6          1           0        0.286457    0.193669   -0.000082
      7          1           0        1.574584   -0.912221    0.000008
 ---------------------------------------------------------------------

 SCF Done:  E(UB-P86) =  -95.7035416420     A.U. after    1 cycles

 The electronic state is 3-A.
 Alpha  occ. eigenvalues --  -14.04863  -9.92121  -0.76356  -0.62720  -0.41149
 Alpha  occ. eigenvalues --   -0.37399  -0.37278  -0.29742  -0.25898  -0.19040
 Alpha virt. eigenvalues --    0.06663   0.09588   0.13670   0.13825   0.22417
 Alpha virt. eigenvalues --    0.46820   0.46888   0.50225   0.63300   0.64731
 Alpha virt. eigenvalues --    0.66424   0.76794   0.83431   0.83458   0.83642

  Beta  occ. eigenvalues --  -14.02438  -9.91097  -0.70618  -0.60254  -0.38852
  Beta  occ. eigenvalues --   -0.36618  -0.36445  -0.25891
  Beta virt. eigenvalues --   -0.13827  -0.12128   0.07813   0.10747   0.14359
  Beta virt. eigenvalues --    0.14516   0.25054   0.47982   0.48650   0.55303
  Beta virt. eigenvalues --    0.67448   0.68294   0.71893   0.78393   0.84137

 Mulliken charges and spin densities:
               1          2
     1  C   -0.639823   0.770032
     2  N   -0.527303   1.404536
     3  H    0.187063  -0.025147
     4  H    0.187060  -0.025148
     5  H    0.194679  -0.023637
     6  H    0.313227  -0.059575
     7  H    0.285098  -0.041062
 Sum of Mulliken charges =  -0.00000   2.00000

 Dipole moment (field-independent basis, Debye):
    X=             -1.2316    Y=             -1.3720    Z=              0.0000  Tot=              1.8437
 Quadrupole moment (field-independent basis, Debye-Ang):
   XX=            -16.9250   YY=            -13.7461   ZZ=            -14.1727
   XY=             -2.7480   XZ=              0.0002   YZ=              0.0000

  Exact polarizability:  40.667  -0.741  21.064   0.001  -0.000  16.424
 Approx polarizability:  69.012   1.379  30.192   0.002  -0.000  22.383

 ******    1 imaginary frequencies (negative Signs) ******

                      1                      2                      3
                      A                      A                      A
 Frequencies --   -491.2129                63.6350               340.7519
 Red. masses --      2.2813                 1.0480                 1.0454
 Frc consts  --      0.3243                 0.0025                 0.0715
 IR Inten    --     82.7805                54.6140                12.4699

                      4                      5                      6
                      A                      A                      A
 Frequencies --    387.7154               638.8202               803.8439
 Red. masses --      1.0776                 1.1517                 1.2268
 Frc consts  --      0.0954                 0.2769                 0.4670
 IR Inten    --      5.4304                30.4186                 4.5465

                      7                      8                      9
                      A                      A                      A
 Frequencies --   1017.7691              1280.0234              1402.3397
 Red. masses --      1.0546                 1.2950                 1.0878
 Frc consts  --      0.6437                 1.2501                 1.2604
 IR Inten    --     55.5312                 0.7728                 4.5769

                     10                     11                     12
                      A                      A                      A
 Frequencies --   1403.0693              1589.2400              3030.5048
 Red. masses --      1.0863                 1.0686                 1.0152
 Frc consts  --      1.2600                 1.5902                 5.4935
 IR Inten    --      4.6139               183.9252                 0.0664

                     13                     14                     15
                      A                      A                      A
 Frequencies --   3179.9945              3181.0199              3214.9910
 Red. masses --      1.1128                 1.1127                 1.0719
 Frc consts  --      6.6300                 6.6338                 6.5280
 IR Inten    --     10.8562                 6.7046                23.7915

 - Thermochemistry -
 -------------------
 Temperature   298.150 Kelvin.  Pressure   1.00000 Atm.
 Atom     1 has atomic number  6 and mass  12.00000

 Molecular mass:    31.04220 amu.
 Principal axes and moments of inertia in atomic units:
                           1         2         3
     Eigenvalues --    16.13755 208.15564 211.88490
           X            0.99970  -0.02431   0.00000
           Y            0.02431   0.99970   0.00001
           Z           -0.00000  -0.00001   1.00000
 This molecule is an asymmetric top.
 Rotational symmetry number  1.
 Rotational temperatures (Kelvin)      5.36723     0.41610     0.40878
 Rotational constants (GHZ):         111.83490     8.67015     8.51755
    1 imaginary frequencies ignored.
 Zero-point vibrational energy     128800.2 (Joules/Mol)
                                   30.78400 (Kcal/Mol)
 Warning -- explicit consideration of   3 degrees of freedom as
           vibrations may cause significant error
 Vibrational temperatures:     91.56   490.27   557.84   919.12  1156.55
          (Kelvin)           1464.34  1841.67  2017.65  2018.70  2286.56
                             4360.22  4575.30  4576.78  4625.65

 Zero-point correction=                           0.049057 (Hartree/Particle)
 Thermal correction to Energy=                    0.053671
 Thermal correction to Enthalpy=                  0.054616
 Thermal correction to Gibbs Free Energy=         0.022821
 Sum of electronic and zero-point Energies=            -95.654484
 Sum of electronic and thermal Energies=               -95.649870
 Sum of electronic and thermal Enthalpies=             -95.648926
 Sum of electronic and thermal Free Energies=          -95.680720

                     E (Thermal)             CV                S
                      KCal/Mol        Cal/Mol-Kelvin    Cal/Mol-Kelvin
 Total                   33.679             13.400             66.917
 Electronic               0.000              0.000              2.183
 Translational            0.889              2.981             36.231
 Rotational               0.889              2.981             21.192
 Vibrational             31.902              7.438              7.311
 Vibration     1          0.597              1.972              4.341
 Vibration     2          0.720              1.594              1.209
 Vibration     3          0.756              1.496              1.009

 Optimization completed.
    -- Stationary point found.
 Normal termination of Gaussian 16 at Wed Oct  7 14:15:16 2020.
