 Gaussian 16, Revision A.03,
 Gaussian 16:  ES64L-G16RevA.03 25-Dec-2016

 ----------------------------------------------------------------------
 #P Opt(MaxCyc=100) BLYP/6-31G* 5D 7F Integral=UltraFineGrid SCF=(NoSym
 m,XQC,MaxCyc=120) EmpiricalDispersion=GD3BJ IOp(1/33=1)
 ----------------------------------------------------------------------

 TstMul:  Mul=     1
 TstMul:  ICh=     0
 TstMul:  Mul=     1
 Symbolic Z-matrix:
 Charge =  0 Multiplicity = 1

 SCF Done:  E(RB-LYP) =  -195.206506482     A.U. after   14 cycles
 SCF Done:  E(RB-LYP) =  -195.208047612     A.U. after   13 cycles
 SCF Done:  E(RB-LYP) =  -195.208070339     A.U. after   11 cycles
 SCF Done:  E(RB-LYP) =  -195.208072012     A.U. after    8 cycles
 Optimization completed.
    -- Stationary point found.

                         Standard orientation:
 ---------------------------------------------------------------------
 Center     Atomic      Atomic             Coordinates (Angstroms)
 Number     Number       Type             X           Y           Z
 ---------------------------------------------------------------------
      1          6           0       -2.077959   -0.613123    0.000001
      2          6           0       -1.242770    0.643624    0.000050
      3          6           0        0.111786    0.735237    0.000034
      4          6           0        1.065509   -0.369639   -0.000035
      5          6           0        2.408568   -0.204234   -0.000044
      6          1           0       -2.740244   -0.644187    0.885459
      7          1           0       -2.740276   -0.644096   -0.885436
      8          1           0       -1.472837   -1.531851   -0.000057
      9          1           0       -1.812761    1.580985    0.000105
     10          1           0        0.557962    1.737968    0.000076
     11          1           0        0.661449   -1.388141   -0.000081
     12          1           0        3.094700   -1.054759   -0.000096
     13          1           0        2.861202    0.792892   -0.000000
 ---------------------------------------------------------------------

 The electronic state is 1-A.
 Alpha  occ. eigenvalues --   -9.91894  -9.91757  -9.91371  -9.91318  -9.90779
 Alpha  occ. eigenvalues --   -0.71478  -0.66569  -0.60140  -0.51898  -0.46326
 Alpha  occ. eigenvalues --   -0.41302  -0.38466  -0.35630  -0.34543  -0.32538
 Alpha  occ. eigenvalues --   -0.31412  -0.28123  -0.26181  -0.18040
 Alpha virt. eigenvalues --   -0.03965   0.05925   0.07969   0.08606   0.10899
 Alpha virt. eigenvalues --    0.13582   0.14618   0.14803   0.16603   0.20153
 Alpha virt. eigenvalues --    0.22295   0.30252   0.34812   0.40181   0.44367

 Mulliken charges:
               1
     1  C   -0.445641
     2  C   -0.082256
     3  C   -0.084509
     4  C   -0.023421
     5  C   -0.319118
     6  H    0.143494
     7  H    0.143494
     8  H    0.142010
     9  H    0.100839
    10  H    0.091309
    11  H    0.096305
    12  H    0.119213
    13  H    0.118280
 Sum of Mulliken charges =  -0.00000

 Dipole moment (field-independent basis, Debye):
    X=             -0.5357    Y=             -0.1434    Z=              0.0000  Tot=              0.5546
 Quadrupole moment (field-independent basis, Debye-Ang):
   XX=            -29.2110   YY=            -29.7031   ZZ=            -34.0924
   XY=              0.0794   XZ=             -0.0001   YZ=              0.0002

 Normal termination of Gaussian 16 at Wed Oct  7 12:23:55 2020.
