 Gaussian 16, Revision A.03,
 Gaussian 16:  ES64L-G16RevA.03 25-Dec-2016

 ----------------------------------------------------------------------
 #P Opt(MaxCyc=100) BLYP/6-31G* 5D 7F Integral=UltraFineGrid SCF=(NoSym
 m,XQC,MaxCyc=120) EmpiricalDispersion=GD3BJ IOp(1/33=1)
 ----------------------------------------------------------------------

 TstMul:  Mul=     2
 TstMul:  ICh=     0
 TstMul:  Mul=     2
 Symbolic Z-matrix:
 Charge =  0 Multiplicity = 2

 SCF Done:  E(UB-LYP) =  -79.1008281051     A.U. after   13 cycles
 SCF Done:  E(UB-LYP) =  -79.1014918217     A.U. after   11 cycles
 SCF Done:  E(UB-LYP) =  -79.1014972974     A.U. after    9 cycles
 Optimization completed.
    -- Stationary point found.

                         Standard orientation:
 ---------------------------------------------------------------------
 Center     Atomic      Atomic             Coordinates (Angstroms)
 Number     Number       Type             X           Y           Z
 ---------------------------------------------------------------------
      1          6           0        0.799299   -0.000006   -0.022194
      2          6           0       -0.697340    0.000199   -0.001383
      3          1           0       -1.115327    0.900273   -0.486154
      4          1           0        1.361130   -0.934281    0.049627
      5          1           0       -1.103799   -0.012554    1.035452
      6          1           0       -1.115821   -0.888232   -0.507248
      7          1           0        1.362065    0.933634    0.049787
 ---------------------------------------------------------------------

 The electronic state is 2-A.
 Alpha  occ. eigenvalues --   -9.91543  -9.91121  -0.66518  -0.53114  -0.38741
 Alpha  occ. eigenvalues --   -0.35225  -0.33220  -0.30291  -0.14685
 Alpha virt. eigenvalues --    0.09078   0.11242   0.12093   0.14869   0.19193
 Alpha virt. eigenvalues --    0.22961   0.48166   0.50526   0.51232   0.56915
 Alpha virt. eigenvalues --    0.58044   0.70250   0.74251   0.80780   0.81989

  Beta  occ. eigenvalues --   -9.91191  -9.90311  -0.65215  -0.51252  -0.38197
  Beta  occ. eigenvalues --   -0.34199  -0.32507  -0.29917
  Beta virt. eigenvalues --   -0.06474   0.09450   0.12281   0.12528   0.15494
  Beta virt. eigenvalues --    0.19609   0.23814   0.48661   0.50729   0.55730
  Beta virt. eigenvalues --    0.58300   0.60687   0.70887   0.75878   0.81489

 Mulliken charges and spin densities:
               1          2
     1  C   -0.263085   1.065785
     2  C   -0.404179  -0.070093
     3  H    0.138511   0.014812
     4  H    0.124466  -0.046521
     5  H    0.141021   0.066553
     6  H    0.138654   0.016024
     7  H    0.124612  -0.046559
 Sum of Mulliken charges =   0.00000   1.00000

 Dipole moment (field-independent basis, Debye):
    X=             -0.2415    Y=             -0.0005    Z=              0.1301  Tot=              0.2743
 Quadrupole moment (field-independent basis, Debye-Ang):
   XX=            -14.0198   YY=            -13.4884   ZZ=            -14.9402
   XY=              0.0014   XZ=              0.1503   YZ=              0.0002

 Normal termination of Gaussian 16 at Wed Oct  7 12:22:47 2020.
