 Gaussian 16, Revision A.03,
 Gaussian 16:  ES64L-G16RevA.03 25-Dec-2016

 ----------------------------------------------------------------------
 #P Opt(MaxCyc=100) BLYP/6-31G* 5D 7F Integral=UltraFineGrid SCF=(NoSym
 m,XQC,MaxCyc=120) EmpiricalDispersion=GD3BJ IOp(1/33=1)
 ----------------------------------------------------------------------

 TstMul:  Mul=     2
 TstMul:  ICh=     0
 TstMul:  Mul=     2
 Symbolic Z-matrix:
 Charge =  0 Multiplicity = 2

 SCF Done:  E(UB-LYP) =  -79.1008066055     A.U. after   13 cycles
 SCF Done:  E(UB-LYP) =  -79.1014898366     A.U. after   11 cycles
 SCF Done:  E(UB-LYP) =  -79.1014971936     A.U. after    9 cycles
 Optimization completed.
    -- Stationary point found.

                         Standard orientation:
 ---------------------------------------------------------------------
 Center     Atomic      Atomic             Coordinates (Angstroms)
 Number     Number       Type             X           Y           Z
 ---------------------------------------------------------------------
      1          6           0       -0.011079   -0.697338    0.000000
      2          6           0       -0.011079    0.799615   -0.000000
      3          1           0        1.020133   -1.118001    0.000000
      4          1           0       -0.512241   -1.108513    0.894354
      5          1           0       -0.512241   -1.108513   -0.894354
      6          1           0        0.068646    1.360681   -0.934071
      7          1           0        0.068646    1.360681    0.934071
 ---------------------------------------------------------------------

 The electronic state is 2-A'.
 Alpha  occ. eigenvalues --   -9.91544  -9.91122  -0.66515  -0.53113  -0.38742
 Alpha  occ. eigenvalues --   -0.35226  -0.33214  -0.30293  -0.14685
 Alpha virt. eigenvalues --    0.09076   0.11242   0.12094   0.14870   0.19192
 Alpha virt. eigenvalues --    0.22953   0.48169   0.50528   0.51232   0.56908
 Alpha virt. eigenvalues --    0.58043   0.70248   0.74244   0.80783   0.81991

  Beta  occ. eigenvalues --   -9.91191  -9.90312  -0.65212  -0.51251  -0.38198
  Beta  occ. eigenvalues --   -0.34200  -0.32500  -0.29919
  Beta virt. eigenvalues --   -0.06473   0.09449   0.12286   0.12524   0.15495
  Beta virt. eigenvalues --    0.19608   0.23806   0.48664   0.50730   0.55730
  Beta virt. eigenvalues --    0.58292   0.60687   0.70885   0.75871   0.81492

 Mulliken charges and spin densities:
               1          2
     1  C   -0.404172  -0.070076
     2  C   -0.263099   1.065848
     3  H    0.141028   0.066509
     4  H    0.138578   0.015402
     5  H    0.138578   0.015402
     6  H    0.124544  -0.046542
     7  H    0.124544  -0.046542
 Sum of Mulliken charges =  -0.00000   1.00000

 Dipole moment (field-independent basis, Debye):
    X=              0.1268    Y=             -0.2432    Z=             -0.0000  Tot=              0.2743
 Quadrupole moment (field-independent basis, Debye-Ang):
   XX=            -14.9357   YY=            -14.0253   ZZ=            -13.4877
   XY=              0.1630   XZ=              0.0000   YZ=              0.0000

 Normal termination of Gaussian 16 at Wed Oct  7 12:22:44 2020.
