 Gaussian 16, Revision A.03,

 ----------------------------------------------------------------------
 #P Opt(TS,MaxCyc=50,NoEigenTest,MaxStep=10,AddRedundant) BLYP/6-31G* 5
 D 7F Integral=UltraFineGrid SCF=(NoSymm,XQC,MaxCyc=120) EmpiricalDispe
 rsion=GD3BJ IOp(1/33=1)
 ----------------------------------------------------------------------

 TstMul:  Mul=     2
 TstMul:  ICh=     0
 TstMul:  Mul=     2
 Symbolic Z-matrix:
 Charge =  0 Multiplicity = 2

 SCF Done:  E(UB-LYP) =  -118.346010579     A.U. after   15 cycles
 SCF Done:  E(UB-LYP) =  -118.347870192     A.U. after   14 cycles
 SCF Done:  E(UB-LYP) =  -118.346869203     A.U. after   13 cycles
 SCF Done:  E(UB-LYP) =  -118.346151731     A.U. after   14 cycles
 SCF Done:  E(UB-LYP) =  -118.345720908     A.U. after   14 cycles
 SCF Done:  E(UB-LYP) =  -118.345521706     A.U. after   14 cycles
 SCF Done:  E(UB-LYP) =  -118.345493980     A.U. after   13 cycles
 SCF Done:  E(UB-LYP) =  -118.345495019     A.U. after   10 cycles
 SCF Done:  E(UB-LYP) =  -118.345495976     A.U. after   10 cycles
 SCF Done:  E(UB-LYP) =  -118.345505993     A.U. after   12 cycles
 SCF Done:  E(UB-LYP) =  -118.345517884     A.U. after   12 cycles
 SCF Done:  E(UB-LYP) =  -118.345524311     A.U. after   11 cycles
 SCF Done:  E(UB-LYP) =  -118.345528075     A.U. after   11 cycles
 SCF Done:  E(UB-LYP) =  -118.345529372     A.U. after    9 cycles
 SCF Done:  E(UB-LYP) =  -118.345529943     A.U. after    9 cycles
 SCF Done:  E(UB-LYP) =  -118.345530142     A.U. after    8 cycles
 SCF Done:  E(UB-LYP) =  -118.345530244     A.U. after    8 cycles
 Optimization completed.
    -- Stationary point found.
 Normal termination of Gaussian 16 at Wed Oct  7 12:30:43 2020.
 Gaussian 16:  ES64L-G16RevA.03 25-Dec-2016

 ----------------------------------------------------------------------
 #P Freq BLYP/6-31G* 5D 7F Integral=UltraFineGrid SCF=(NoSymm,XQC,MaxCy
 c=120) EmpiricalDispersion=GD3BJ IOp(1/33=1) Geom=Check Guess=Read
 ----------------------------------------------------------------------

 TstMul:  Mul=     2
 TstMul:  ICh=     0
 TstMul:  Mul=     2
 Structure from the checkpoint file:  "MN_17_c3h7ts_BH76_BLYPDBJ_631Gs.chk"
 Charge =  0 Multiplicity = 2

                         Standard orientation:
 ---------------------------------------------------------------------
 Center     Atomic      Atomic             Coordinates (Angstroms)
 Number     Number       Type             X           Y           Z
 ---------------------------------------------------------------------
      1          6           0       -0.552225    0.652127    0.000054
      2          6           0       -1.436410   -0.381720   -0.000038
      3          1           0       -0.280177    1.164275   -0.926301
      4          1           0       -0.279811    1.163804    0.926561
      5          1           0       -1.784967   -0.840214    0.930050
      6          1           0       -1.785323   -0.839693   -0.930250
      7          6           0        1.735319   -0.232811   -0.000051
      8          1           0        2.276328    0.715383   -0.018839
      9          1           0        1.681425   -0.809922   -0.923481
     10          1           0        1.692425   -0.779214    0.942473
 ---------------------------------------------------------------------

 SCF Done:  E(UB-LYP) =  -118.345530244     A.U. after    1 cycles

 The electronic state is 2-A.
 Alpha  occ. eigenvalues --   -9.91619  -9.91218  -9.90917  -0.66654  -0.59201
 Alpha  occ. eigenvalues --   -0.50682  -0.40137  -0.35859  -0.34841  -0.34511
 Alpha  occ. eigenvalues --   -0.29997  -0.23873  -0.14178
 Alpha virt. eigenvalues --    0.00630   0.07850   0.11267   0.11666   0.13916
 Alpha virt. eigenvalues --    0.15780   0.15810   0.21571   0.30100   0.43251
 Alpha virt. eigenvalues --    0.49958   0.50195   0.52084   0.56435   0.56528

  Beta  occ. eigenvalues --   -9.91759  -9.90506  -9.90105  -0.66222  -0.56752
  Beta  occ. eigenvalues --   -0.50319  -0.39989  -0.35482  -0.34111  -0.33934
  Beta  occ. eigenvalues --   -0.29882  -0.22249
  Beta virt. eigenvalues --   -0.07727   0.02142   0.08440   0.11720   0.11898
  Beta virt. eigenvalues --    0.14197   0.16350   0.16386   0.21659   0.30305
  Beta virt. eigenvalues --    0.43748   0.50382   0.51653   0.54212   0.56935

 Mulliken charges and spin densities:
               1          2
     1  C   -0.219047  -0.134756
     2  C   -0.255076   0.342981
     3  H    0.128382   0.008014
     4  H    0.128401   0.008011
     5  H    0.118604  -0.015708
     6  H    0.118595  -0.015709
     7  C   -0.443581   0.907583
     8  H    0.137316  -0.031965
     9  H    0.143289  -0.034222
    10  H    0.143118  -0.034229
 Sum of Mulliken charges =  -0.00000   1.00000

 Dipole moment (field-independent basis, Debye):
    X=              0.1368    Y=              0.0764    Z=              0.0003  Tot=              0.1567
 Quadrupole moment (field-independent basis, Debye-Ang):
   XX=            -22.0410   YY=            -20.4167   ZZ=            -19.3850
   XY=              1.3534   XZ=              0.0004   YZ=             -0.0001

  Exact polarizability:  54.153   7.124  32.417  -0.001  -0.004  31.570
 Approx polarizability: 101.467  19.142  53.659   0.001  -0.004  46.882

 ******    1 imaginary frequencies (negative Signs) ******

                      1                      2                      3
                      A                      A                      A
 Frequencies --   -268.8967                81.2574               195.8797
 Red. masses --      8.9867                 1.0903                 2.4770
 Frc consts  --      0.3828                 0.0042                 0.0560
 IR Inten    --      0.8693                 0.0079                 0.9375

                      4                      5                      6
                      A                      A                      A
 Frequencies --    316.2754               422.3590               442.3615
 Red. masses --      1.0603                 1.1072                 1.0864
 Frc consts  --      0.0625                 0.1164                 0.1253
 IR Inten    --      0.1969                 1.8354                 0.8828

                      7                      8                      9
                      A                      A                      A
 Frequencies --    704.0085               809.1871               837.5638
 Red. masses --      1.0790                 1.0430                 1.4372
 Frc consts  --      0.3151                 0.4024                 0.5940
 IR Inten    --      6.6809                 0.6406                26.6321

                     10                     11                     12
                      A                      A                      A
 Frequencies --    907.5537              1001.1495              1216.6932
 Red. masses --      1.1441                 1.0164                 1.5017
 Frc consts  --      0.5552                 0.6002                 1.3098
 IR Inten    --     42.8179                 0.0656                 0.0331

                     13                     14                     15
                      A                      A                      A
 Frequencies --   1309.2853              1406.2126              1411.7961
 Red. masses --      1.5395                 1.0970                 1.0963
 Frc consts  --      1.5549                 1.2781                 1.2874
 IR Inten    --      0.7489                 1.5605                 1.2580

                     16                     17                     18
                      A                      A                      A
 Frequencies --   1455.7030              1586.5755              3057.0644
 Red. masses --      1.1130                 2.0456                 1.0113
 Frc consts  --      1.3896                 3.0338                 5.5685
 IR Inten    --      3.2233                 0.1784                 0.0396

                     19                     20                     21
                      A                      A                      A
 Frequencies --   3078.8253              3089.7854              3146.3506
 Red. masses --      1.0497                 1.0631                 1.1145
 Frc consts  --      5.8626                 5.9795                 6.5005
 IR Inten    --     16.4389                 2.0919                 1.4134

                     22                     23                     24
                      A                      A                      A
 Frequencies --   3173.8746              3210.2968              3221.1285
 Red. masses --      1.1178                 1.1160                 1.1163
 Frc consts  --      6.6345                 6.7764                 6.8239
 IR Inten    --     30.5544                12.2327                12.8637

 - Thermochemistry -
 -------------------
 Temperature   298.150 Kelvin.  Pressure   1.00000 Atm.
 Atom     1 has atomic number  6 and mass  12.00000

 Molecular mass:    43.05478 amu.
 Principal axes and moments of inertia in atomic units:
                           1         2         3
     Eigenvalues --    66.59414 311.73321 340.98163
           X            0.99983   0.01860   0.00000
           Y           -0.01860   0.99983  -0.00004
           Z           -0.00001   0.00004   1.00000
 This molecule is an asymmetric top.
 Rotational symmetry number  1.
 Rotational temperatures (Kelvin)      1.30062     0.27785     0.25401
 Rotational constants (GHZ):          27.10060     5.78938     5.29278
    1 imaginary frequencies ignored.
 Zero-point vibrational energy     215813.4 (Joules/Mol)
                                   51.58065 (Kcal/Mol)
 Warning -- explicit consideration of   5 degrees of freedom as
           vibrations may cause significant error
 Vibrational temperatures:    116.91   281.83   455.05   607.68   636.46
          (Kelvin)           1012.91  1164.24  1205.07  1305.77  1440.43
                             1750.55  1883.77  2023.23  2031.26  2094.43
                             2282.73  4398.43  4429.74  4445.51  4526.90
                             4566.50  4618.90  4634.49

 Zero-point correction=                           0.082199 (Hartree/Particle)
 Thermal correction to Energy=                    0.087723
 Thermal correction to Enthalpy=                  0.088667
 Thermal correction to Gibbs Free Energy=         0.054385
 Sum of electronic and zero-point Energies=           -118.263331
 Sum of electronic and thermal Energies=              -118.257807
 Sum of electronic and thermal Enthalpies=            -118.256863
 Sum of electronic and thermal Free Energies=         -118.291145

                     E (Thermal)             CV                S
                      KCal/Mol        Cal/Mol-Kelvin    Cal/Mol-Kelvin
 Total                   55.047             17.811             72.153
 Electronic               0.000              0.000              1.377
 Translational            0.889              2.981             37.206
 Rotational               0.889              2.981             23.475
 Vibrational             53.270             11.850             10.095
 Vibration     1          0.600              1.962              3.860
 Vibration     2          0.636              1.846              2.171
 Vibration     3          0.703              1.643              1.329
 Vibration     4          0.785              1.422              0.884
 Vibration     5          0.802              1.378              0.819

                           ! Non-Optimized Parameters !
 Normal termination of Gaussian 16 at Wed Oct  7 12:31:54 2020.
