 Gaussian 16, Revision A.03,
 Gaussian 16:  ES64L-G16RevA.03 25-Dec-2016

 ----------------------------------------------------------------------
 #P Opt(MaxCyc=100) BLYP/6-31G* 5D 7F Integral=UltraFineGrid SCF=(NoSym
 m,XQC,MaxCyc=120) EmpiricalDispersion=GD3BJ IOp(1/33=1)
 ----------------------------------------------------------------------

 TstMul:  Mul=     1
 TstMul:  ICh=     0
 TstMul:  Mul=     1
 Symbolic Z-matrix:
 Charge =  0 Multiplicity = 1

 SCF Done:  E(RB-LYP) =  -500.056806954     A.U. after   11 cycles
 SCF Done:  E(RB-LYP) =  -500.057723905     A.U. after   10 cycles
 SCF Done:  E(RB-LYP) =  -500.057766089     A.U. after    8 cycles
 SCF Done:  E(RB-LYP) =  -500.057777246     A.U. after    8 cycles
 Optimization completed.
    -- Stationary point found.

                         Standard orientation:
 ---------------------------------------------------------------------
 Center     Atomic      Atomic             Coordinates (Angstroms)
 Number     Number       Type             X           Y           Z
 ---------------------------------------------------------------------
      1          6           0        0.000000    0.000000   -1.153196
      2         17           0        0.000000    0.000000    0.671408
      3          1           0        0.000000    1.041851   -1.498255
      4          1           0        0.902269   -0.520925   -1.498255
      5          1           0       -0.902269   -0.520925   -1.498255
 ---------------------------------------------------------------------

 The electronic state is 1-A1.
 Alpha  occ. eigenvalues -- -100.71479  -9.97378  -9.15901  -6.99312  -6.98105
 Alpha  occ. eigenvalues --   -6.98105  -0.75873  -0.60551  -0.39392  -0.39392
 Alpha  occ. eigenvalues --   -0.36136  -0.24665  -0.24665
 Alpha virt. eigenvalues --   -0.00838   0.07987   0.11594   0.11594   0.37493
 Alpha virt. eigenvalues --    0.41837   0.42736   0.42736   0.49229   0.49229
 Alpha virt. eigenvalues --    0.51284   0.78328   0.78328   0.81000   0.84164

 Mulliken charges:
               1
     1  C   -0.474668
     2  Cl  -0.091760
     3  H    0.188810
     4  H    0.188810
     5  H    0.188810
 Sum of Mulliken charges =  -0.00000

 Dipole moment (field-independent basis, Debye):
    X=             -0.0000    Y=             -0.0000    Z=             -2.0567  Tot=              2.0567
 Quadrupole moment (field-independent basis, Debye-Ang):
   XX=            -19.7842   YY=            -19.7842   ZZ=            -17.9292
   XY=              0.0000   XZ=              0.0000   YZ=              0.0000

 Normal termination of Gaussian 16 at Wed Oct  7 12:24:10 2020.
