 Gaussian 16, Revision A.03,
 Gaussian 16:  ES64L-G16RevA.03 25-Dec-2016

 ----------------------------------------------------------------------
 #P Opt(MaxCyc=100) BLYP/6-31G* 5D 7F Integral=UltraFineGrid SCF=(NoSym
 m,XQC,MaxCyc=120) EmpiricalDispersion=GD3BJ IOp(1/33=1)
 ----------------------------------------------------------------------

 TstMul:  Mul=     1
 TstMul:  ICh=     0
 TstMul:  Mul=     1
 Symbolic Z-matrix:
 Charge =  0 Multiplicity = 1

 SCF Done:  E(RB-LYP) =  -79.7673660784     A.U. after    9 cycles
 SCF Done:  E(RB-LYP) =  -79.7681249415     A.U. after    9 cycles
 SCF Done:  E(RB-LYP) =  -79.7681271995     A.U. after    6 cycles
 Optimization completed.
    -- Stationary point found.

                         Standard orientation:
 ---------------------------------------------------------------------
 Center     Atomic      Atomic             Coordinates (Angstroms)
 Number     Number       Type             X           Y           Z
 ---------------------------------------------------------------------
      1          6           0       -0.770310    0.000000   -0.000000
      2          6           0        0.770310   -0.000000    0.000000
      3          1           0        1.171579   -1.025844    0.064956
      4          1           0       -1.171572   -0.457136    0.920655
      5          1           0        1.171574    0.569179    0.855928
      6          1           0        1.171572    0.456670   -0.920886
      7          1           0       -1.171579    1.025877   -0.064437
      8          1           0       -1.171574   -0.568745   -0.856216
 ---------------------------------------------------------------------

 The electronic state is 1-A.
 Alpha  occ. eigenvalues --   -9.90271  -9.90270  -0.66233  -0.53870  -0.37202
 Alpha  occ. eigenvalues --   -0.37202  -0.30970  -0.28935  -0.28935
 Alpha virt. eigenvalues --    0.08110   0.12909   0.13572   0.13572   0.16324
 Alpha virt. eigenvalues --    0.16324   0.20940   0.48253   0.50940   0.50940
 Alpha virt. eigenvalues --    0.60005   0.60005   0.61166   0.82700   0.82700

 Mulliken charges:
               1
     1  C   -0.386361
     2  C   -0.386361
     3  H    0.128787
     4  H    0.128787
     5  H    0.128787
     6  H    0.128787
     7  H    0.128787
     8  H    0.128787
 Sum of Mulliken charges =   0.00000

 Dipole moment (field-independent basis, Debye):
    X=             -0.0000    Y=              0.0000    Z=             -0.0000  Tot=              0.0000
 Quadrupole moment (field-independent basis, Debye-Ang):
   XX=            -15.2743   YY=            -14.7711   ZZ=            -14.7711
   XY=             -0.0000   XZ=              0.0000   YZ=              0.0000

 Normal termination of Gaussian 16 at Wed Oct  7 12:22:53 2020.
