 Gaussian 16, Revision A.03,
 Gaussian 16:  ES64L-G16RevA.03 25-Dec-2016

 ----------------------------------------------------------------------
 #P Opt(MaxCyc=100) BLYP/6-31G* 5D 7F Integral=UltraFineGrid SCF=(NoSym
 m,XQC,MaxCyc=120) EmpiricalDispersion=GD3BJ IOp(1/33=1)
 ----------------------------------------------------------------------

 TstMul:  Mul=     2
 TstMul:  ICh=     0
 TstMul:  Mul=     2
 Symbolic Z-matrix:
 Charge =  0 Multiplicity = 2

 SCF Done:  E(UB-LYP) =  -118.390384325     A.U. after   14 cycles
 SCF Done:  E(UB-LYP) =  -118.391398876     A.U. after   11 cycles
 SCF Done:  E(UB-LYP) =  -118.391409716     A.U. after    9 cycles
 SCF Done:  E(UB-LYP) =  -118.391411320     A.U. after    8 cycles
 Optimization completed.
    -- Stationary point found.

                         Standard orientation:
 ---------------------------------------------------------------------
 Center     Atomic      Atomic             Coordinates (Angstroms)
 Number     Number       Type             X           Y           Z
 ---------------------------------------------------------------------
      1          6           0        1.224370   -0.288164    0.000061
      2          6           0       -0.073740    0.578750   -0.000058
      3          6           0       -1.329131   -0.239192   -0.000014
      4          1           0        1.262998   -0.936516    0.891170
      5          1           0        1.263023   -0.936719   -0.890901
      6          1           0        2.123154    0.353387   -0.000002
      7          1           0       -0.049073    1.238623   -0.887677
      8          1           0       -0.049133    1.238815    0.887413
      9          1           0       -1.740165   -0.632671    0.933492
     10          1           0       -1.739801   -0.633285   -0.933423
 ---------------------------------------------------------------------

 The electronic state is 2-A.
 Alpha  occ. eigenvalues --   -9.91596  -9.91384  -9.90625  -0.68976  -0.59166
 Alpha  occ. eigenvalues --   -0.50759  -0.40094  -0.36844  -0.33711  -0.32128
 Alpha  occ. eigenvalues --   -0.29733  -0.28253  -0.14819
 Alpha virt. eigenvalues --    0.08130   0.11402   0.11632   0.13081   0.14999
 Alpha virt. eigenvalues --    0.15221   0.19356   0.19859   0.24376   0.48489
 Alpha virt. eigenvalues --    0.50002   0.50355   0.52262   0.55087   0.57370

  Beta  occ. eigenvalues --   -9.91659  -9.90489  -9.90162  -0.68167  -0.57770
  Beta  occ. eigenvalues --   -0.49702  -0.39721  -0.36407  -0.33283  -0.31318
  Beta  occ. eigenvalues --   -0.29277  -0.28077
  Beta virt. eigenvalues --   -0.06840   0.08458   0.11807   0.12515   0.13275
  Beta virt. eigenvalues --    0.15319   0.15362   0.19752   0.20283   0.25249
  Beta virt. eigenvalues --    0.49134   0.50500   0.52530   0.52928   0.57654

 Mulliken charges and spin densities:
               1          2
     1  C   -0.388228   0.052703
     2  C   -0.213945  -0.061221
     3  C   -0.269174   1.058370
     4  H    0.129866  -0.000285
     5  H    0.129864  -0.000288
     6  H    0.124926   0.015625
     7  H    0.121800   0.013355
     8  H    0.121796   0.013329
     9  H    0.121550  -0.045795
    10  H    0.121546  -0.045794
 Sum of Mulliken charges =  -0.00000   1.00000

 Dipole moment (field-independent basis, Debye):
    X=              0.2583    Y=             -0.0075    Z=              0.0000  Tot=              0.2584
 Quadrupole moment (field-independent basis, Debye-Ang):
   XX=            -21.6656   YY=            -21.1457   ZZ=            -20.0070
   XY=              0.7002   XZ=             -0.0004   YZ=              0.0004

 Normal termination of Gaussian 16 at Wed Oct  7 12:23:46 2020.
