 Gaussian 16, Revision A.03,
 Gaussian 16:  ES64L-G16RevA.03 25-Dec-2016

 ----------------------------------------------------------------------
 #P Opt(MaxCyc=100) BLYP/6-31G* 5D 7F Integral=UltraFineGrid SCF=(NoSym
 m,XQC,MaxCyc=120) EmpiricalDispersion=GD3BJ IOp(1/33=1)
 ----------------------------------------------------------------------

 TstMul:  Mul=     1
 TstMul:  ICh=     0
 TstMul:  Mul=     1
 Symbolic Z-matrix:
 Charge =  0 Multiplicity = 1

 SCF Done:  E(RB-LYP) =  -78.5392903050     A.U. after    9 cycles
 SCF Done:  E(RB-LYP) =  -78.5398710505     A.U. after    8 cycles
 SCF Done:  E(RB-LYP) =  -78.5398750545     A.U. after    6 cycles
 Optimization completed.
    -- Stationary point found.

                         Standard orientation:
 ---------------------------------------------------------------------
 Center     Atomic      Atomic             Coordinates (Angstroms)
 Number     Number       Type             X           Y           Z
 ---------------------------------------------------------------------
      1          6           0        0.000000    0.000000    0.670614
      2          6           0        0.000000    0.000000   -0.670614
      3          1           0        0.000000    0.929897    1.248152
      4          1           0       -0.000000   -0.929897    1.248152
      5          1           0        0.000000    0.929897   -1.248152
      6          1           0       -0.000000   -0.929897   -1.248152
 ---------------------------------------------------------------------

 The electronic state is 1-AG.
 Alpha  occ. eigenvalues --   -9.91388  -9.91339  -0.66848  -0.50890  -0.40443
 Alpha  occ. eigenvalues --   -0.35814  -0.30251  -0.22301
 Alpha virt. eigenvalues --   -0.00959   0.09686   0.11308   0.12861   0.21549
 Alpha virt. eigenvalues --    0.30272   0.45192   0.50869   0.53316   0.58972
 Alpha virt. eigenvalues --    0.62422   0.64421   0.79566   0.81010   0.86952

 Mulliken charges:
               1
     1  C   -0.244831
     2  C   -0.244831
     3  H    0.122415
     4  H    0.122415
     5  H    0.122415
     6  H    0.122415
 Sum of Mulliken charges =   0.00000

 Dipole moment (field-independent basis, Debye):
    X=             -0.0000    Y=             -0.0000    Z=             -0.0000  Tot=              0.0000
 Quadrupole moment (field-independent basis, Debye-Ang):
   XX=            -14.9849   YY=            -12.1958   ZZ=            -12.1169
   XY=              0.0000   XZ=             -0.0000   YZ=              0.0000

 Normal termination of Gaussian 16 at Wed Oct  7 12:22:26 2020.
