 Gaussian 16, Revision A.03,

 ----------------------------------------------------------------------
 #P Opt(TS,MaxCyc=50,NoEigenTest,MaxStep=10,AddRedundant) BLYP/6-31G* 5
 D 7F Integral=UltraFineGrid SCF=(NoSymm,XQC,MaxCyc=120) EmpiricalDispe
 rsion=GD3BJ IOp(1/33=1)
 ----------------------------------------------------------------------

 TstMul:  Mul=     2
 TstMul:  ICh=     0
 TstMul:  Mul=     2
 Symbolic Z-matrix:
 Charge =  0 Multiplicity = 2

 SCF Done:  E(UB-LYP) =  -79.0390102972     A.U. after   15 cycles
 SCF Done:  E(UB-LYP) =  -79.0390383334     A.U. after    9 cycles
 SCF Done:  E(UB-LYP) =  -79.0387446534     A.U. after   14 cycles
 SCF Done:  E(UB-LYP) =  -79.0384709099     A.U. after   13 cycles
 SCF Done:  E(UB-LYP) =  -79.0382150148     A.U. after   13 cycles
 SCF Done:  E(UB-LYP) =  -79.0379934019     A.U. after   13 cycles
 SCF Done:  E(UB-LYP) =  -79.0378096984     A.U. after   13 cycles
 SCF Done:  E(UB-LYP) =  -79.0376592344     A.U. after   13 cycles
 SCF Done:  E(UB-LYP) =  -79.0375343133     A.U. after   13 cycles
 SCF Done:  E(UB-LYP) =  -79.0374275510     A.U. after   13 cycles
 SCF Done:  E(UB-LYP) =  -79.0368518274     A.U. after   12 cycles
 SCF Done:  E(UB-LYP) =  -79.0367980123     A.U. after   12 cycles
 SCF Done:  E(UB-LYP) =  -79.0367569056     A.U. after   12 cycles
 SCF Done:  E(UB-LYP) =  -79.0367393062     A.U. after   11 cycles
 SCF Done:  E(UB-LYP) =  -79.0367628178     A.U. after   12 cycles
 SCF Done:  E(UB-LYP) =  -79.0367787697     A.U. after   13 cycles
 SCF Done:  E(UB-LYP) =  -79.0367791736     A.U. after   11 cycles
 SCF Done:  E(UB-LYP) =  -79.0367791750     A.U. after    8 cycles
 SCF Done:  E(UB-LYP) =  -79.0367791773     A.U. after    7 cycles
 Optimization completed.
    -- Stationary point found.
 Normal termination of Gaussian 16 at Wed Oct  7 12:30:15 2020.
 Gaussian 16:  ES64L-G16RevA.03 25-Dec-2016

 ----------------------------------------------------------------------
 #P Freq BLYP/6-31G* 5D 7F Integral=UltraFineGrid SCF=(NoSymm,XQC,MaxCy
 c=120) EmpiricalDispersion=GD3BJ IOp(1/33=1) Geom=Check Guess=Read
 ----------------------------------------------------------------------

 TstMul:  Mul=     2
 TstMul:  ICh=     0
 TstMul:  Mul=     2
 Structure from the checkpoint file:  "MN_13_c2h5ts_BH76_BLYPDBJ_631Gs.chk"
 Charge =  0 Multiplicity = 2

                         Standard orientation:
 ---------------------------------------------------------------------
 Center     Atomic      Atomic             Coordinates (Angstroms)
 Number     Number       Type             X           Y           Z
 ---------------------------------------------------------------------
      1          6           0       -0.671483    0.162225    0.000053
      2          6           0        0.671577    0.162021    0.000053
      3          1           0       -0.000732   -2.588619   -0.000849
      4          1           0       -1.248731    0.160396    0.929729
      5          1           0       -1.248734    0.161654   -0.929623
      6          1           0        1.248819    0.161174   -0.929627
      7          1           0        1.248818    0.159920    0.929732
 ---------------------------------------------------------------------

 SCF Done:  E(UB-LYP) =  -79.0367791773     A.U. after    1 cycles

 The electronic state is 2-A.
 Alpha  occ. eigenvalues --   -9.92046  -9.91997  -0.67457  -0.51413  -0.40923
 Alpha  occ. eigenvalues --   -0.36355  -0.30726  -0.25800  -0.20874
 Alpha virt. eigenvalues --   -0.01620   0.09381   0.10982   0.12536   0.21232
 Alpha virt. eigenvalues --    0.29821   0.44916   0.51234   0.52888   0.58413
 Alpha virt. eigenvalues --    0.58685   0.63776   0.79215   0.79551   0.80567

  Beta  occ. eigenvalues --   -9.91995  -9.91946  -0.67332  -0.51345  -0.40894
  Beta  occ. eigenvalues --   -0.36295  -0.30708  -0.23121
  Beta virt. eigenvalues --   -0.08203  -0.01437   0.09408   0.10989   0.12569
  Beta virt. eigenvalues --    0.21242   0.29838   0.44903   0.52140   0.52825
  Beta virt. eigenvalues --    0.58431   0.61447   0.63843   0.79216   0.80592

 Mulliken charges and spin densities:
               1          2
     1  C   -0.237436   0.020929
     2  C   -0.237435   0.020977
     3  H   -0.035716   0.961133
     4  H    0.127648  -0.000758
     5  H    0.127646  -0.000759
     6  H    0.127646  -0.000761
     7  H    0.127648  -0.000761
 Sum of Mulliken charges =   0.00000   1.00000

 Dipole moment (field-independent basis, Debye):
    X=              0.0001    Y=              0.4424    Z=              0.0002  Tot=              0.4424
 Quadrupole moment (field-independent basis, Debye-Ang):
   XX=            -13.2381   YY=            -17.2637   ZZ=            -13.4111
   XY=             -0.0009   XZ=              0.0000   YZ=             -0.0022

  Exact polarizability:  30.935   0.000  22.954  -0.000  -0.003  20.830
 Approx polarizability:  59.423  -0.002  26.922   0.000  -0.007  29.919

 ******    1 imaginary frequencies (negative Signs) ******

                      1                      2                      3
                      A                      A                      A
 Frequencies --   -101.3186                96.3744               235.6530
 Red. masses --      1.2614                 1.0167                 1.0346
 Frc consts  --      0.0076                 0.0056                 0.0339
 IR Inten    --      0.5415                 0.2650                30.3487

                      4                      5                      6
                      A                      A                      A
 Frequencies --    815.6474               910.4263               945.4275
 Red. masses --      1.0427                 1.5018                 1.1627
 Frc consts  --      0.4087                 0.7334                 0.6123
 IR Inten    --      0.7822                 0.0069                87.9614

                      7                      8                      9
                      A                      A                      A
 Frequencies --   1032.0965              1217.5421              1358.3551
 Red. masses --      1.0078                 1.5246                 1.2651
 Frc consts  --      0.6325                 1.3316                 1.3753
 IR Inten    --      0.0000                 0.0000                 1.1882

                     10                     11                     12
                      A                      A                      A
 Frequencies --   1459.5724              1656.6218              3076.0832
 Red. masses --      1.1120                 2.9117                 1.0476
 Frc consts  --      1.3958                 4.7080                 5.8403
 IR Inten    --      4.3354                 6.7275                18.6735

                     13                     14                     15
                      A                      A                      A
 Frequencies --   3087.7517              3142.5846              3169.5474
 Red. masses --      1.0706                 1.1144                 1.1176
 Frc consts  --      6.0142                 6.4846                 6.6153
 IR Inten    --      2.0614                 0.0000                34.2789

 - Thermochemistry -
 -------------------
 Temperature   298.150 Kelvin.  Pressure   1.00000 Atm.
 Atom     1 has atomic number  6 and mass  12.00000

 Molecular mass:    29.03913 amu.
 Principal axes and moments of inertia in atomic units:
                           1         2         3
     Eigenvalues --    38.72594  73.54142  87.38233
           X            1.00000   0.00008   0.00000
           Y           -0.00008   1.00000  -0.00002
           Z           -0.00000   0.00002   1.00000
 This molecule is an asymmetric top.
 Rotational symmetry number  1.
 Rotational temperatures (Kelvin)      2.23659     1.17776     0.99121
 Rotational constants (GHZ):          46.60290    24.54047    20.65339
    1 imaginary frequencies ignored.
 Zero-point vibrational energy     132807.5 (Joules/Mol)
                                   31.74176 (Kcal/Mol)
 Warning -- explicit consideration of   2 degrees of freedom as
           vibrations may cause significant error
 Vibrational temperatures:    138.66   339.05  1173.53  1309.90  1360.26
          (Kelvin)           1484.96  1751.77  1954.37  2100.00  2383.51
                             4425.80  4442.59  4521.48  4560.27

 Zero-point correction=                           0.050584 (Hartree/Particle)
 Thermal correction to Energy=                    0.054901
 Thermal correction to Enthalpy=                  0.055846
 Thermal correction to Gibbs Free Energy=         0.025662
 Sum of electronic and zero-point Energies=            -78.986195
 Sum of electronic and thermal Energies=               -78.981878
 Sum of electronic and thermal Enthalpies=             -78.980933
 Sum of electronic and thermal Free Energies=          -79.011117

                     E (Thermal)             CV                S
                      KCal/Mol        Cal/Mol-Kelvin    Cal/Mol-Kelvin
 Total                   34.451             12.040             63.527
 Electronic               0.000              0.000              1.377
 Translational            0.889              2.981             36.032
 Rotational               0.889              2.981             20.148
 Vibrational             32.674              6.079              5.969
 Vibration     1          0.603              1.952              3.526
 Vibration     2          0.655              1.786              1.835

 Optimization completed.
    -- Stationary point found.
 Normal termination of Gaussian 16 at Wed Oct  7 12:30:48 2020.
