 Gaussian 16, Revision A.03,
 Gaussian 16:  ES64L-G16RevA.03 25-Dec-2016

 ----------------------------------------------------------------------
 #P Opt(MaxCyc=100) BLYP/6-31G* 5D 7F Integral=UltraFineGrid SCF=(NoSym
 m,XQC,MaxCyc=120) EmpiricalDispersion=GD3BJ IOp(1/33=1)
 ----------------------------------------------------------------------

 TstMul:  Mul=     1
 TstMul:  ICh=     0
 TstMul:  Mul=     1
 Symbolic Z-matrix:
 Charge =  0 Multiplicity = 1

 SCF Done:  E(RB-LYP) =  -115.668002673     A.U. after   11 cycles
 SCF Done:  E(RB-LYP) =  -115.669234769     A.U. after   11 cycles
 SCF Done:  E(RB-LYP) =  -115.669254060     A.U. after    8 cycles
 SCF Done:  E(RB-LYP) =  -115.669254877     A.U. after    7 cycles
 Optimization completed.
    -- Stationary point found.

                         Standard orientation:
 ---------------------------------------------------------------------
 Center     Atomic      Atomic             Coordinates (Angstroms)
 Number     Number       Type             X           Y           Z
 ---------------------------------------------------------------------
      1          6           0       -0.047351    0.667148    0.000000
      2          8           0       -0.047351   -0.765967    0.000000
      3          1           0       -1.103410    0.978519    0.000000
      4          1           0        0.889570   -1.052753    0.000000
      5          1           0        0.438380    1.099541    0.899511
      6          1           0        0.438380    1.099541   -0.899511
 ---------------------------------------------------------------------

 The electronic state is 1-A'.
 Alpha  occ. eigenvalues --  -18.78038  -9.95360  -0.90471  -0.59968  -0.43747
 Alpha  occ. eigenvalues --   -0.37164  -0.35895  -0.27312  -0.20341
 Alpha virt. eigenvalues --    0.04810   0.10331   0.13697   0.14658   0.16894
 Alpha virt. eigenvalues --    0.48670   0.53430   0.54363   0.73095   0.79065
 Alpha virt. eigenvalues --    0.80964   0.83908   0.92439   0.94855   0.98827

 Mulliken charges:
               1
     1  C   -0.175232
     2  O   -0.574054
     3  H    0.145070
     4  H    0.375282
     5  H    0.114467
     6  H    0.114467
 Sum of Mulliken charges =  -0.00000

 Dipole moment (field-independent basis, Debye):
    X=              1.3818    Y=              0.8275    Z=             -0.0000  Tot=              1.6106
 Quadrupole moment (field-independent basis, Debye-Ang):
   XX=            -11.6085   YY=            -13.0743   ZZ=            -13.6491
   XY=             -2.0581   XZ=              0.0000   YZ=              0.0000

 Normal termination of Gaussian 16 at Wed Oct  7 12:23:48 2020.
