 Gaussian 16, Revision A.03,

 ----------------------------------------------------------------------
 #P Opt(TS,MaxCyc=50,NoEigenTest,MaxStep=10,AddRedundant) BLYP/6-31G* 5
 D 7F Integral=UltraFineGrid SCF=(NoSymm,XQC,MaxCyc=120) EmpiricalDispe
 rsion=GD3BJ IOp(1/33=1)
 ----------------------------------------------------------------------

 TstMul:  Mul=     1
 TstMul:  ICh=    -1
 TstMul:  Mul=     1
 Symbolic Z-matrix:
 Charge = -1 Multiplicity = 1

 SCF Done:  E(RB-LYP) =  -960.296741184     A.U. after   13 cycles
 SCF Done:  E(RB-LYP) =  -960.297602716     A.U. after   12 cycles
 SCF Done:  E(RB-LYP) =  -960.297973708     A.U. after   12 cycles
 SCF Done:  E(RB-LYP) =  -960.298126487     A.U. after   12 cycles
 SCF Done:  E(RB-LYP) =  -960.298137366     A.U. after    9 cycles
 SCF Done:  E(RB-LYP) =  -960.298135883     A.U. after    8 cycles
 Optimization completed.
    -- Stationary point found.
 Normal termination of Gaussian 16 at Wed Oct  7 12:25:05 2020.
 Gaussian 16:  ES64L-G16RevA.03 25-Dec-2016

 ----------------------------------------------------------------------
 #P Freq BLYP/6-31G* 5D 7F Integral=UltraFineGrid SCF=(NoSymm,XQC,MaxCy
 c=120) EmpiricalDispersion=GD3BJ IOp(1/33=1) Geom=Check Guess=Read
 ----------------------------------------------------------------------

 TstMul:  Mul=     1
 TstMul:  ICh=    -1
 TstMul:  Mul=     1
 Structure from the checkpoint file:  "MN_28_clch3clts_BH76_BLYPDBJ_631Gs.chk"
 Charge = -1 Multiplicity = 1

                         Standard orientation:
 ---------------------------------------------------------------------
 Center     Atomic      Atomic             Coordinates (Angstroms)
 Number     Number       Type             X           Y           Z
 ---------------------------------------------------------------------
      1         17           0        2.402099    0.000006   -0.000043
      2          6           0       -0.017675   -0.000024    0.000156
      3          1           0       -0.004155    0.937878   -0.536873
      4          1           0       -0.004187   -0.934093   -0.543518
      5          1           0       -0.004157   -0.003862    1.080929
      6         17           0       -2.395125    0.000007   -0.000043
 ---------------------------------------------------------------------

 SCF Done:  E(RB-LYP) =  -960.298135883     A.U. after    1 cycles

 The electronic state is 1-A.
 Alpha  occ. eigenvalues -- -100.48424-100.47790  -9.81109  -8.92559  -8.91907
 Alpha  occ. eigenvalues --   -6.75559  -6.75023  -6.75023  -6.74885  -6.74385
 Alpha  occ. eigenvalues --   -6.74385  -0.49965  -0.47251  -0.42980  -0.22715
 Alpha  occ. eigenvalues --   -0.22714  -0.10734  -0.04272  -0.04272  -0.03612
 Alpha  occ. eigenvalues --   -0.03484  -0.03484
 Alpha virt. eigenvalues --    0.10834   0.23124   0.29672   0.29673   0.54192
 Alpha virt. eigenvalues --    0.54618   0.60300   0.60302   0.61094   0.61094
 Alpha virt. eigenvalues --    0.66715   0.69434   0.69435   0.69848   0.82856

 Mulliken charges:
               1
     1  Cl  -0.639100
     2  C   -0.328293
     3  H    0.193836
     4  H    0.193832
     5  H    0.193810
     6  Cl  -0.614086
 Sum of Mulliken charges =  -1.00000

 Dipole moment (field-independent basis, Debye):
    X=             -0.2763    Y=             -0.0001    Z=              0.0004  Tot=              0.2763
 Quadrupole moment (field-independent basis, Debye-Ang):
   XX=            -72.4155   YY=            -35.4765   ZZ=            -35.4768
   XY=              0.0000   XZ=              0.0000   YZ=             -0.0000

  Exact polarizability: 104.858   0.000  22.772   0.000   0.000  22.772
 Approx polarizability: 234.966   0.000  32.900   0.000   0.000  32.900

 ******    1 imaginary frequencies (negative Signs) ******

                      1                      2                      3
                      A                      A                      A
 Frequencies --   -255.7727               181.4607               181.5721
 Red. masses --     13.2488                 4.3488                 4.3492
 Frc consts  --      0.5107                 0.0844                 0.0845
 IR Inten    --    732.3910                12.2044                12.2034

                      4                      5                      6
                      A                      A                      A
 Frequencies --    190.8456               867.8614               867.9448
 Red. masses --     34.9238                 1.0124                 1.0124
 Frc consts  --      0.7494                 0.4493                 0.4494
 IR Inten    --      0.0014                 0.0004                 0.0004

                      7                      8                      9
                      A                      A                      A
 Frequencies --    955.4907              1390.9483              1390.9640
 Red. masses --      1.0438                 1.1044                 1.1044
 Frc consts  --      0.5615                 1.2589                 1.2589
 IR Inten    --     52.2413                 4.1847                 4.1844

                     10                     11                     12
                      A                      A                      A
 Frequencies --   3152.6211              3339.5806              3339.6698
 Red. masses --      1.0079                 1.1228                 1.1228
 Frc consts  --      5.9019                 7.3779                 7.3783
 IR Inten    --      0.0239                 0.0138                 0.0135

 - Thermochemistry -
 -------------------
 Temperature   298.150 Kelvin.  Pressure   1.00000 Atm.
 Atom     1 has atomic number 17 and mass  34.96885

 Molecular mass:    84.96118 amu.
 Principal axes and moments of inertia in atomic units:
                           1         2         3
     Eigenvalues --    12.611691443.230821443.23121
           X            1.00000   0.00000   0.00000
           Y           -0.00000   1.00000   0.00029
           Z           -0.00000  -0.00029   1.00000
 This molecule is an asymmetric top.
 Rotational symmetry number  1.
 Rotational temperatures (Kelvin)      6.86775     0.06001     0.06001
 Rotational constants (GHZ):         143.10065     1.25049     1.25049
    1 imaginary frequencies ignored.
 Zero-point vibrational energy      94857.6 (Joules/Mol)
                                   22.67152 (Kcal/Mol)
 Warning -- explicit consideration of   3 degrees of freedom as
           vibrations may cause significant error
 Vibrational temperatures:    261.08   261.24   274.58  1248.66  1248.78
          (Kelvin)           1374.74  2001.26  2001.29  4535.92  4804.91
                             4805.04

 Zero-point correction=                           0.036129 (Hartree/Particle)
 Thermal correction to Energy=                    0.040899
 Thermal correction to Enthalpy=                  0.041843
 Thermal correction to Gibbs Free Energy=         0.007956
 Sum of electronic and zero-point Energies=           -960.262007
 Sum of electronic and thermal Energies=              -960.257237
 Sum of electronic and thermal Enthalpies=            -960.256293
 Sum of electronic and thermal Free Energies=         -960.290180

                     E (Thermal)             CV                S
                      KCal/Mol        Cal/Mol-Kelvin    Cal/Mol-Kelvin
 Total                   25.664             13.282             71.321
 Electronic               0.000              0.000              0.000
 Translational            0.889              2.981             39.232
 Rotational               0.889              2.981             24.777
 Vibrational             23.887              7.320              7.312
 Vibration     1          0.630              1.865              2.313
 Vibration     2          0.630              1.865              2.312
 Vibration     3          0.634              1.853              2.220

                           ! Non-Optimized Parameters !
 Normal termination of Gaussian 16 at Wed Oct  7 12:25:39 2020.
