 Gaussian 16, Revision A.03,
 Gaussian 16:  ES64L-G16RevA.03 25-Dec-2016

 ----------------------------------------------------------------------
 #P Opt(MaxCyc=100) BLYP/6-31G* 5D 7F Integral=UltraFineGrid SCF=(NoSym
 m,XQC,MaxCyc=120) EmpiricalDispersion=GD3BJ IOp(1/33=1)
 ----------------------------------------------------------------------

 TstMul:  Mul=     1
 TstMul:  ICh=     0
 TstMul:  Mul=     1
 Symbolic Z-matrix:
 Charge =  0 Multiplicity = 1

 SCF Done:  E(RB-LYP) =  -40.4802025836     A.U. after    8 cycles
 SCF Done:  E(RB-LYP) =  -40.4806168433     A.U. after    6 cycles
 Optimization completed.
    -- Stationary point found.

                         Standard orientation:
 ---------------------------------------------------------------------
 Center     Atomic      Atomic             Coordinates (Angstroms)
 Number     Number       Type             X           Y           Z
 ---------------------------------------------------------------------
      1          6           0        0.000000    0.000000    0.000000
      2          1           0        0.635288    0.635288    0.635288
      3          1           0       -0.635288   -0.635288    0.635288
      4          1           0        0.635288   -0.635288   -0.635288
      5          1           0       -0.635288    0.635288   -0.635288
 ---------------------------------------------------------------------

 The electronic state is 1-A1.
 Alpha  occ. eigenvalues --   -9.89664  -0.61068  -0.33464  -0.33464  -0.33464
 Alpha virt. eigenvalues --    0.09321   0.14891   0.14891   0.14891   0.49981
 Alpha virt. eigenvalues --    0.49981   0.49981   0.83737   0.83737   0.83737
 Alpha virt. eigenvalues --    0.87753   1.06991   1.60199   1.60199   2.16524

 Mulliken charges:
               1
     1  C   -0.577382
     2  H    0.144346
     3  H    0.144346
     4  H    0.144346
     5  H    0.144346
 Sum of Mulliken charges =   0.00000

 Dipole moment (field-independent basis, Debye):
    X=              0.0000    Y=              0.0000    Z=              0.0000  Tot=              0.0000
 Quadrupole moment (field-independent basis, Debye-Ang):
   XX=             -8.2774   YY=             -8.2774   ZZ=             -8.2774
   XY=              0.0000   XZ=              0.0000   YZ=             -0.0000

 Normal termination of Gaussian 16 at Wed Oct  7 12:23:42 2020.
