 Gaussian 16, Revision A.03,
 Gaussian 16:  ES64L-G16RevA.03 25-Dec-2016

 ----------------------------------------------------------------------
 #P Opt(MaxCyc=100) BLYP/6-31G* 5D 7F Integral=UltraFineGrid SCF=(NoSym
 m,XQC,MaxCyc=120) EmpiricalDispersion=GD3BJ IOp(1/33=1)
 ----------------------------------------------------------------------

 TstMul:  Mul=     1
 TstMul:  ICh=     0
 TstMul:  Mul=     1
 Symbolic Z-matrix:
 Charge =  0 Multiplicity = 1

 SCF Done:  E(RB-LYP) =  -139.693203086     A.U. after   10 cycles
 SCF Done:  E(RB-LYP) =  -139.694105074     A.U. after   10 cycles
 SCF Done:  E(RB-LYP) =  -139.694113139     A.U. after    7 cycles
 Optimization completed.
    -- Stationary point found.

                         Standard orientation:
 ---------------------------------------------------------------------
 Center     Atomic      Atomic             Coordinates (Angstroms)
 Number     Number       Type             X           Y           Z
 ---------------------------------------------------------------------
      1          6           0        0.000000    0.000000   -0.636184
      2          9           0        0.000000    0.000000    0.760607
      3          1           0        0.000000    1.040165   -1.009453
      4          1           0        0.900809   -0.520082   -1.009453
      5          1           0       -0.900809   -0.520082   -1.009453
 ---------------------------------------------------------------------

 The electronic state is 1-A1.
 Alpha  occ. eigenvalues --  -24.26079  -9.98304  -1.05246  -0.61469  -0.40923
 Alpha  occ. eigenvalues --   -0.40304  -0.40304  -0.26609  -0.26609
 Alpha virt. eigenvalues --    0.07880   0.09614   0.13596   0.13596   0.46852
 Alpha virt. eigenvalues --    0.51624   0.51624   0.78477   0.78477   0.80820
 Alpha virt. eigenvalues --    0.94169   1.19394   1.20005   1.20005   1.46995

 Mulliken charges:
               1
     1  C   -0.077509
     2  F   -0.306413
     3  H    0.127974
     4  H    0.127974
     5  H    0.127974
 Sum of Mulliken charges =   0.00000

 Dipole moment (field-independent basis, Debye):
    X=             -0.0000    Y=              0.0000    Z=             -1.6150  Tot=              1.6150
 Quadrupole moment (field-independent basis, Debye-Ang):
   XX=            -11.7624   YY=            -11.7624   ZZ=            -11.9873
   XY=             -0.0000   XZ=              0.0000   YZ=              0.0000

 Normal termination of Gaussian 16 at Wed Oct  7 12:23:25 2020.
