 Gaussian 16, Revision A.03,
 Gaussian 16:  ES64L-G16RevA.03 25-Dec-2016

 ----------------------------------------------------------------------
 #P Opt(MaxCyc=100) BLYP/6-31G* 5D 7F Integral=UltraFineGrid SCF=(NoSym
 m,XQC,MaxCyc=120) EmpiricalDispersion=GD3BJ IOp(1/33=1)
 ----------------------------------------------------------------------

 TstMul:  Mul=     1
 TstMul:  ICh=     0
 TstMul:  Mul=     1
 Symbolic Z-matrix:
 Charge =  0 Multiplicity = 1

 SCF Done:  E(RB-LYP) =  -559.916595878     A.U. after   11 cycles
 SCF Done:  E(RB-LYP) =  -559.918378020     A.U. after   11 cycles
 SCF Done:  E(RB-LYP) =  -559.918641765     A.U. after   11 cycles
 Optimization completed.
    -- Stationary point found.

                         Standard orientation:
 ---------------------------------------------------------------------
 Center     Atomic      Atomic             Coordinates (Angstroms)
 Number     Number       Type             X           Y           Z
 ---------------------------------------------------------------------
      1          9           0        0.000000    0.000000   -1.108475
      2         17           0        0.000000    0.000000    0.586840
 ---------------------------------------------------------------------

 The electronic state is 1-SG.
 Alpha  occ. eigenvalues -- -100.80700 -24.33547  -9.24471  -7.08568  -7.06427
 Alpha  occ. eigenvalues --   -7.06427  -1.09318  -0.75029  -0.46414  -0.38622
 Alpha  occ. eigenvalues --   -0.38622  -0.27183  -0.27183
 Alpha virt. eigenvalues --   -0.16162   0.29896   0.34942   0.38879   0.38879
 Alpha virt. eigenvalues --    0.69356   0.69356   0.76864   0.76864   0.83099
 Alpha virt. eigenvalues --    1.17282   1.17918   1.17918   1.66405   1.77206

 Mulliken charges:
               1
     1  F   -0.268645
     2  Cl   0.268645
 Sum of Mulliken charges =  -0.00000

 Dipole moment (field-independent basis, Debye):
    X=              0.0000    Y=             -0.0000    Z=              0.9245  Tot=              0.9245
 Quadrupole moment (field-independent basis, Debye-Ang):
   XX=            -17.1404   YY=            -17.1404   ZZ=            -15.4092
   XY=              0.0000   XZ=              0.0000   YZ=              0.0000

 Normal termination of Gaussian 16 at Wed Oct  7 12:24:21 2020.
