 Gaussian 16, Revision A.03,
 Gaussian 16:  ES64L-G16RevA.03 25-Dec-2016

 ----------------------------------------------------------------------
 #P Opt(MaxCyc=100) BLYP/6-31G* 5D 7F Integral=UltraFineGrid SCF=(NoSym
 m,XQC,MaxCyc=120) EmpiricalDispersion=GD3BJ IOp(1/33=1)
 ----------------------------------------------------------------------

 TstMul:  Mul=     1
 TstMul:  ICh=    -1
 TstMul:  Mul=     1
 Symbolic Z-matrix:
 Charge = -1 Multiplicity = 1

 SCF Done:  E(RB-LYP) =  -960.300790849     A.U. after   13 cycles
 SCF Done:  E(RB-LYP) =  -960.302507143     A.U. after   12 cycles
 SCF Done:  E(RB-LYP) =  -960.302957101     A.U. after   12 cycles
 SCF Done:  E(RB-LYP) =  -960.303318100     A.U. after   11 cycles
 SCF Done:  E(RB-LYP) =  -960.303423307     A.U. after   11 cycles
 SCF Done:  E(RB-LYP) =  -960.303477476     A.U. after    9 cycles
 SCF Done:  E(RB-LYP) =  -960.303480118     A.U. after    8 cycles
 SCF Done:  E(RB-LYP) =  -960.303480908     A.U. after    8 cycles
 Optimization completed.
    -- Stationary point found.

                         Standard orientation:
 ---------------------------------------------------------------------
 Center     Atomic      Atomic             Coordinates (Angstroms)
 Number     Number       Type             X           Y           Z
 ---------------------------------------------------------------------
      1         17           0        0.000000    0.000000   -2.373447
      2          6           0        0.000000    0.000000   -0.434367
      3          1           0       -0.000000    1.044605   -0.122037
      4          1           0       -0.904655   -0.522303   -0.122037
      5          1           0        0.904655   -0.522303   -0.122037
      6         17           0        0.000000    0.000000    2.548289
 ---------------------------------------------------------------------

 The electronic state is 1-A1.
 Alpha  occ. eigenvalues -- -100.55915-100.41613  -9.80831  -9.00300  -8.85587
 Alpha  occ. eigenvalues --   -6.83539  -6.82603  -6.82603  -6.68347  -6.68195
 Alpha  occ. eigenvalues --   -6.68195  -0.58523  -0.44727  -0.40194  -0.22531
 Alpha  occ. eigenvalues --   -0.22531  -0.18886  -0.10132  -0.10132   0.01321
 Alpha  occ. eigenvalues --    0.01835   0.01835
 Alpha virt. eigenvalues --    0.13011   0.24384   0.28787   0.28787   0.50288
 Alpha virt. eigenvalues --    0.56144   0.56199   0.56199   0.58952   0.63527
 Alpha virt. eigenvalues --    0.63527   0.68039   0.68630   0.68630   0.88968

 Mulliken charges:
               1
     1  Cl  -0.298851
     2  C   -0.405151
     3  H    0.190239
     4  H    0.190239
     5  H    0.190239
     6  Cl  -0.866716
 Sum of Mulliken charges =  -1.00000

 Dipole moment (field-independent basis, Debye):
    X=             -0.0000    Y=             -0.0000    Z=             -6.3739  Tot=              6.3739
 Quadrupole moment (field-independent basis, Debye-Ang):
   XX=            -35.5555   YY=            -35.5555   ZZ=            -73.2709
   XY=             -0.0000   XZ=              0.0000   YZ=             -0.0000

 Normal termination of Gaussian 16 at Wed Oct  7 12:25:06 2020.
