 Gaussian 16, Revision A.03,
 Gaussian 16:  ES64L-G16RevA.03 25-Dec-2016

 ----------------------------------------------------------------------
 #P Opt(MaxCyc=100) BLYP/6-31G* 5D 7F Integral=UltraFineGrid SCF=(NoSym
 m,XQC,MaxCyc=120) EmpiricalDispersion=GD3BJ IOp(1/33=1)
 ----------------------------------------------------------------------

 TstMul:  Mul=     2
 TstMul:  ICh=     0
 TstMul:  Mul=     2
 Symbolic Z-matrix:
 Charge =  0 Multiplicity = 2

 SCF Done:  E(UB-LYP) =  -39.8058127043     A.U. after   10 cycles
 SCF Done:  E(UB-LYP) =  -39.8061166428     A.U. after    8 cycles
 Optimization completed.
    -- Stationary point found.

                         Standard orientation:
 ---------------------------------------------------------------------
 Center     Atomic      Atomic             Coordinates (Angstroms)
 Number     Number       Type             X           Y           Z
 ---------------------------------------------------------------------
      1          6           0        0.000000    0.000000    0.000000
      2          1           0        0.000000    1.090030    0.000000
      3          1           0        0.943994   -0.545015    0.000000
      4          1           0       -0.943994   -0.545015    0.000000
 ---------------------------------------------------------------------

 The electronic state is 2-A2".
 Alpha  occ. eigenvalues --   -9.92099  -0.60047  -0.36032  -0.36032  -0.17312
 Alpha virt. eigenvalues --    0.08854   0.15429   0.15429   0.49583   0.51178
 Alpha virt. eigenvalues --    0.51178   0.64582   0.85167   0.85167   0.91331
 Alpha virt. eigenvalues --    1.59454   1.59454   1.93919   2.10956   2.10956
  Beta  occ. eigenvalues --   -9.90830  -0.56914  -0.35183  -0.35183
  Beta virt. eigenvalues --   -0.08068   0.10372   0.15960   0.15960   0.52077
  Beta virt. eigenvalues --    0.52077   0.56878   0.67024   0.85582   0.85582
  Beta virt. eigenvalues --    0.94611   1.66666   1.66666   2.03490   2.12089

 Mulliken charges and spin densities:
               1          2
     1  C   -0.444346   1.142527
     2  H    0.148115  -0.047509
     3  H    0.148115  -0.047509
     4  H    0.148115  -0.047509
 Sum of Mulliken charges =  -0.00000   1.00000

 Dipole moment (field-independent basis, Debye):
    X=             -0.0000    Y=              0.0000    Z=              0.0000  Tot=              0.0000
 Quadrupole moment (field-independent basis, Debye-Ang):
   XX=             -7.0368   YY=             -7.0368   ZZ=             -8.6419
   XY=             -0.0000   XZ=             -0.0000   YZ=             -0.0000

 Normal termination of Gaussian 16 at Wed Oct  7 12:23:30 2020.
