 Gaussian 16, Revision A.03,
 Gaussian 16:  ES64L-G16RevA.03 25-Dec-2016

 ----------------------------------------------------------------------
 #P Opt(MaxCyc=100) BLYP/6-31G* 5D 7F Integral=UltraFineGrid SCF=(NoSym
 m,XQC,MaxCyc=120) EmpiricalDispersion=GD3BJ IOp(1/33=1)
 ----------------------------------------------------------------------

 TstMul:  Mul=     1
 TstMul:  ICh=     0
 TstMul:  Mul=     1
 Symbolic Z-matrix:
 Charge =  0 Multiplicity = 1

 SCF Done:  E(RB-LYP) =  -113.290708630     A.U. after   11 cycles
 SCF Done:  E(RB-LYP) =  -113.291598510     A.U. after    8 cycles
 SCF Done:  E(RB-LYP) =  -113.291625066     A.U. after    7 cycles
 Optimization completed.
    -- Stationary point found.

                         Standard orientation:
 ---------------------------------------------------------------------
 Center     Atomic      Atomic             Coordinates (Angstroms)
 Number     Number       Type             X           Y           Z
 ---------------------------------------------------------------------
      1          8           0        0.000000    0.000000    0.492945
      2          6           0        0.000000    0.000000   -0.657260
 ---------------------------------------------------------------------

 The electronic state is 1-SG.
 Alpha  occ. eigenvalues --  -18.89748 -10.03203  -1.04561  -0.49610  -0.40591
 Alpha  occ. eigenvalues --   -0.40591  -0.31190
 Alpha virt. eigenvalues --   -0.05623  -0.05623   0.23849   0.47438   0.47438
 Alpha virt. eigenvalues --    0.55104   0.68088   0.78320   0.86081   0.86081
 Alpha virt. eigenvalues --    1.43224   1.43224   1.45346   1.47551   1.47551

 Mulliken charges:
               1
     1  O   -0.126659
     2  C    0.126659
 Sum of Mulliken charges =  -0.00000

 Dipole moment (field-independent basis, Debye):
    X=              0.0000    Y=             -0.0000    Z=              0.1496  Tot=              0.1496
 Quadrupole moment (field-independent basis, Debye-Ang):
   XX=             -9.8686   YY=             -9.8686   ZZ=            -11.9095
   XY=              0.0000   XZ=              0.0000   YZ=              0.0000

 Normal termination of Gaussian 16 at Wed Oct  7 12:24:26 2020.
