 Gaussian 16, Revision A.03,
 Gaussian 16:  ES64L-G16RevA.03 25-Dec-2016

 ----------------------------------------------------------------------
 #P Opt(MaxCyc=100) BLYP/6-31G* 5D 7F Integral=UltraFineGrid SCF=(NoSym
 m,XQC,MaxCyc=120) EmpiricalDispersion=GD3BJ IOp(1/33=1)
 ----------------------------------------------------------------------

 TstMul:  Mul=     1
 TstMul:  ICh=    -1
 TstMul:  Mul=     1
 Symbolic Z-matrix:
 Charge = -1 Multiplicity = 1

 SCF Done:  E(RB-LYP) =  -599.857338776     A.U. after   18 cycles
 SCF Done:  E(RB-LYP) =  -599.862942775     A.U. after   15 cycles
 SCF Done:  E(RB-LYP) =  -599.867360798     A.U. after   15 cycles
 SCF Done:  E(RB-LYP) =  -599.869565868     A.U. after   14 cycles
 SCF Done:  E(RB-LYP) =  -599.873859759     A.U. after   13 cycles
 SCF Done:  E(RB-LYP) =  -599.892446402     A.U. after   14 cycles
 SCF Done:  E(RB-LYP) =  -599.917787564     A.U. after   13 cycles
 SCF Done:  E(RB-LYP) =  -599.922006874     A.U. after   13 cycles
 SCF Done:  E(RB-LYP) =  -599.927379180     A.U. after   13 cycles
 SCF Done:  E(RB-LYP) =  -599.929650457     A.U. after   12 cycles
 SCF Done:  E(RB-LYP) =  -599.931691509     A.U. after   11 cycles
 SCF Done:  E(RB-LYP) =  -599.932571692     A.U. after   11 cycles
 SCF Done:  E(RB-LYP) =  -599.932786132     A.U. after   10 cycles
 SCF Done:  E(RB-LYP) =  -599.932811876     A.U. after   10 cycles
 SCF Done:  E(RB-LYP) =  -599.932814113     A.U. after    7 cycles
 Optimization completed.
    -- Stationary point found.

                         Standard orientation:
 ---------------------------------------------------------------------
 Center     Atomic      Atomic             Coordinates (Angstroms)
 Number     Number       Type             X           Y           Z
 ---------------------------------------------------------------------
      1         17           0        0.000000    0.000000    1.982910
      2          6           0        0.000000    0.000000   -1.220250
      3          1           0        0.000000    1.032526   -0.842757
      4          1           0        0.894193   -0.516263   -0.842757
      5          1           0       -0.894193   -0.516263   -0.842757
      6          9           0        0.000000    0.000000   -2.651077
 ---------------------------------------------------------------------

 The electronic state is 1-A1.
 Alpha  occ. eigenvalues -- -100.39196 -24.10725  -9.81251  -8.83126  -6.65823
 Alpha  occ. eigenvalues --   -6.65773  -6.65773  -0.89139  -0.44878  -0.37892
 Alpha  occ. eigenvalues --   -0.24734  -0.23666  -0.23666  -0.11348  -0.11348
 Alpha  occ. eigenvalues --    0.03772   0.04044   0.04044
 Alpha virt. eigenvalues --    0.23753   0.26624   0.30572   0.30572   0.58176
 Alpha virt. eigenvalues --    0.65656   0.66218   0.66218   0.69822   0.69822
 Alpha virt. eigenvalues --    0.78182   0.96331   0.96331   1.04511   1.09920

 Mulliken charges:
               1
     1  Cl  -0.940554
     2  C   -0.094081
     3  H    0.133962
     4  H    0.133962
     5  H    0.133962
     6  F   -0.367251
 Sum of Mulliken charges =  -1.00000

 Dipole moment (field-independent basis, Debye):
    X=             -0.0000    Y=              0.0000    Z=             -6.3452  Tot=              6.3452
 Quadrupole moment (field-independent basis, Debye-Ang):
   XX=            -27.3571   YY=            -27.3571   ZZ=            -53.9145
   XY=             -0.0000   XZ=             -0.0000   YZ=              0.0000

 Normal termination of Gaussian 16 at Wed Oct  7 12:27:05 2020.
