 Gaussian 16, Revision A.03,
 Gaussian 16:  ES64L-G16RevA.03 25-Dec-2016

 ----------------------------------------------------------------------
 #P BLYP/6-31G* 5D 7F Integral=UltraFineGrid SCF=(NoSymm,XQC,MaxCyc=120
 ) EmpiricalDispersion=GD3BJ IOp(1/33=1) Stable=Opt
 ----------------------------------------------------------------------

 TstMul:  Mul=     2
 TstMul:  ICh=     0
 TstMul:  Mul=     2
 Symbolic Z-matrix:
 Charge =  0 Multiplicity = 2

                         Standard orientation:
 ---------------------------------------------------------------------
 Center     Atomic      Atomic             Coordinates (Angstroms)
 Number     Number       Type             X           Y           Z
 ---------------------------------------------------------------------
      1         17           0        0.000000    0.000000    0.000000
 ---------------------------------------------------------------------

 SCF Done:  E(UB-LYP) =  -460.113412932     A.U. after    8 cycles

 Unable to determine electronic state:  an orbital has unidentified symmetry.
 Alpha  occ. eigenvalues -- -100.77764  -9.21829  -7.06120  -7.03825  -7.03825
 Alpha  occ. eigenvalues --   -0.75807  -0.35282  -0.29963  -0.29963
 Alpha virt. eigenvalues --    0.29828   0.36426   0.39335   0.39335   0.72732
 Alpha virt. eigenvalues --    0.74095   0.74095   0.78661   0.78661
  Beta  occ. eigenvalues -- -100.77189  -9.21287  -7.04571  -7.03480  -7.03480
  Beta  occ. eigenvalues --   -0.71862  -0.28510  -0.28510
  Beta virt. eigenvalues --   -0.28012   0.31495   0.39987   0.39987   0.40041
  Beta virt. eigenvalues --    0.79547   0.79547   0.79733   0.79733   0.80813

 Mulliken charges and spin densities:
               1          2
     1  Cl  -0.000000   1.000000
 Sum of Mulliken charges =  -0.00000   1.00000

 Dipole moment (field-independent basis, Debye):
    X=             -0.0000    Y=             -0.0000    Z=             -0.0000  Tot=              0.0000
 Quadrupole moment (field-independent basis, Debye-Ang):
   XX=            -12.9392   YY=            -12.9387   ZZ=            -10.7513
   XY=             -0.0000   XZ=             -0.0000   YZ=              0.0352

 Normal termination of Gaussian 16 at Wed Oct  7 12:23:51 2020.
