 Gaussian 16, Revision A.03,

 ----------------------------------------------------------------------
 #P Opt(TS,MaxCyc=50,NoEigenTest,MaxStep=10,AddRedundant) BLYP/6-31G* 5
 D 7F Integral=UltraFineGrid SCF=(NoSymm,XQC,MaxCyc=120) EmpiricalDispe
 rsion=GD3BJ IOp(1/33=1)
 ----------------------------------------------------------------------

 TstMul:  Mul=     1
 TstMul:  ICh=    -1
 TstMul:  Mul=     1
 Symbolic Z-matrix:
 Charge = -1 Multiplicity = 1

 SCF Done:  E(RB-LYP) =  -239.471176953     A.U. after   13 cycles
 SCF Done:  E(RB-LYP) =  -239.471818277     A.U. after   12 cycles
 SCF Done:  E(RB-LYP) =  -239.471915486     A.U. after   11 cycles
 SCF Done:  E(RB-LYP) =  -239.471877033     A.U. after   12 cycles
 SCF Done:  E(RB-LYP) =  -239.471908766     A.U. after   12 cycles
 SCF Done:  E(RB-LYP) =  -239.471909164     A.U. after    8 cycles
 Optimization completed.
    -- Stationary point found.
 Normal termination of Gaussian 16 at Wed Oct  7 12:25:36 2020.
 Gaussian 16:  ES64L-G16RevA.03 25-Dec-2016

 ----------------------------------------------------------------------
 #P Freq BLYP/6-31G* 5D 7F Integral=UltraFineGrid SCF=(NoSymm,XQC,MaxCy
 c=120) EmpiricalDispersion=GD3BJ IOp(1/33=1) Geom=Check Guess=Read
 ----------------------------------------------------------------------

 TstMul:  Mul=     1
 TstMul:  ICh=    -1
 TstMul:  Mul=     1
 Structure from the checkpoint file:  "MN_39_fch3fts_BH76_BLYPDBJ_631Gs.chk"
 Charge = -1 Multiplicity = 1

                         Standard orientation:
 ---------------------------------------------------------------------
 Center     Atomic      Atomic             Coordinates (Angstroms)
 Number     Number       Type             X           Y           Z
 ---------------------------------------------------------------------
      1          9           0        1.851314   -0.000004   -0.000010
      2          6           0        0.000083    0.000009    0.000016
      3          1           0       -0.000029   -0.330803    1.033143
      4          1           0        0.000007    1.060128   -0.230059
      5          1           0       -0.000052   -0.729332   -0.803007
      6          9           0       -1.851361   -0.000001   -0.000009
 ---------------------------------------------------------------------

 SCF Done:  E(RB-LYP) =  -239.471909164     A.U. after    1 cycles

 The electronic state is 1-A.
 Alpha  occ. eigenvalues --  -23.89562 -23.89554  -9.73797  -0.64968  -0.64426
 Alpha  occ. eigenvalues --   -0.36531  -0.15321  -0.15320  -0.04553   0.04537
 Alpha  occ. eigenvalues --    0.04537   0.04982   0.05731   0.05731
 Alpha virt. eigenvalues --    0.27616   0.29341   0.35191   0.35191   0.74711
 Alpha virt. eigenvalues --    0.74712   0.82565   0.96785   1.05309   1.05310
 Alpha virt. eigenvalues --    1.29525   1.37994   1.37994   1.50183   1.50576

 Mulliken charges:
               1
     1  F   -0.605034
     2  C   -0.071986
     3  H    0.094047
     4  H    0.094049
     5  H    0.094051
     6  F   -0.605127
 Sum of Mulliken charges =  -1.00000

 Dipole moment (field-independent basis, Debye):
    X=              0.0012    Y=              0.0000    Z=              0.0001  Tot=              0.0012
 Quadrupole moment (field-independent basis, Debye-Ang):
   XX=            -37.9828   YY=            -17.6676   ZZ=            -17.6677
   XY=              0.0001   XZ=              0.0000   YZ=              0.0000

  Exact polarizability:  32.653   0.000  15.006   0.000  -0.000  15.006
 Approx polarizability:  75.306   0.000  20.853   0.000  -0.000  20.853

 ******    1 imaginary frequencies (negative Signs) ******

                      1                      2                      3
                      A                      A                      A
 Frequencies --   -434.4345               296.6005               296.7123
 Red. masses --      9.0641                 4.3669                 4.3673
 Frc consts  --      1.0079                 0.2263                 0.2265
 IR Inten    --    561.3132                13.6212                13.6208

                      4                      5                      6
                      A                      A                      A
 Frequencies --    331.6459               896.6887               896.7212
 Red. masses --     18.9692                 1.0209                 1.0209
 Frc consts  --      1.2293                 0.4836                 0.4836
 IR Inten    --      0.0000                 0.0000                 0.0000

                      7                      8                      9
                      A                      A                      A
 Frequencies --   1020.2110              1346.2324              1346.2979
 Red. masses --      1.1053                 1.1214                 1.1214
 Frc consts  --      0.6778                 1.1974                 1.1975
 IR Inten    --      2.2165                 1.2785                 1.2769

                     10                     11                     12
                      A                      A                      A
 Frequencies --   3053.4338              3231.2224              3231.2600
 Red. masses --      1.0079                 1.1280                 1.1280
 Frc consts  --      5.5367                 6.9388                 6.9390
 IR Inten    --      0.0000                58.0241                58.0017

 - Thermochemistry -
 -------------------
 Temperature   298.150 Kelvin.  Pressure   1.00000 Atm.
 Atom     1 has atomic number  9 and mass  18.99840

 Molecular mass:    53.02028 amu.
 Principal axes and moments of inertia in atomic units:
                           1         2         3
     Eigenvalues --    12.70579 471.42040 471.42074
           X            1.00000   0.00000   0.00000
           Y           -0.00000   1.00000  -0.00001
           Z           -0.00000   0.00001   1.00000
 This molecule is an asymmetric top.
 Rotational symmetry number  1.
 Rotational temperatures (Kelvin)      6.81688     0.18373     0.18373
 Rotational constants (GHZ):         142.04081     3.82831     3.82830
    1 imaginary frequencies ignored.
 Zero-point vibrational energy      95384.4 (Joules/Mol)
                                   22.79742 (Kcal/Mol)
 Warning -- explicit consideration of   3 degrees of freedom as
           vibrations may cause significant error
 Vibrational temperatures:    426.74   426.90   477.16  1290.13  1290.18
          (Kelvin)           1467.86  1936.93  1937.02  4393.21  4649.01
                             4649.06

 Zero-point correction=                           0.036330 (Hartree/Particle)
 Thermal correction to Energy=                    0.040555
 Thermal correction to Enthalpy=                  0.041499
 Thermal correction to Gibbs Free Energy=         0.010651
 Sum of electronic and zero-point Energies=           -239.435579
 Sum of electronic and thermal Energies=              -239.431354
 Sum of electronic and thermal Enthalpies=            -239.430410
 Sum of electronic and thermal Free Energies=         -239.461258

                     E (Thermal)             CV                S
                      KCal/Mol        Cal/Mol-Kelvin    Cal/Mol-Kelvin
 Total                   25.449             12.553             64.926
 Electronic               0.000              0.000              0.000
 Translational            0.889              2.981             37.827
 Rotational               0.889              2.981             22.561
 Vibrational             23.671              6.591              4.538
 Vibration     1          0.690              1.680              1.436
 Vibration     2          0.690              1.680              1.435
 Vibration     3          0.714              1.612              1.252

 Optimization completed.
    -- Stationary point found.
 Normal termination of Gaussian 16 at Wed Oct  7 12:26:09 2020.
