 Gaussian 16, Revision A.03,
 Gaussian 16:  ES64L-G16RevA.03 25-Dec-2016

 ----------------------------------------------------------------------
 #P Opt(MaxCyc=100) BLYP/6-31G* 5D 7F Integral=UltraFineGrid SCF=(NoSym
 m,XQC,MaxCyc=120) EmpiricalDispersion=GD3BJ IOp(1/33=1)
 ----------------------------------------------------------------------

 TstMul:  Mul=     1
 TstMul:  ICh=    -1
 TstMul:  Mul=     1
 Symbolic Z-matrix:
 Charge = -1 Multiplicity = 1

 SCF Done:  E(RB-LYP) =  -239.477517179     A.U. after   16 cycles
 SCF Done:  E(RB-LYP) =  -239.479971938     A.U. after   12 cycles
 SCF Done:  E(RB-LYP) =  -239.480954559     A.U. after   11 cycles
 SCF Done:  E(RB-LYP) =  -239.481511444     A.U. after   12 cycles
 SCF Done:  E(RB-LYP) =  -239.481602502     A.U. after   11 cycles
 SCF Done:  E(RB-LYP) =  -239.481642720     A.U. after    9 cycles
 SCF Done:  E(RB-LYP) =  -239.481644095     A.U. after    8 cycles
 Optimization completed.
    -- Stationary point found.

                         Standard orientation:
 ---------------------------------------------------------------------
 Center     Atomic      Atomic             Coordinates (Angstroms)
 Number     Number       Type             X           Y           Z
 ---------------------------------------------------------------------
      1          9           0        0.000000    0.000000   -1.825875
      2          6           0        0.000000    0.000000   -0.335964
      3          1           0       -0.000000    1.028130    0.039301
      4          1           0       -0.890386   -0.514065    0.039301
      5          1           0        0.890386   -0.514065    0.039301
      6          9           0        0.000000    0.000000    2.036751
 ---------------------------------------------------------------------

 The electronic state is 1-A1.
 Alpha  occ. eigenvalues --  -24.03504 -23.79955  -9.74712  -0.80905  -0.54549
 Alpha  occ. eigenvalues --   -0.38384  -0.17180  -0.16779  -0.16779  -0.05370
 Alpha  occ. eigenvalues --   -0.05370   0.12286   0.13334   0.13334
 Alpha virt. eigenvalues --    0.29172   0.31215   0.35928   0.35928   0.72544
 Alpha virt. eigenvalues --    0.72544   0.73709   1.01836   1.01836   1.05665
 Alpha virt. eigenvalues --    1.20249   1.39224   1.39224   1.39900   1.53328

 Mulliken charges:
               1
     1  F   -0.415623
     2  C   -0.127950
     3  H    0.098137
     4  H    0.098137
     5  H    0.098137
     6  F   -0.750837
 Sum of Mulliken charges =  -1.00000

 Dipole moment (field-independent basis, Debye):
    X=             -0.0000    Y=              0.0000    Z=             -4.5020  Tot=              4.5020
 Quadrupole moment (field-independent basis, Debye-Ang):
   XX=            -17.9889   YY=            -17.9889   ZZ=            -39.3433
   XY=              0.0000   XZ=              0.0000   YZ=             -0.0000

 Normal termination of Gaussian 16 at Wed Oct  7 12:25:29 2020.
