 Gaussian 16, Revision A.03,
 Gaussian 16:  ES64L-G16RevA.03 25-Dec-2016

 ----------------------------------------------------------------------
 #P Opt(MaxCyc=100) BLYP/6-31G* 5D 7F Integral=UltraFineGrid SCF=(NoSym
 m,XQC,MaxCyc=120) EmpiricalDispersion=GD3BJ IOp(1/33=1)
 ----------------------------------------------------------------------

 TstMul:  Mul=     1
 TstMul:  ICh=    -1
 TstMul:  Mul=     1
 Symbolic Z-matrix:
 Charge = -1 Multiplicity = 1

 SCF Done:  E(RB-LYP) =  -599.931821679     A.U. after   12 cycles
 SCF Done:  E(RB-LYP) =  -599.932767115     A.U. after   11 cycles
 SCF Done:  E(RB-LYP) =  -599.932792978     A.U. after    8 cycles
 SCF Done:  E(RB-LYP) =  -599.932808118     A.U. after    9 cycles
 SCF Done:  E(RB-LYP) =  -599.932813670     A.U. after    9 cycles
 SCF Done:  E(RB-LYP) =  -599.932814035     A.U. after    6 cycles
 Optimization completed.
    -- Stationary point found.

                         Standard orientation:
 ---------------------------------------------------------------------
 Center     Atomic      Atomic             Coordinates (Angstroms)
 Number     Number       Type             X           Y           Z
 ---------------------------------------------------------------------
      1          9           0        0.000000    0.000000   -2.651233
      2          6           0        0.000000    0.000000   -1.220746
      3          1           0       -0.000000    1.032472   -0.842779
      4          1           0       -0.894147   -0.516236   -0.842779
      5          1           0        0.894147   -0.516236   -0.842779
      6         17           0        0.000000    0.000000    1.983171
 ---------------------------------------------------------------------

 The electronic state is 1-A1.
 Alpha  occ. eigenvalues -- -100.39195 -24.10737  -9.81255  -8.83125  -6.65822
 Alpha  occ. eigenvalues --   -6.65771  -6.65771  -0.89158  -0.44878  -0.37890
 Alpha  occ. eigenvalues --   -0.24750  -0.23670  -0.23670  -0.11352  -0.11352
 Alpha  occ. eigenvalues --    0.03774   0.04046   0.04046
 Alpha virt. eigenvalues --    0.23761   0.26625   0.30570   0.30570   0.58177
 Alpha virt. eigenvalues --    0.65652   0.66220   0.66220   0.69821   0.69821
 Alpha virt. eigenvalues --    0.78176   0.96320   0.96320   1.04516   1.09929

 Mulliken charges:
               1
     1  F   -0.367022
     2  C   -0.094160
     3  H    0.133926
     4  H    0.133926
     5  H    0.133926
     6  Cl  -0.940596
 Sum of Mulliken charges =  -1.00000

 Dipole moment (field-independent basis, Debye):
    X=             -0.0000    Y=             -0.0000    Z=             -6.3486  Tot=              6.3486
 Quadrupole moment (field-independent basis, Debye-Ang):
   XX=            -27.3583   YY=            -27.3583   ZZ=            -53.9137
   XY=             -0.0000   XZ=              0.0000   YZ=             -0.0000

 Normal termination of Gaussian 16 at Wed Oct  7 12:26:58 2020.
