 Gaussian 16, Revision A.03,

 ----------------------------------------------------------------------
 #P Opt(TS,MaxCyc=50,NoEigenTest,MaxStep=10,AddRedundant) BLYP/6-31G* 5
 D 7F Integral=UltraFineGrid SCF=(NoSymm,XQC,MaxCyc=120) EmpiricalDispe
 rsion=GD3BJ IOp(1/33=1)
 ----------------------------------------------------------------------

 TstMul:  Mul=     2
 TstMul:  ICh=     0
 TstMul:  Mul=     2
 Symbolic Z-matrix:
 Charge =  0 Multiplicity = 2

 SCF Done:  E(UB-LYP) =  -461.246893879     A.U. after   10 cycles
 SCF Done:  E(UB-LYP) =  -461.247443829     A.U. after    9 cycles
 SCF Done:  E(UB-LYP) =  -461.247505922     A.U. after    9 cycles
 SCF Done:  E(UB-LYP) =  -461.247506615     A.U. after    6 cycles
 Optimization completed.
    -- Stationary point found.
 Normal termination of Gaussian 16 at Wed Oct  7 12:25:15 2020.
 Gaussian 16:  ES64L-G16RevA.03 25-Dec-2016

 ----------------------------------------------------------------------
 #P Freq BLYP/6-31G* 5D 7F Integral=UltraFineGrid SCF=(NoSymm,XQC,MaxCy
 c=120) EmpiricalDispersion=GD3BJ IOp(1/33=1) Geom=Check Guess=Read
 ----------------------------------------------------------------------

 TstMul:  Mul=     2
 TstMul:  ICh=     0
 TstMul:  Mul=     2
 Structure from the checkpoint file:  "MN_45_hclhts_BH76_BLYPDBJ_631Gs.chk"
 Charge =  0 Multiplicity = 2

                         Standard orientation:
 ---------------------------------------------------------------------
 Center     Atomic      Atomic             Coordinates (Angstroms)
 Number     Number       Type             X           Y           Z
 ---------------------------------------------------------------------
      1          1           0        0.000000    0.000000    1.523679
      2         17           0        0.000000    0.000000    0.000000
      3          1           0        0.000000    0.000000   -1.523679
 ---------------------------------------------------------------------

 SCF Done:  E(UB-LYP) =  -461.247506615     A.U. after    1 cycles

 The electronic state is 2-SGG.
 Alpha  occ. eigenvalues -- -100.74969  -9.19268  -7.02789  -7.01443  -7.01443
 Alpha  occ. eigenvalues --   -0.76190  -0.47296  -0.28843  -0.28843  -0.22108
 Alpha virt. eigenvalues --   -0.01139   0.36361   0.39484   0.39484   0.58024
 Alpha virt. eigenvalues --    0.59793   0.65469   0.77307   0.77307   0.80001
 Alpha virt. eigenvalues --    0.80001   0.99442
  Beta  occ. eigenvalues -- -100.74922  -9.19204  -7.02855  -7.01344  -7.01344
  Beta  occ. eigenvalues --   -0.75580  -0.44106  -0.28438  -0.28438
  Beta virt. eigenvalues --   -0.14100   0.03876   0.36376   0.39746   0.39746
  Beta virt. eigenvalues --    0.58567   0.65031   0.74673   0.76867   0.76867
  Beta virt. eigenvalues --    0.80895   0.80895   1.03732

 Mulliken charges and spin densities:
               1          2
     1  H    0.116349   0.539380
     2  Cl  -0.232698  -0.078760
     3  H    0.116349   0.539380
 Sum of Mulliken charges =   0.00000   1.00000

 Dipole moment (field-independent basis, Debye):
    X=              0.0000    Y=             -0.0000    Z=              0.0000  Tot=              0.0000
 Quadrupole moment (field-independent basis, Debye-Ang):
   XX=            -15.1782   YY=            -15.1782   ZZ=            -11.7464
   XY=             -0.0000   XZ=             -0.0000   YZ=              0.0000

  Exact polarizability:   6.367   0.000   6.367   0.000  -0.000  37.546
 Approx polarizability:   8.770   0.000   8.770   0.000  -0.000  78.395

 ******    3 imaginary frequencies (negative Signs) ******

                      1                      2                      3
                     SGU                    PIU                    PIU
 Frequencies --  -1055.6293               -57.3230               -57.3230
 Red. masses --      1.0641                 1.0641                 1.0641
 Frc consts  --      0.6987                 0.0021                 0.0021
 IR Inten    --    674.9488                41.2220                41.2220

                      4
                     SGG
 Frequencies --   1712.9337
 Red. masses --      1.0078
 Frc consts  --      1.7423
 IR Inten    --      0.0000

 - Thermochemistry -
 -------------------
 Temperature   298.150 Kelvin.  Pressure   1.00000 Atm.
 Atom     1 has atomic number  1 and mass   1.00783

 Molecular mass:    36.98450 amu.
 Principal axes and moments of inertia in atomic units:
                           1         2         3
     Eigenvalues --     0.00000  16.71091  16.71091
           X           -0.00000   1.00000   0.00000
           Y            0.00000   0.00000   1.00000
           Z            1.00000   0.00000   0.00000
 This molecule is a prolate symmetric top.
 Rotational symmetry number  2.
 Rotational temperature (Kelvin)      5.18308
 Rotational constant (GHZ):         107.997797
    3 imaginary frequencies ignored.
 Zero-point vibrational energy      10245.6 (Joules/Mol)
                                    2.44876 (Kcal/Mol)
 Vibrational temperatures:   2464.53
          (Kelvin)

 Zero-point correction=                           0.003902 (Hartree/Particle)
 Thermal correction to Energy=                    0.006265
 Thermal correction to Enthalpy=                  0.007209
 Thermal correction to Gibbs Free Energy=        -0.015026
 Sum of electronic and zero-point Energies=           -461.243604
 Sum of electronic and thermal Energies=              -461.241242
 Sum of electronic and thermal Enthalpies=            -461.240298
 Sum of electronic and thermal Free Energies=         -461.262533

                     E (Thermal)             CV                S
                      KCal/Mol        Cal/Mol-Kelvin    Cal/Mol-Kelvin
 Total                    3.931              5.003             46.798
 Electronic               0.000              0.000              1.377
 Translational            0.889              2.981             36.753
 Rotational               0.592              1.987              8.662
 Vibrational              2.450              0.035              0.005

 Optimization completed.
    -- Stationary point found.

 1\1\GINC-NODE62\Freq\UBLYP\6-31G(d)\Cl1H2(2)\RPEVERATI\07-Oct-2020\0\\
 #P Freq BLYP/6-31G* 5D 7F Integral=UltraFineGrid SCF=(NoSymm,XQC,MaxCy
 c=120) EmpiricalDispersion=GD3BJ IOp(1/33=1) Geom=Check Guess=Read\\TS
  search on BH76.\\0,2\H,0.,0.,1.5236793497\Cl,0.,0.,0.\H,0.,0.,-1.5236
 793497\\Version=ES64L-G16RevA.03\State=2-SGG\HF=-461.2475066\S2=0.7600
 27\S2-1=0.\S2A=0.750005\RMSD=5.186e-10\RMSF=4.256e-06\ZeroPoint=0.0039
 024\Thermal=0.0062648\Dipole=0.,0.,0.\DipoleDeriv=0.1419375,0.,0.,0.,0
 .1419375,0.,0.,0.,-0.5743388,-0.283875,0.,0.,0.,-0.283875,0.,0.,0.,1.1

 Normal termination of Gaussian 16 at Wed Oct  7 12:25:42 2020.
