 Gaussian 16, Revision A.03,
 Gaussian 16:  ES64L-G16RevA.03 25-Dec-2016

 ----------------------------------------------------------------------
 #P Opt(MaxCyc=100) BLYP/6-31G* 5D 7F Integral=UltraFineGrid SCF=(NoSym
 m,XQC,MaxCyc=120) EmpiricalDispersion=GD3BJ IOp(1/33=1)
 ----------------------------------------------------------------------

 TstMul:  Mul=     1
 TstMul:  ICh=     0
 TstMul:  Mul=     1
 Symbolic Z-matrix:
 Charge =  0 Multiplicity = 1

 SCF Done:  E(RB-LYP) =  -93.3974350190     A.U. after   10 cycles
 SCF Done:  E(RB-LYP) =  -93.3980756013     A.U. after    9 cycles
 SCF Done:  E(RB-LYP) =  -93.3980776749     A.U. after    7 cycles
 Optimization completed.
    -- Stationary point found.

                         Standard orientation:
 ---------------------------------------------------------------------
 Center     Atomic      Atomic             Coordinates (Angstroms)
 Number     Number       Type             X           Y           Z
 ---------------------------------------------------------------------
      1          6           0        0.000000    0.000000   -0.507543
      2          7           0        0.000000    0.000000    0.661429
      3          1           0        0.000000    0.000000   -1.584744
 ---------------------------------------------------------------------

 The electronic state is 1-SG.
 Alpha  occ. eigenvalues --  -14.04805  -9.97483  -0.82148  -0.54283  -0.31725
 Alpha  occ. eigenvalues --   -0.30730  -0.30730
 Alpha virt. eigenvalues --   -0.01270  -0.01270   0.05252   0.25571   0.48188
 Alpha virt. eigenvalues --    0.48188   0.60849   0.65029   0.72054   0.72054
 Alpha virt. eigenvalues --    0.77299   1.00568   1.42731   1.45883   1.45883

 Mulliken charges:
               1
     1  C    0.021787
     2  N   -0.238425
     3  H    0.216638
 Sum of Mulliken charges =   0.00000

 Dipole moment (field-independent basis, Debye):
    X=              0.0000    Y=             -0.0000    Z=             -2.7908  Tot=              2.7908
 Quadrupole moment (field-independent basis, Debye-Ang):
   XX=            -11.3721   YY=            -11.3721   ZZ=             -9.6115
   XY=              0.0000   XZ=              0.0000   YZ=              0.0000

 Normal termination of Gaussian 16 at Wed Oct  7 12:25:03 2020.
