 Gaussian 16, Revision A.03,
 Gaussian 16:  ES64L-G16RevA.03 25-Dec-2016

 ----------------------------------------------------------------------
 #P BLYP/6-31G* 5D 7F Integral=UltraFineGrid SCF=(NoSymm,XQC,MaxCyc=120
 ) EmpiricalDispersion=GD3BJ IOp(1/33=1) Stable=Opt
 ----------------------------------------------------------------------

 TstMul:  Mul=     2
 TstMul:  ICh=     0
 TstMul:  Mul=     2
 Symbolic Z-matrix:
 Charge =  0 Multiplicity = 2

                         Standard orientation:
 ---------------------------------------------------------------------
 Center     Atomic      Atomic             Coordinates (Angstroms)
 Number     Number       Type             X           Y           Z
 ---------------------------------------------------------------------
      1          9           0        0.000000    0.000000    0.000000
 ---------------------------------------------------------------------

 SCF Done:  E(UB-LYP) =  -99.7012671045     A.U. after    9 cycles

 Unable to determine electronic state:  an orbital has unidentified symmetry.
 Alpha  occ. eigenvalues --  -24.37166  -1.07932  -0.44941  -0.36223  -0.36223
 Alpha virt. eigenvalues --    1.01934   1.07513   1.07513   1.22651   1.71150
 Alpha virt. eigenvalues --    1.72636   1.72636   1.77395   1.77395
  Beta  occ. eigenvalues --  -24.34440  -1.00954  -0.33387  -0.33387
  Beta virt. eigenvalues --   -0.30498   1.09319   1.09319   1.11858   1.27286
  Beta virt. eigenvalues --    1.78068   1.78068   1.78174   1.78174   1.79242

 Mulliken charges and spin densities:
               1          2
     1  F   -0.000000   1.000000
 Sum of Mulliken charges =  -0.00000   1.00000

 Dipole moment (field-independent basis, Debye):
    X=              0.0000    Y=             -0.0000    Z=              0.0000  Tot=              0.0000
 Quadrupole moment (field-independent basis, Debye-Ang):
   XX=             -4.7002   YY=             -4.7002   ZZ=             -3.8967
   XY=             -0.0000   XZ=             -0.0000   YZ=              0.0055

 Normal termination of Gaussian 16 at Wed Oct  7 12:24:10 2020.
