 Gaussian 16, Revision A.03,
 Gaussian 16:  ES64L-G16RevA.03 25-Dec-2016

 ----------------------------------------------------------------------
 #P Opt(MaxCyc=100) BLYP/6-31G* 5D 7F Integral=UltraFineGrid SCF=(NoSym
 m,XQC,MaxCyc=120) EmpiricalDispersion=GD3BJ IOp(1/33=1)
 ----------------------------------------------------------------------

 TstMul:  Mul=     1
 TstMul:  ICh=     0
 TstMul:  Mul=     1
 Symbolic Z-matrix:
 Charge =  0 Multiplicity = 1

 SCF Done:  E(RB-LYP) =  -460.768256018     A.U. after   10 cycles
 SCF Done:  E(RB-LYP) =  -460.768658956     A.U. after    9 cycles
 Optimization completed.
    -- Stationary point found.

                         Standard orientation:
 ---------------------------------------------------------------------
 Center     Atomic      Atomic             Coordinates (Angstroms)
 Number     Number       Type             X           Y           Z
 ---------------------------------------------------------------------
      1         17           0        0.000000    0.000000    0.072274
      2          1           0        0.000000    0.000000   -1.228658
 ---------------------------------------------------------------------

 The electronic state is 1-SG.
 Alpha  occ. eigenvalues -- -100.73551  -9.18137  -7.01538  -7.00316  -7.00316
 Alpha  occ. eigenvalues --   -0.76440  -0.42269  -0.27992  -0.27992
 Alpha virt. eigenvalues --   -0.01942   0.34825   0.37570   0.40383   0.40383
 Alpha virt. eigenvalues --    0.63700   0.77920   0.77920   0.81060   0.81060
 Alpha virt. eigenvalues --    1.09944

 Mulliken charges:
               1
     1  Cl  -0.216153
     2  H    0.216153
 Sum of Mulliken charges =  -0.00000

 Dipole moment (field-independent basis, Debye):
    X=              0.0000    Y=              0.0000    Z=             -1.4377  Tot=              1.4377
 Quadrupole moment (field-independent basis, Debye-Ang):
   XX=            -13.9041   YY=            -13.9041   ZZ=            -10.3564
   XY=             -0.0000   XZ=              0.0000   YZ=              0.0000

 Normal termination of Gaussian 16 at Wed Oct  7 12:24:58 2020.
