 Gaussian 16, Revision A.03,

 ----------------------------------------------------------------------
 #P Opt(TS,MaxCyc=50,NoEigenTest,MaxStep=10,AddRedundant) BLYP/6-31G* 5
 D 7F Integral=UltraFineGrid SCF=(NoSymm,XQC,MaxCyc=120) EmpiricalDispe
 rsion=GD3BJ IOp(1/33=1)
 ----------------------------------------------------------------------

 TstMul:  Mul=     1
 TstMul:  ICh=     0
 TstMul:  Mul=     1
 Symbolic Z-matrix:
 Charge =  0 Multiplicity = 1

 SCF Done:  E(RB-LYP) =  -93.3191736782     A.U. after   12 cycles
 SCF Done:  E(RB-LYP) =  -93.3192401028     A.U. after   11 cycles
 SCF Done:  E(RB-LYP) =  -93.3192100017     A.U. after   11 cycles
 SCF Done:  E(RB-LYP) =  -93.3191997521     A.U. after    8 cycles
 Optimization completed.
    -- Stationary point found.
 Normal termination of Gaussian 16 at Wed Oct  7 12:25:31 2020.
 Gaussian 16:  ES64L-G16RevA.03 25-Dec-2016

 ----------------------------------------------------------------------
 #P Freq BLYP/6-31G* 5D 7F Integral=UltraFineGrid SCF=(NoSymm,XQC,MaxCy
 c=120) EmpiricalDispersion=GD3BJ IOp(1/33=1) Geom=Check Guess=Read
 ----------------------------------------------------------------------

 TstMul:  Mul=     1
 TstMul:  ICh=     0
 TstMul:  Mul=     1
 Structure from the checkpoint file:  "MN_49_hcnts_BH76_BLYPDBJ_631Gs.chk"
 Charge =  0 Multiplicity = 1

                         Standard orientation:
 ---------------------------------------------------------------------
 Center     Atomic      Atomic             Coordinates (Angstroms)
 Number     Number       Type             X           Y           Z
 ---------------------------------------------------------------------
      1          6           0        0.080814    0.634893    0.000000
      2          7           0        0.080814   -0.570299    0.000000
      3          1           0       -1.050585    0.182741    0.000000
 ---------------------------------------------------------------------

 SCF Done:  E(RB-LYP) =  -93.3191997521     A.U. after    1 cycles

 The electronic state is 1-A'.
 Alpha  occ. eigenvalues --  -14.09199  -9.98324  -0.89138  -0.46209  -0.39385
 Alpha  occ. eigenvalues --   -0.33005  -0.27775
 Alpha virt. eigenvalues --   -0.08411  -0.02453   0.02507   0.29374   0.48678
 Alpha virt. eigenvalues --    0.49242   0.52610   0.62498   0.64907   0.68953
 Alpha virt. eigenvalues --    0.72373   0.76959   1.20214   1.42303   1.43373

 Mulliken charges:
               1
     1  C   -0.036871
     2  N   -0.209668
     3  H    0.246539
 Sum of Mulliken charges =  -0.00000

 Dipole moment (field-independent basis, Debye):
    X=             -1.2018    Y=              0.0632    Z=              0.0000  Tot=              1.2035
 Quadrupole moment (field-independent basis, Debye-Ang):
   XX=             -9.4965   YY=            -14.1213   ZZ=            -11.7799
   XY=             -0.1880   XZ=              0.0000   YZ=              0.0000

  Exact polarizability:  13.276   0.386  17.492  -0.000   0.000   8.654
 Approx polarizability:  23.712   1.952  44.246  -0.000  -0.000  13.836

 ******    1 imaginary frequencies (negative Signs) ******

                      1                      2                      3
                     A'                     A'                     A'
 Frequencies --  -1110.1738              1964.8388              2461.1610
 Red. masses --      1.1649                11.7679                 1.0581
 Frc consts  --      0.8459                26.7672                 3.7761
 IR Inten    --     54.8202                11.2509                91.1506

 - Thermochemistry -
 -------------------
 Temperature   298.150 Kelvin.  Pressure   1.00000 Atm.
 Atom     1 has atomic number  6 and mass  12.00000

 Molecular mass:    27.01090 amu.
 Principal axes and moments of inertia in atomic units:
                           1         2         3
     Eigenvalues --     4.41470  33.67357  38.08827
           X           -0.02638   0.99965   0.00000
           Y            0.99965   0.02638   0.00000
           Z            0.00000   0.00000   1.00000
 This molecule is an asymmetric top.
 Rotational symmetry number  1.
 Rotational temperatures (Kelvin)     19.61944     2.57216     2.27403
 Rotational constants (GHZ):         408.80275    53.59518    47.38312
    1 imaginary frequencies ignored.
 Zero-point vibrational energy      26473.4 (Joules/Mol)
                                    6.32728 (Kcal/Mol)
 Vibrational temperatures:   2826.96  3541.06
          (Kelvin)

 Zero-point correction=                           0.010083 (Hartree/Particle)
 Thermal correction to Energy=                    0.012916
 Thermal correction to Enthalpy=                  0.013861
 Thermal correction to Gibbs Free Energy=        -0.010945
 Sum of electronic and zero-point Energies=            -93.309117
 Sum of electronic and thermal Energies=               -93.306283
 Sum of electronic and thermal Enthalpies=             -93.305339
 Sum of electronic and thermal Free Energies=          -93.330144

                     E (Thermal)             CV                S
                      KCal/Mol        Cal/Mol-Kelvin    Cal/Mol-Kelvin
 Total                    8.105              5.977             52.207
 Electronic               0.000              0.000              0.000
 Translational            0.889              2.981             35.816
 Rotational               0.889              2.981             16.389
 Vibrational              6.328              0.016              0.002

                           ! Non-Optimized Parameters !
 Normal termination of Gaussian 16 at Wed Oct  7 12:26:00 2020.
