 Gaussian 16, Revision A.03,

 ----------------------------------------------------------------------
 #P Opt(TS,MaxCyc=50,NoEigenTest,MaxStep=10,AddRedundant) BLYP/6-31G* 5
 D 7F Integral=UltraFineGrid SCF=(NoSymm,XQC,MaxCyc=120) EmpiricalDispe
 rsion=GD3BJ IOp(1/33=1)
 ----------------------------------------------------------------------

 TstMul:  Mul=     2
 TstMul:  ICh=     0
 TstMul:  Mul=     2
 Symbolic Z-matrix:
 Charge =  0 Multiplicity = 2

 SCF Done:  E(UB-LYP) =  -109.995003447     A.U. after   15 cycles
 SCF Done:  E(UB-LYP) =  -109.995937054     A.U. after   13 cycles
 SCF Done:  E(UB-LYP) =  -109.995895939     A.U. after   10 cycles
 SCF Done:  E(UB-LYP) =  -109.995784155     A.U. after   11 cycles
 SCF Done:  E(UB-LYP) =  -109.995775893     A.U. after   10 cycles
 SCF Done:  E(UB-LYP) =  -109.995268980     A.U. after   14 cycles
 SCF Done:  E(UB-LYP) =  -109.995151068     A.U. after   13 cycles
 SCF Done:  E(UB-LYP) =  -109.995150406     A.U. after   10 cycles
 Optimization completed.
    -- Stationary point found.
 Normal termination of Gaussian 16 at Wed Oct  7 12:26:50 2020.
 Gaussian 16:  ES64L-G16RevA.03 25-Dec-2016

 ----------------------------------------------------------------------
 #P Freq BLYP/6-31G* 5D 7F Integral=UltraFineGrid SCF=(NoSymm,XQC,MaxCy
 c=120) EmpiricalDispersion=GD3BJ IOp(1/33=1) Geom=Check Guess=Read
 ----------------------------------------------------------------------

 TstMul:  Mul=     2
 TstMul:  ICh=     0
 TstMul:  Mul=     2
 Structure from the checkpoint file:  "MN_59_hn2ts_BH76_BLYPDBJ_631Gs.chk"
 Charge =  0 Multiplicity = 2

                         Standard orientation:
 ---------------------------------------------------------------------
 Center     Atomic      Atomic             Coordinates (Angstroms)
 Number     Number       Type             X           Y           Z
 ---------------------------------------------------------------------
      1          7           0        0.090951   -0.657272    0.000000
      2          7           0        0.090951    0.478584    0.000000
      3          1           0       -1.273319    1.250816    0.000000
 ---------------------------------------------------------------------

 SCF Done:  E(UB-LYP) =  -109.995150406     A.U. after    1 cycles

 The electronic state is 2-A'.
 Alpha  occ. eigenvalues --  -14.13418 -14.12064  -1.00448  -0.51488  -0.42195
 Alpha  occ. eigenvalues --   -0.39978  -0.37198  -0.20501
 Alpha virt. eigenvalues --   -0.07174  -0.04012   0.36976   0.55432   0.56739
 Alpha virt. eigenvalues --    0.58001   0.60403   0.69508   0.71137   0.73935
 Alpha virt. eigenvalues --    0.86705   1.23209   1.40590   1.42055   1.46486

  Beta  occ. eigenvalues --  -14.13296 -14.11517  -0.99891  -0.49899  -0.40301
  Beta  occ. eigenvalues --   -0.39596  -0.35949
  Beta virt. eigenvalues --   -0.12392  -0.06618  -0.00524   0.37425   0.56621
  Beta virt. eigenvalues --    0.56887   0.60361   0.64965   0.69823   0.71727
  Beta virt. eigenvalues --    0.77842   0.90220   1.24177   1.41373   1.43104

 Mulliken charges and spin densities:
               1          2
     1  N    0.000931   0.272595
     2  N   -0.057816   0.002561
     3  H    0.056885   0.724844
 Sum of Mulliken charges =   0.00000   1.00000

 Dipole moment (field-independent basis, Debye):
    X=             -0.2571    Y=              0.2819    Z=              0.0000  Tot=              0.3816
 Quadrupole moment (field-independent basis, Debye-Ang):
   XX=            -11.3800   YY=            -12.7068   ZZ=            -11.2223
   XY=             -0.1648   XZ=              0.0000   YZ=              0.0000

  Exact polarizability:  15.385  -7.407  20.161  -0.000   0.000   6.123
 Approx polarizability:  26.717 -15.555  51.092  -0.000   0.000   9.730

 ******    1 imaginary frequencies (negative Signs) ******

                      1                      2                      3
                     A'                     A'                     A'
 Frequencies --   -924.7004               633.3537              2138.1448
 Red. masses --      1.0883                 1.3790                10.3400
 Frc consts  --      0.5483                 0.3259                27.8512
 IR Inten    --    182.8722                 2.3909                60.6495

 - Thermochemistry -
 -------------------
 Temperature   298.150 Kelvin.  Pressure   1.00000 Atm.
 Atom     1 has atomic number  7 and mass  14.00307

 Molecular mass:    29.01397 amu.
 Principal axes and moments of inertia in atomic units:
                           1         2         3
     Eigenvalues --     5.25240  39.71091  44.96331
           X           -0.18766   0.98223   0.00000
           Y            0.98223   0.18766   0.00000
           Z            0.00000   0.00000   1.00000
 This molecule is an asymmetric top.
 Rotational symmetry number  1.
 Rotational temperatures (Kelvin)     16.49035     2.18111     1.92632
 Rotational constants (GHZ):         343.60315    45.44699    40.13809
    1 imaginary frequencies ignored.
 Zero-point vibrational energy      16577.2 (Joules/Mol)
                                    3.96206 (Kcal/Mol)
 Vibrational temperatures:    911.25  3076.31
          (Kelvin)

 Zero-point correction=                           0.006314 (Hartree/Particle)
 Thermal correction to Energy=                    0.009289
 Thermal correction to Enthalpy=                  0.010234
 Thermal correction to Gibbs Free Energy=        -0.015753
 Sum of electronic and zero-point Energies=           -109.988836
 Sum of electronic and thermal Energies=              -109.985861
 Sum of electronic and thermal Enthalpies=            -109.984917
 Sum of electronic and thermal Free Energies=         -110.010904

                     E (Thermal)             CV                S
                      KCal/Mol        Cal/Mol-Kelvin    Cal/Mol-Kelvin
 Total                    5.829              6.931             54.694
 Electronic               0.000              0.000              1.377
 Translational            0.889              2.981             36.030
 Rotational               0.889              2.981             16.891
 Vibrational              4.052              0.969              0.396

 Optimization completed.
    -- Stationary point found.
 Normal termination of Gaussian 16 at Wed Oct  7 12:27:24 2020.
