 Gaussian 16, Revision A.03,

 ----------------------------------------------------------------------
 #P Opt(TS,MaxCyc=50,NoEigenTest,MaxStep=10,AddRedundant) BLYP/6-31G* 5
 D 7F Integral=UltraFineGrid SCF=(NoSymm,XQC,MaxCyc=120) EmpiricalDispe
 rsion=GD3BJ IOp(1/33=1)
 ----------------------------------------------------------------------

 TstMul:  Mul=     2
 TstMul:  ICh=     0
 TstMul:  Mul=     2
 Symbolic Z-matrix:
 Charge =  0 Multiplicity = 2

 SCF Done:  E(UB-LYP) =  -113.790820091     A.U. after   14 cycles
 SCF Done:  E(UB-LYP) =  -113.791128389     A.U. after   11 cycles
 SCF Done:  E(UB-LYP) =  -113.790869651     A.U. after   12 cycles
 SCF Done:  E(UB-LYP) =  -113.790487174     A.U. after   13 cycles
 SCF Done:  E(UB-LYP) =  -113.790122763     A.U. after   13 cycles
 SCF Done:  E(UB-LYP) =  -113.789765388     A.U. after   13 cycles
 SCF Done:  E(UB-LYP) =  -113.789440769     A.U. after   13 cycles
 SCF Done:  E(UB-LYP) =  -113.789163245     A.U. after   12 cycles
 SCF Done:  E(UB-LYP) =  -113.788937141     A.U. after   12 cycles
 SCF Done:  E(UB-LYP) =  -113.788759928     A.U. after   11 cycles
 SCF Done:  E(UB-LYP) =  -113.788625024     A.U. after   11 cycles
 SCF Done:  E(UB-LYP) =  -113.788523894     A.U. after   12 cycles
 SCF Done:  E(UB-LYP) =  -113.788447958     A.U. after   12 cycles
 SCF Done:  E(UB-LYP) =  -113.788389809     A.U. after   12 cycles
 SCF Done:  E(UB-LYP) =  -113.788343404     A.U. after   12 cycles
 SCF Done:  E(UB-LYP) =  -113.788303998     A.U. after   12 cycles
 SCF Done:  E(UB-LYP) =  -113.788268161     A.U. after   12 cycles
 SCF Done:  E(UB-LYP) =  -113.788233550     A.U. after   12 cycles
 SCF Done:  E(UB-LYP) =  -113.788233452     A.U. after    8 cycles
 Optimization completed.
    -- Stationary point found.

 1\1\GINC-NODE20\FTS\UBLYP\6-31G(d)\C1H1O1(2)\RPEVERATI\07-Oct-2020\0\\
 #P Opt(TS,MaxCyc=50,NoEigenTest,MaxStep=10,AddRedundant) BLYP/6-31G* 5
 D 7F Integral=UltraFineGrid SCF=(NoSymm,XQC,MaxCyc=120) EmpiricalDispe
 rsion=GD3BJ IOp(1/33=1)\\TS search on BH76.\\0,2\C,-0.2335928447,0.,0.
 1495275836\O,-0.1856100103,0.,1.2991765953\H,2.0954724542,0.,-1.093543
 4887\\Version=ES64L-G16RevA.03\State=2-A'\HF=-113.7882335\S2=0.75052\S
 2-1=0.\S2A=0.75\RMSD=4.304e-09\RMSF=1.640e-04\Dipole=0.0119612,0.,0.04
 72665\Quadrupole=0.5030534,0.4682656,-0.9713191,0.,-0.127543,0.\PG=CS

 Normal termination of Gaussian 16 at Wed Oct  7 12:28:39 2020.
 Gaussian 16:  ES64L-G16RevA.03 25-Dec-2016

 ----------------------------------------------------------------------
 #P Freq BLYP/6-31G* 5D 7F Integral=UltraFineGrid SCF=(NoSymm,XQC,MaxCy
 c=120) EmpiricalDispersion=GD3BJ IOp(1/33=1) Geom=Check Guess=Read
 ----------------------------------------------------------------------

 TstMul:  Mul=     2
 TstMul:  ICh=     0
 TstMul:  Mul=     2
 Structure from the checkpoint file:  "MN_51_hcots_BH76_BLYPDBJ_631Gs.chk"
 Charge =  0 Multiplicity = 2

                         Standard orientation:
 ---------------------------------------------------------------------
 Center     Atomic      Atomic             Coordinates (Angstroms)
 Number     Number       Type             X           Y           Z
 ---------------------------------------------------------------------
      1          6           0        0.158592    0.537356   -0.000000
      2          8           0        0.158592   -0.613294    0.000000
      3          1           0       -2.220284    1.682222   -0.000000
 ---------------------------------------------------------------------

 SCF Done:  E(UB-LYP) =  -113.788233452     A.U. after    1 cycles

 The electronic state is 2-A'.
 Alpha  occ. eigenvalues --  -18.89700 -10.03300  -1.04529  -0.49615  -0.40643
 Alpha  occ. eigenvalues --   -0.40570  -0.31959  -0.25581
 Alpha virt. eigenvalues --   -0.05687  -0.05163   0.23828   0.47441   0.48704
 Alpha virt. eigenvalues --    0.54654   0.67761   0.74197   0.78667   0.86110
 Alpha virt. eigenvalues --    0.87235   1.43214   1.43448   1.45529   1.47467

  Beta  occ. eigenvalues --  -18.89668 -10.03255  -1.04476  -0.49558  -0.40535
  Beta  occ. eigenvalues --   -0.40518  -0.31360
  Beta virt. eigenvalues --   -0.09785  -0.05633  -0.03336   0.23662   0.47350
  Beta virt. eigenvalues --    0.49136   0.56488   0.67971   0.78314   0.86103
  Beta virt. eigenvalues --    0.86281   0.93989   1.43287   1.43578   1.45505

 Mulliken charges and spin densities:
               1          2
     1  C    0.126568   0.013960
     2  O   -0.127375   0.013002
     3  H    0.000807   0.973038
 Sum of Mulliken charges =  -0.00000   1.00000

 Dipole moment (field-independent basis, Debye):
    X=             -0.0254    Y=             -0.1213    Z=             -0.0000  Tot=              0.1239
 Quadrupole moment (field-independent basis, Debye-Ang):
   XX=            -11.0833   YY=            -13.0880   ZZ=            -11.1409
   XY=             -0.0883   XZ=             -0.0000   YZ=              0.0000

  Exact polarizability:  12.975  -2.652  14.316   0.000  -0.000   8.014
 Approx polarizability:  19.197  -2.953  31.397  -0.000   0.000  13.275

                      1                      2                      3
                     A'                     A'                     A'
 Frequencies --     33.2888               114.4563              2100.6576
 Red. masses --      1.0732                 1.7946                13.4371
 Frc consts  --      0.0007                 0.0139                34.9353
 IR Inten    --      0.1203                 0.3043                66.4144

 - Thermochemistry -
 -------------------
 Temperature   298.150 Kelvin.  Pressure   1.00000 Atm.
 Atom     1 has atomic number  6 and mass  12.00000

 Molecular mass:    29.00274 amu.
 Principal axes and moments of inertia in atomic units:
                           1         2         3
     Eigenvalues --    12.54005  50.82009  63.36014
           X           -0.43125   0.90223   0.00000
           Y            0.90223   0.43125   0.00000
           Z           -0.00000   0.00000   1.00000
 This molecule is an asymmetric top.
 Rotational symmetry number  1.
 Rotational temperatures (Kelvin)      6.90698     1.70432     1.36701
 Rotational constants (GHZ):         143.91813    35.51236    28.48386
 Zero-point vibrational energy      13448.4 (Joules/Mol)
                                    3.21425 (Kcal/Mol)
 Warning -- explicit consideration of   2 degrees of freedom as
           vibrations may cause significant error
 Vibrational temperatures:     47.90   164.68  3022.38
          (Kelvin)

 Zero-point correction=                           0.005122 (Hartree/Particle)
 Thermal correction to Energy=                    0.009533
 Thermal correction to Enthalpy=                  0.010477
 Thermal correction to Gibbs Free Energy=        -0.020199
 Sum of electronic and zero-point Energies=           -113.783111
 Sum of electronic and thermal Energies=              -113.778701
 Sum of electronic and thermal Enthalpies=            -113.777756
 Sum of electronic and thermal Free Energies=         -113.808432

                     E (Thermal)             CV                S
                      KCal/Mol        Cal/Mol-Kelvin    Cal/Mol-Kelvin
 Total                    5.982              9.890             64.563
 Electronic               0.000              0.000              1.377
 Translational            0.889              2.981             36.028
 Rotational               0.889              2.981             18.341
 Vibrational              4.205              3.928              8.816
 Vibration     1          0.594              1.983              5.623
 Vibration     2          0.607              1.937              3.192

                           ! Non-Optimized Parameters !
 Normal termination of Gaussian 16 at Wed Oct  7 12:29:03 2020.
