 Gaussian 16, Revision A.03,

 ----------------------------------------------------------------------
 #P Opt(TS,MaxCyc=50,NoEigenTest,MaxStep=10,AddRedundant) BLYP/6-31G* 5
 D 7F Integral=UltraFineGrid SCF=(NoSymm,XQC,MaxCyc=120) EmpiricalDispe
 rsion=GD3BJ IOp(1/33=1)
 ----------------------------------------------------------------------

 TstMul:  Mul=     2
 TstMul:  ICh=     0
 TstMul:  Mul=     2
 Symbolic Z-matrix:
 Charge =  0 Multiplicity = 2

 SCF Done:  E(UB-LYP) =  -140.154728097     A.U. after   14 cycles
 SCF Done:  E(UB-LYP) =  -140.155893977     A.U. after   13 cycles
 SCF Done:  E(UB-LYP) =  -140.156437301     A.U. after   13 cycles
 SCF Done:  E(UB-LYP) =  -140.156171572     A.U. after   13 cycles
 SCF Done:  E(UB-LYP) =  -140.156169853     A.U. after   13 cycles
 SCF Done:  E(UB-LYP) =  -140.156182854     A.U. after   10 cycles
 SCF Done:  E(UB-LYP) =  -140.156192858     A.U. after    9 cycles
 SCF Done:  E(UB-LYP) =  -140.156198576     A.U. after   11 cycles
 SCF Done:  E(UB-LYP) =  -140.156200556     A.U. after   12 cycles
 SCF Done:  E(UB-LYP) =  -140.156200655     A.U. after    9 cycles
 Optimization completed.
    -- Stationary point found.

 1\1\GINC-NODE51\FTS\UBLYP\6-31G(d)\C1H4F1(2)\RPEVERATI\07-Oct-2020\0\\
 #P Opt(TS,MaxCyc=50,NoEigenTest,MaxStep=10,AddRedundant) BLYP/6-31G* 5
 D 7F Integral=UltraFineGrid SCF=(NoSymm,XQC,MaxCyc=120) EmpiricalDispe
 rsion=GD3BJ IOp(1/33=1)\\TS search on BH76.\\0,2\H,0.0038814407,2.0881
 19619,0.\F,0.0016948665,0.7941017398,0.\C,-0.0008540887,-0.9147510195,
 0.\H,1.061865252,-1.1688638504,0.\H,-0.5327662973,-1.1666836238,0.9206
 334547\H,-0.5327662973,-1.1666836238,-0.9206334547\\Version=ES64L-G16R
 evA.03\State=2-A'\HF=-140.1562007\S2=0.757827\S2-1=0.\S2A=0.750012\RMS

 Normal termination of Gaussian 16 at Wed Oct  7 12:27:33 2020.
 Gaussian 16:  ES64L-G16RevA.03 25-Dec-2016

 ----------------------------------------------------------------------
 #P Freq BLYP/6-31G* 5D 7F Integral=UltraFineGrid SCF=(NoSymm,XQC,MaxCy
 c=120) EmpiricalDispersion=GD3BJ IOp(1/33=1) Geom=Check Guess=Read
 ----------------------------------------------------------------------

 TstMul:  Mul=     2
 TstMul:  ICh=     0
 TstMul:  Mul=     2
 Structure from the checkpoint file:  "MN_53_hfch3ts_BH76_BLYPDBJ_631Gs.chk"
 Charge =  0 Multiplicity = 2

                         Standard orientation:
 ---------------------------------------------------------------------
 Center     Atomic      Atomic             Coordinates (Angstroms)
 Number     Number       Type             X           Y           Z
 ---------------------------------------------------------------------
      1          1           0        0.000242    2.075264    0.000000
      2          9           0       -0.000015    0.781245    0.000000
      3          6           0       -0.000015   -0.927610    0.000000
      4          1           0        1.063082   -1.180137    0.000000
      5          1           0       -0.531551   -1.180336    0.920633
      6          1           0       -0.531551   -1.180336   -0.920633
 ---------------------------------------------------------------------

 SCF Done:  E(UB-LYP) =  -140.156200655     A.U. after    1 cycles

 The electronic state is 2-A'.
 Alpha  occ. eigenvalues --  -24.26046  -9.96284  -1.00294  -0.62562  -0.42387
 Alpha  occ. eigenvalues --   -0.38313  -0.38312  -0.27658  -0.27658  -0.14623
 Alpha virt. eigenvalues --   -0.00555   0.08389   0.13819   0.13819   0.45592
 Alpha virt. eigenvalues --    0.51154   0.51154   0.63971   0.76888   0.81524
 Alpha virt. eigenvalues --    0.81525   0.96845   1.15788   1.15789   1.49440

  Beta  occ. eigenvalues --  -24.25948  -9.95558  -1.00135  -0.61066  -0.40561
  Beta  occ. eigenvalues --   -0.37800  -0.37799  -0.27469  -0.27469
  Beta virt. eigenvalues --   -0.07589   0.03774   0.08938   0.14241   0.14241
  Beta virt. eigenvalues --    0.48646   0.51523   0.51523   0.72706   0.78170
  Beta virt. eigenvalues --    0.82045   0.82046   0.98211   1.16121   1.16122

 Mulliken charges and spin densities:
               1          2
     1  H    0.094519   0.635543
     2  F   -0.314414  -0.079506
     3  C   -0.254962   0.499579
     4  H    0.158290  -0.018540
     5  H    0.158283  -0.018538
     6  H    0.158283  -0.018538
 Sum of Mulliken charges =  -0.00000   1.00000

 Dipole moment (field-independent basis, Debye):
    X=              0.0001    Y=             -1.3927    Z=             -0.0000  Tot=              1.3927
 Quadrupole moment (field-independent basis, Debye-Ang):
   XX=            -12.8138   YY=            -11.9491   ZZ=            -12.8140
   XY=              0.0003   XZ=              0.0000   YZ=              0.0000

  Exact polarizability:  13.107   0.005  48.795  -0.000   0.000  13.107
 Approx polarizability:  17.947   0.010 102.884   0.000   0.000  17.947

 ******    1 imaginary frequencies (negative Signs) ******

                      1                      2                      3
                     A'                     A'                     A"
 Frequencies --  -1203.0640               150.7804               150.8176
 Red. masses --      2.0700                 1.1631                 1.1631
 Frc consts  --      1.7652                 0.0156                 0.0156
 IR Inten    --   1052.6571                 7.5759                 7.5763

                      4                      5                      6
                     A"                     A'                     A'
 Frequencies --    775.4566               775.5794               935.5666
 Red. masses --      1.1286                 1.1286                 1.4842
 Frc consts  --      0.3998                 0.4000                 0.7654
 IR Inten    --      0.7356                 0.7355               176.5043

                      7                      8                      9
                     A'                     A"                     A'
 Frequencies --   1168.3273              1438.0148              1438.0349
 Red. masses --      1.2485                 1.0871                 1.0871
 Frc consts  --      1.0041                 1.3245                 1.3245
 IR Inten    --     52.1815                 2.4730                 2.4725

                     10                     11                     12
                     A'                     A"                     A'
 Frequencies --   3045.3979              3182.9641              3183.0751
 Red. masses --      1.0167                 1.1147                 1.1147
 Frc consts  --      5.5553                 6.6540                 6.6545
 IR Inten    --      1.8094                15.5396                15.5316

 - Thermochemistry -
 -------------------
 Temperature   298.150 Kelvin.  Pressure   1.00000 Atm.
 Atom     1 has atomic number  1 and mass   1.00783

 Molecular mass:    35.02970 amu.
 Principal axes and moments of inertia in atomic units:
                           1         2         3
     Eigenvalues --    12.20196 114.41413 114.41450
           X            0.00002   1.00000   0.00000
           Y            1.00000  -0.00002   0.00000
           Z           -0.00000   0.00000   1.00000
 This molecule is an asymmetric top.
 Rotational symmetry number  1.
 Rotational temperatures (Kelvin)      7.09836     0.75702     0.75702
 Rotational constants (GHZ):         147.90579    15.77376    15.77371
    1 imaginary frequencies ignored.
 Zero-point vibrational energy      97160.8 (Joules/Mol)
                                   23.22198 (Kcal/Mol)
 Warning -- explicit consideration of   2 degrees of freedom as
           vibrations may cause significant error
 Vibrational temperatures:    216.94   216.99  1115.71  1115.89  1346.07
          (Kelvin)           1680.96  2068.98  2069.01  4381.65  4579.58
                             4579.74

 Zero-point correction=                           0.037007 (Hartree/Particle)
 Thermal correction to Energy=                    0.041373
 Thermal correction to Enthalpy=                  0.042318
 Thermal correction to Gibbs Free Energy=         0.012073
 Sum of electronic and zero-point Energies=           -140.119194
 Sum of electronic and thermal Energies=              -140.114827
 Sum of electronic and thermal Enthalpies=            -140.113883
 Sum of electronic and thermal Free Energies=         -140.144128

                     E (Thermal)             CV                S
                      KCal/Mol        Cal/Mol-Kelvin    Cal/Mol-Kelvin
 Total                   25.962             12.015             63.656
 Electronic               0.000              0.000              1.377
 Translational            0.889              2.981             36.591
 Rotational               0.889              2.981             19.707
 Vibrational             24.185              6.053              5.979
 Vibration     1          0.618              1.902              2.662
 Vibration     2          0.618              1.902              2.662

 Optimization completed.
    -- Stationary point found.
 Normal termination of Gaussian 16 at Wed Oct  7 12:28:04 2020.
