 Gaussian 16, Revision A.03,
 Gaussian 16:  ES64L-G16RevA.03 25-Dec-2016

 ----------------------------------------------------------------------
 #P Opt(MaxCyc=100) BLYP/6-31G* 5D 7F Integral=UltraFineGrid SCF=(NoSym
 m,XQC,MaxCyc=120) EmpiricalDispersion=GD3BJ IOp(1/33=1)
 ----------------------------------------------------------------------

 TstMul:  Mul=     2
 TstMul:  ICh=     0
 TstMul:  Mul=     2
 Symbolic Z-matrix:
 Charge =  0 Multiplicity = 2

 SCF Done:  E(UB-LYP) =  -113.827905308     A.U. after   14 cycles
 SCF Done:  E(UB-LYP) =  -113.828873712     A.U. after   13 cycles
 SCF Done:  E(UB-LYP) =  -113.828898511     A.U. after   10 cycles
 Optimization completed.
    -- Stationary point found.

                         Standard orientation:
 ---------------------------------------------------------------------
 Center     Atomic      Atomic             Coordinates (Angstroms)
 Number     Number       Type             X           Y           Z
 ---------------------------------------------------------------------
      1          1           0       -0.894303    1.215869    0.000000
      2          6           0        0.063879    0.596267    0.000000
      3          8           0        0.063879   -0.599184    0.000000
 ---------------------------------------------------------------------

 The electronic state is 2-A'.
 Alpha  occ. eigenvalues --  -18.85978 -10.01957  -0.99702  -0.54172  -0.42688
 Alpha  occ. eigenvalues --   -0.37343  -0.36400  -0.16563
 Alpha virt. eigenvalues --   -0.07659   0.09635   0.21037   0.47003   0.48336
 Alpha virt. eigenvalues --    0.60171   0.63869   0.75195   0.82169   0.87802
 Alpha virt. eigenvalues --    0.92303   1.44305   1.45196   1.45364   1.45668

  Beta  occ. eigenvalues --  -18.85246 -10.01170  -0.98414  -0.52075  -0.40896
  Beta  occ. eigenvalues --   -0.36554  -0.32795
  Beta virt. eigenvalues --   -0.10522  -0.06054   0.11690   0.22079   0.47942
  Beta virt. eigenvalues --    0.52295   0.61512   0.65907   0.77475   0.83386
  Beta virt. eigenvalues --    0.88248   0.94585   1.45194   1.46563   1.48014

 Mulliken charges and spin densities:
               1          2
     1  H    0.130624   0.175038
     2  C    0.072207   0.554725
     3  O   -0.202830   0.270237
 Sum of Mulliken charges =   0.00000   1.00000

 Dipole moment (field-independent basis, Debye):
    X=             -0.8577    Y=              1.1020    Z=              0.0000  Tot=              1.3964
 Quadrupole moment (field-independent basis, Debye-Ang):
   XX=            -11.1339   YY=            -11.4121   ZZ=            -10.6252
   XY=             -0.9219   XZ=              0.0000   YZ=              0.0000

 Normal termination of Gaussian 16 at Wed Oct  7 12:25:14 2020.
