 Gaussian 16, Revision A.03,

 ----------------------------------------------------------------------
 #P Opt(TS,MaxCyc=50,NoEigenTest,MaxStep=10,AddRedundant) BLYP/6-31G* 5
 D 7F Integral=UltraFineGrid SCF=(NoSymm,XQC,MaxCyc=120) EmpiricalDispe
 rsion=GD3BJ IOp(1/33=1)
 ----------------------------------------------------------------------

 TstMul:  Mul=     2
 TstMul:  ICh=     0
 TstMul:  Mul=     2
 Symbolic Z-matrix:
 Charge =  0 Multiplicity = 2

 SCF Done:  E(UB-LYP) =  -199.998545933     A.U. after   17 cycles
 SCF Done:  E(UB-LYP) =  -200.001050188     A.U. after   14 cycles
 SCF Done:  E(UB-LYP) =  -199.998893413     A.U. after   14 cycles
 SCF Done:  E(UB-LYP) =  -199.997332371     A.U. after   14 cycles
 SCF Done:  E(UB-LYP) =  -199.995999932     A.U. after   15 cycles
 SCF Done:  E(UB-LYP) =  -199.994869364     A.U. after   15 cycles
 SCF Done:  E(UB-LYP) =  -199.993912361     A.U. after   15 cycles
 SCF Done:  E(UB-LYP) =  -199.993100307     A.U. after   15 cycles
 SCF Done:  E(UB-LYP) =  -199.992406012     A.U. after   15 cycles
 SCF Done:  E(UB-LYP) =  -199.991806871     A.U. after   15 cycles
 SCF Done:  E(UB-LYP) =  -199.986678677     A.U. after    9 cycles
 SCF Done:  E(UB-LYP) =  -199.986661094     A.U. after    9 cycles
 SCF Done:  E(UB-LYP) =  -199.986646355     A.U. after    8 cycles
 SCF Done:  E(UB-LYP) =  -199.986633796     A.U. after    8 cycles
 SCF Done:  E(UB-LYP) =  -199.986623062     A.U. after    9 cycles
 SCF Done:  E(UB-LYP) =  -199.986614046     A.U. after    9 cycles
 SCF Done:  E(UB-LYP) =  -199.986606618     A.U. after    9 cycles
 SCF Done:  E(UB-LYP) =  -199.986600446     A.U. after    8 cycles
 SCF Done:  E(UB-LYP) =  -199.986595172     A.U. after    7 cycles
 Optimization completed.
    -- Stationary point found.
 Normal termination of Gaussian 16 at Wed Oct  7 12:37:21 2020.
 Gaussian 16:  ES64L-G16RevA.03 25-Dec-2016

 ----------------------------------------------------------------------
 #P Freq BLYP/6-31G* 5D 7F Integral=UltraFineGrid SCF=(NoSymm,XQC,MaxCy
 c=120) EmpiricalDispersion=GD3BJ IOp(1/33=1) Geom=Check Guess=Read
 ----------------------------------------------------------------------

 TstMul:  Mul=     2
 TstMul:  ICh=     0
 TstMul:  Mul=     2
 Structure from the checkpoint file:  "MN_52_hf2ts_BH76_BLYPDBJ_631Gs.chk"
 Charge =  0 Multiplicity = 2

                         Standard orientation:
 ---------------------------------------------------------------------
 Center     Atomic      Atomic             Coordinates (Angstroms)
 Number     Number       Type             X           Y           Z
 ---------------------------------------------------------------------
      1          1           0        0.000000    0.000000   -4.535663
      2          9           0        0.000000    0.000000   -0.466500
      3          9           0        0.000000    0.000000    0.970463
 ---------------------------------------------------------------------

 SCF Done:  E(UB-LYP) =  -199.986595172     A.U. after    1 cycles

 The electronic state is 2-SG.
 Alpha  occ. eigenvalues --  -24.38411 -24.38400  -1.19691  -0.98277  -0.52381
 Alpha  occ. eigenvalues --   -0.42908  -0.42908  -0.31351  -0.31351  -0.26442
 Alpha virt. eigenvalues --   -0.18871   0.66381   1.00118   1.00118   1.03351
 Alpha virt. eigenvalues --    1.16081   1.18203   1.18203   1.21508   1.49305
 Alpha virt. eigenvalues --    1.49305   1.65359   1.65359   1.67052   1.86942

  Beta  occ. eigenvalues --  -24.38411 -24.38400  -1.19690  -0.98276  -0.52380
  Beta  occ. eigenvalues --   -0.42908  -0.42908  -0.31350  -0.31350
  Beta virt. eigenvalues --   -0.18872  -0.00874   1.00118   1.00118   1.03030
  Beta virt. eigenvalues --    1.05279   1.16106   1.18202   1.18202   1.21509
  Beta virt. eigenvalues --    1.49305   1.49305   1.65359   1.65359   1.67052

 Mulliken charges and spin densities:
               1          2
     1  H    0.000123   0.999866
     2  F   -0.000058  -0.000021
     3  F   -0.000065   0.000155
 Sum of Mulliken charges =  -0.00000   1.00000

 Dipole moment (field-independent basis, Debye):
    X=              0.0000    Y=              0.0000    Z=             -0.0029  Tot=              0.0029
 Quadrupole moment (field-independent basis, Debye-Ang):
   XX=            -10.5421   YY=            -10.5421   ZZ=             -9.5220
   XY=             -0.0000   XZ=              0.0000   YZ=             -0.0000

  Exact polarizability:   2.741  -0.000   2.741  -0.000   0.000  10.120
 Approx polarizability:   3.535   0.000   3.535   0.000  -0.000  26.395

 ******    1 imaginary frequencies (negative Signs) ******

                      1                      2                      3
                     SG                     PI                     PI
 Frequencies --    -37.7916                15.0221                15.0221
 Red. masses --      1.0331                 2.0881                 2.0881
 Frc consts  --      0.0009                 0.0003                 0.0003
 IR Inten    --      0.0075                 0.0000                 0.0000

                      4
                     SG
 Frequencies --    979.1482
 Red. masses --     18.9981
 Frc consts  --     10.7314
 IR Inten    --      0.0095

 - Thermochemistry -
 -------------------
 Temperature   298.150 Kelvin.  Pressure   1.00000 Atm.
 Atom     1 has atomic number  1 and mass   1.00783

 Molecular mass:    39.00463 amu.
 Principal axes and moments of inertia in atomic units:
                           1         2         3
     Eigenvalues --     0.00000 150.40804 150.40804
           X            0.00000   0.00000   1.00000
           Y            0.00000   1.00000   0.00000
           Z            1.00000   0.00000   0.00000
 This molecule is a prolate symmetric top.
 Rotational symmetry number  1.
 Rotational temperature (Kelvin)      0.57586
 Rotational constant (GHZ):          11.998968
    1 imaginary frequencies ignored.
 Zero-point vibrational energy       6036.3 (Joules/Mol)
                                    1.44271 (Kcal/Mol)
 Warning -- explicit consideration of   2 degrees of freedom as
           vibrations may cause significant error
 Vibrational temperatures:     21.61    21.61  1408.78
          (Kelvin)

 Zero-point correction=                           0.002299 (Hartree/Particle)
 Thermal correction to Energy=                    0.006520
 Thermal correction to Enthalpy=                  0.007464
 Thermal correction to Gibbs Free Energy=        -0.024466
 Sum of electronic and zero-point Energies=           -199.984296
 Sum of electronic and thermal Energies=              -199.980075
 Sum of electronic and thermal Enthalpies=            -199.979131
 Sum of electronic and thermal Free Energies=         -200.011061

                     E (Thermal)             CV                S
                      KCal/Mol        Cal/Mol-Kelvin    Cal/Mol-Kelvin
 Total                    4.092              9.341             67.202
 Electronic               0.000              0.000              1.377
 Translational            0.889              2.981             36.912
 Rotational               0.592              1.987             14.406
 Vibrational              2.610              4.373             14.507
 Vibration     1          0.593              1.986              7.203
 Vibration     2          0.593              1.986              7.203

                           ! Non-Optimized Parameters !
 Normal termination of Gaussian 16 at Wed Oct  7 12:37:53 2020.
