 Gaussian 16, Revision A.03,
 Gaussian 16:  ES64L-G16RevA.03 25-Dec-2016

 ----------------------------------------------------------------------
 #P Opt(MaxCyc=100) BLYP/6-31G* 5D 7F Integral=UltraFineGrid SCF=(NoSym
 m,XQC,MaxCyc=120) EmpiricalDispersion=GD3BJ IOp(1/33=1)
 ----------------------------------------------------------------------

 TstMul:  Mul=     1
 TstMul:  ICh=     0
 TstMul:  Mul=     1
 Symbolic Z-matrix:
 Charge =  0 Multiplicity = 1

 SCF Done:  E(RB-LYP) =  -100.401771798     A.U. after    9 cycles
 SCF Done:  E(RB-LYP) =  -100.402684125     A.U. after    9 cycles
 SCF Done:  E(RB-LYP) =  -100.402698034     A.U. after    7 cycles
 Optimization completed.
    -- Stationary point found.

                         Standard orientation:
 ---------------------------------------------------------------------
 Center     Atomic      Atomic             Coordinates (Angstroms)
 Number     Number       Type             X           Y           Z
 ---------------------------------------------------------------------
      1          9           0        0.000000    0.000000    0.094584
      2          1           0        0.000000    0.000000   -0.851260
 ---------------------------------------------------------------------

 The electronic state is 1-SG.
 Alpha  occ. eigenvalues --  -24.25513  -1.04552  -0.44357  -0.29412  -0.29412
 Alpha virt. eigenvalues --    0.03187   0.74188   1.11879   1.11879   1.20260
 Alpha virt. eigenvalues --    1.58390   1.74966   1.74966   1.81738   1.81738
 Alpha virt. eigenvalues --    2.51913

 Mulliken charges:
               1
     1  F   -0.462821
     2  H    0.462821
 Sum of Mulliken charges =   0.00000

 Dipole moment (field-independent basis, Debye):
    X=              0.0000    Y=              0.0000    Z=             -1.8112  Tot=              1.8112
 Quadrupole moment (field-independent basis, Debye-Ang):
   XX=             -5.4110   YY=             -5.4110   ZZ=             -3.4085
   XY=              0.0000   XZ=              0.0000   YZ=              0.0000

 Normal termination of Gaussian 16 at Wed Oct  7 12:25:28 2020.
