 Gaussian 16, Revision A.03,
 Gaussian 16:  ES64L-G16RevA.03 25-Dec-2016

 ----------------------------------------------------------------------
 #P Opt(MaxCyc=100) BLYP/6-31G* 5D 7F Integral=UltraFineGrid SCF=(NoSym
 m,XQC,MaxCyc=120) EmpiricalDispersion=GD3BJ IOp(1/33=1)
 ----------------------------------------------------------------------

 TstMul:  Mul=     2
 TstMul:  ICh=     0
 TstMul:  Mul=     2
 Symbolic Z-matrix:
 Charge =  0 Multiplicity = 2

 SCF Done:  E(UB-LYP) =  -110.007776255     A.U. after   15 cycles
 SCF Done:  E(UB-LYP) =  -110.008738186     A.U. after   12 cycles
 SCF Done:  E(UB-LYP) =  -110.008790401     A.U. after   10 cycles
 SCF Done:  E(UB-LYP) =  -110.008794383     A.U. after    9 cycles
 SCF Done:  E(UB-LYP) =  -110.008794738     A.U. after    9 cycles
 Optimization completed.
    -- Stationary point found.

                         Standard orientation:
 ---------------------------------------------------------------------
 Center     Atomic      Atomic             Coordinates (Angstroms)
 Number     Number       Type             X           Y           Z
 ---------------------------------------------------------------------
      1          7           0       -0.063948    0.668222    0.000000
      2          7           0       -0.063948   -0.522142    0.000000
      3          1           0        0.895279   -1.022564    0.000000
 ---------------------------------------------------------------------

 The electronic state is 2-A'.
 Alpha  occ. eigenvalues --  -14.10873 -14.09557  -0.96561  -0.59813  -0.41517
 Alpha  occ. eigenvalues --   -0.37211  -0.35227  -0.16173
 Alpha virt. eigenvalues --   -0.08168   0.04354   0.33685   0.58218   0.58447
 Alpha virt. eigenvalues --    0.60688   0.62497   0.68672   0.69852   0.75895
 Alpha virt. eigenvalues --    0.88511   1.20517   1.42112   1.43585   1.44112

  Beta  occ. eigenvalues --  -14.10581 -14.08281  -0.95140  -0.57622  -0.38265
  Beta  occ. eigenvalues --   -0.36399  -0.32644
  Beta virt. eigenvalues --   -0.09885  -0.06900   0.06349   0.34968   0.58855
  Beta virt. eigenvalues --    0.59209   0.62755   0.67304   0.69909   0.70702
  Beta virt. eigenvalues --    0.78954   0.89428   1.22021   1.43459   1.45641

 Mulliken charges and spin densities:
               1          2
     1  N   -0.078489   0.688775
     2  N   -0.204959   0.127576
     3  H    0.283448   0.183649
 Sum of Mulliken charges =   0.00000   1.00000

 Dipole moment (field-independent basis, Debye):
    X=              1.3195    Y=             -1.2355    Z=              0.0000  Tot=              1.8077
 Quadrupole moment (field-independent basis, Debye-Ang):
   XX=            -10.7548   YY=            -11.9124   ZZ=            -10.9808
   XY=             -1.2749   XZ=              0.0000   YZ=              0.0000

 Normal termination of Gaussian 16 at Wed Oct  7 12:26:10 2020.
