 Gaussian 16, Revision A.03,

 ----------------------------------------------------------------------
 #P Opt(TS,MaxCyc=50,NoEigenTest,MaxStep=10,AddRedundant) BLYP/6-31G* 5
 D 7F Integral=UltraFineGrid SCF=(NoSymm,XQC,MaxCyc=120) EmpiricalDispe
 rsion=GD3BJ IOp(1/33=1)
 ----------------------------------------------------------------------

 TstMul:  Mul=     2
 TstMul:  ICh=     0
 TstMul:  Mul=     2
 Symbolic Z-matrix:
 Charge =  0 Multiplicity = 2

 SCF Done:  E(UB-LYP) =  -100.855631820     A.U. after    9 cycles
 SCF Done:  E(UB-LYP) =  -100.857378500     A.U. after    9 cycles
 SCF Done:  E(UB-LYP) =  -100.858219583     A.U. after    8 cycles
 SCF Done:  E(UB-LYP) =  -100.858337640     A.U. after    9 cycles
 SCF Done:  E(UB-LYP) =  -100.858339252     A.U. after    6 cycles
 Optimization completed.
    -- Stationary point found.
 Normal termination of Gaussian 16 at Wed Oct  7 12:25:47 2020.
 Gaussian 16:  ES64L-G16RevA.03 25-Dec-2016

 ----------------------------------------------------------------------
 #P Freq BLYP/6-31G* 5D 7F Integral=UltraFineGrid SCF=(NoSymm,XQC,MaxCy
 c=120) EmpiricalDispersion=GD3BJ IOp(1/33=1) Geom=Check Guess=Read
 ----------------------------------------------------------------------

 TstMul:  Mul=     2
 TstMul:  ICh=     0
 TstMul:  Mul=     2
 Structure from the checkpoint file:  "MN_54_hfhts_BH76_BLYPDBJ_631Gs.chk"
 Charge =  0 Multiplicity = 2

                         Standard orientation:
 ---------------------------------------------------------------------
 Center     Atomic      Atomic             Coordinates (Angstroms)
 Number     Number       Type             X           Y           Z
 ---------------------------------------------------------------------
      1          1           0        0.000000    0.000000    1.203155
      2          9           0        0.000000    0.000000    0.000000
      3          1           0        0.000000    0.000000   -1.203155
 ---------------------------------------------------------------------

 SCF Done:  E(UB-LYP) =  -100.858339252     A.U. after    1 cycles

 The electronic state is 2-SGG.
 Alpha  occ. eigenvalues --  -24.29668  -1.04546  -0.51000  -0.32107  -0.32107
 Alpha  occ. eigenvalues --   -0.16343
 Alpha virt. eigenvalues --   -0.01688   0.55027   0.68080   1.09190   1.09190
 Alpha virt. eigenvalues --    1.52968   1.57953   1.72639   1.72639   1.79646
 Alpha virt. eigenvalues --    1.79646   2.22797
  Beta  occ. eigenvalues --  -24.29512  -1.04245  -0.48496  -0.31813  -0.31813
  Beta virt. eigenvalues --   -0.08208   0.03704   0.62891   0.76767   1.09414
  Beta virt. eigenvalues --    1.09414   1.53366   1.60536   1.72197   1.72197
  Beta virt. eigenvalues --    1.79720   1.79720   2.25578

 Mulliken charges and spin densities:
               1          2
     1  H    0.179151   0.547178
     2  F   -0.358302  -0.094356
     3  H    0.179151   0.547178
 Sum of Mulliken charges =  -0.00000   1.00000

 Dipole moment (field-independent basis, Debye):
    X=              0.0000    Y=              0.0000    Z=             -0.0000  Tot=              0.0000
 Quadrupole moment (field-independent basis, Debye-Ang):
   XX=             -6.9568   YY=             -6.9568   ZZ=             -4.7215
   XY=             -0.0000   XZ=             -0.0000   YZ=              0.0000

  Exact polarizability:   1.932  -0.000   1.932   0.000  -0.000  33.305
 Approx polarizability:   2.376  -0.000   2.376  -0.000   0.000  74.110

 ******    3 imaginary frequencies (negative Signs) ******

                      1                      2                      3
                     SGU                    PIU                    PIU
 Frequencies --  -1989.9021               -81.6946               -81.6946
 Red. masses --      1.1085                 1.1085                 1.1085
 Frc consts  --      2.5862                 0.0044                 0.0044
 IR Inten    --   2699.9613                42.0476                42.0476

                      4
                     SGG
 Frequencies --   2008.4865
 Red. masses --      1.0078
 Frc consts  --      2.3954
 IR Inten    --      0.0000

 - Thermochemistry -
 -------------------
 Temperature   298.150 Kelvin.  Pressure   1.00000 Atm.
 Atom     1 has atomic number  1 and mass   1.00783

 Molecular mass:    21.01405 amu.
 Principal axes and moments of inertia in atomic units:
                           1         2         3
     Eigenvalues --     0.00000  10.41972  10.41972
           X           -0.00000   1.00000   0.00000
           Y            0.00000   0.00000   1.00000
           Z            1.00000   0.00000   0.00000
 This molecule is a prolate symmetric top.
 Rotational symmetry number  2.
 Rotational temperature (Kelvin)      8.31250
 Rotational constant (GHZ):         173.204372
    3 imaginary frequencies ignored.
 Zero-point vibrational energy      12013.4 (Joules/Mol)
                                    2.87128 (Kcal/Mol)
 Vibrational temperatures:   2889.76
          (Kelvin)

 Zero-point correction=                           0.004576 (Hartree/Particle)
 Thermal correction to Energy=                    0.006937
 Thermal correction to Enthalpy=                  0.007881
 Thermal correction to Gibbs Free Energy=        -0.013106
 Sum of electronic and zero-point Energies=           -100.853764
 Sum of electronic and thermal Energies=              -100.851403
 Sum of electronic and thermal Enthalpies=            -100.850458
 Sum of electronic and thermal Free Energies=         -100.871445

                     E (Thermal)             CV                S
                      KCal/Mol        Cal/Mol-Kelvin    Cal/Mol-Kelvin
 Total                    4.353              4.980             44.170
 Electronic               0.000              0.000              1.377
 Translational            0.889              2.981             35.068
 Rotational               0.592              1.987              7.724
 Vibrational              2.872              0.012              0.001

 Optimization completed.
    -- Stationary point found.
 Normal termination of Gaussian 16 at Wed Oct  7 12:26:08 2020.
