 Gaussian 16, Revision A.03,
 Gaussian 16:  ES64L-G16RevA.03 25-Dec-2016

 ----------------------------------------------------------------------
 #P Opt(MaxCyc=100) BLYP/6-31G* 5D 7F Integral=UltraFineGrid SCF=(NoSym
 m,XQC,MaxCyc=120) EmpiricalDispersion=GD3BJ IOp(1/33=1)
 ----------------------------------------------------------------------

 TstMul:  Mul=     1
 TstMul:  ICh=    -1
 TstMul:  Mul=     1
 Symbolic Z-matrix:
 Charge = -1 Multiplicity = 1

 SCF Done:  E(RB-LYP) =  -215.422499396     A.U. after   16 cycles
 SCF Done:  E(RB-LYP) =  -215.427351295     A.U. after   12 cycles
 SCF Done:  E(RB-LYP) =  -215.431049849     A.U. after   15 cycles
 SCF Done:  E(RB-LYP) =  -215.432769376     A.U. after   13 cycles
 SCF Done:  E(RB-LYP) =  -215.433307988     A.U. after   13 cycles
 SCF Done:  E(RB-LYP) =  -215.433815276     A.U. after   12 cycles
 SCF Done:  E(RB-LYP) =  -215.433933397     A.U. after   12 cycles
 SCF Done:  E(RB-LYP) =  -215.434005607     A.U. after   11 cycles
 SCF Done:  E(RB-LYP) =  -215.434032711     A.U. after   11 cycles
 SCF Done:  E(RB-LYP) =  -215.434049133     A.U. after   11 cycles
 SCF Done:  E(RB-LYP) =  -215.431035750     A.U. after   13 cycles
 SCF Done:  E(RB-LYP) =  -215.438014059     A.U. after   12 cycles
 SCF Done:  E(RB-LYP) =  -215.438466154     A.U. after   12 cycles
 SCF Done:  E(RB-LYP) =  -215.438622151     A.U. after   12 cycles
 SCF Done:  E(RB-LYP) =  -215.438708489     A.U. after   11 cycles
 SCF Done:  E(RB-LYP) =  -215.438733512     A.U. after   11 cycles
 SCF Done:  E(RB-LYP) =  -215.438740187     A.U. after    9 cycles
 SCF Done:  E(RB-LYP) =  -215.438746780     A.U. after    9 cycles
 SCF Done:  E(RB-LYP) =  -215.438749132     A.U. after    8 cycles
 SCF Done:  E(RB-LYP) =  -215.438749391     A.U. after    8 cycles
 Optimization completed.
    -- Stationary point found.

                         Standard orientation:
 ---------------------------------------------------------------------
 Center     Atomic      Atomic             Coordinates (Angstroms)
 Number     Number       Type             X           Y           Z
 ---------------------------------------------------------------------
      1          9           0        1.700776    0.405449   -0.014012
      2          6           0        0.549268   -0.477388    0.014912
      3          1           0       -0.524544    0.018069   -0.103957
      4          1           0        0.703788   -1.231656   -0.790362
      5          1           0        0.596334   -1.028698    0.982232
      6          8           0       -2.149406    0.143907   -0.114217
      7          1           0       -2.182921    0.306313    0.862458
 ---------------------------------------------------------------------

 The electronic state is 1-A.
 Alpha  occ. eigenvalues --  -24.05507 -18.40648  -9.74799  -0.83416  -0.48293
 Alpha  occ. eigenvalues --   -0.38805  -0.19354  -0.18519  -0.16096  -0.06588
 Alpha  occ. eigenvalues --   -0.05855  -0.01789   0.12733   0.13350
 Alpha virt. eigenvalues --    0.27263   0.28494   0.32198   0.33823   0.47605
 Alpha virt. eigenvalues --    0.68223   0.72270   0.74954   0.98020   0.99774
 Alpha virt. eigenvalues --    1.04898   1.08081   1.12702   1.20581   1.29476

 Mulliken charges:
               1
     1  F   -0.386140
     2  C   -0.170608
     3  H    0.221693
     4  H    0.032703
     5  H    0.030229
     6  O   -0.931041
     7  H    0.203163
 Sum of Mulliken charges =  -1.00000

 Dipole moment (field-independent basis, Debye):
    X=              5.1380    Y=             -0.8394    Z=              1.2325  Tot=              5.3501
 Quadrupole moment (field-independent basis, Debye-Ang):
   XX=            -41.6198   YY=            -21.0228   ZZ=            -19.3625
   XY=              0.1067   XZ=             -2.7698   YZ=              0.4723

 Normal termination of Gaussian 16 at Wed Oct  7 12:35:05 2020.
