 Gaussian 16, Revision A.03,

 ----------------------------------------------------------------------
 #P Opt(TS,MaxCyc=50,NoEigenTest,MaxStep=10,AddRedundant) BLYP/6-31G* 5
 D 7F Integral=UltraFineGrid SCF=(NoSymm,XQC,MaxCyc=120) EmpiricalDispe
 rsion=GD3BJ IOp(1/33=1)
 ----------------------------------------------------------------------

 TstMul:  Mul=     2
 TstMul:  ICh=     0
 TstMul:  Mul=     2
 Symbolic Z-matrix:
 Charge =  0 Multiplicity = 2

 SCF Done:  E(UB-LYP) =  -185.127969826     A.U. after   18 cycles
 SCF Done:  E(UB-LYP) =  -185.131764107     A.U. after   16 cycles
 SCF Done:  E(UB-LYP) =  -185.133948203     A.U. after   16 cycles
 SCF Done:  E(UB-LYP) =  -185.132009023     A.U. after   17 cycles
 SCF Done:  E(UB-LYP) =  -185.131209616     A.U. after   16 cycles
 SCF Done:  E(UB-LYP) =  -185.131116383     A.U. after   15 cycles
 SCF Done:  E(UB-LYP) =  -185.131115034     A.U. after   11 cycles
 Optimization completed.
    -- Stationary point found.

 1\1\GINC-NODE54\FTS\UBLYP\6-31G(d)\H1N2O1(2)\RPEVERATI\07-Oct-2020\0\\
 #P Opt(TS,MaxCyc=50,NoEigenTest,MaxStep=10,AddRedundant) BLYP/6-31G* 5
 D 7F Integral=UltraFineGrid SCF=(NoSymm,XQC,MaxCyc=120) EmpiricalDispe
 rsion=GD3BJ IOp(1/33=1)\\TS search on BH76.\\0,2\H,-0.341262472,-2.033
 0125124,0.\O,-0.858238037,-0.6132389843,0.\N,0.0084416494,0.2850544066
 ,0.\N,1.0540993306,0.7950923721,0.\\Version=ES64L-G16RevA.03\State=2-A
 '\HF=-185.131115\S2=0.75959\S2-1=0.\S2A=0.75001\RMSD=3.647e-09\RMSF=9.
 927e-05\Dipole=-0.0855184,-0.0725073,0.\Quadrupole=-0.9296498,0.084483

 Normal termination of Gaussian 16 at Wed Oct  7 12:27:39 2020.
 Gaussian 16:  ES64L-G16RevA.03 25-Dec-2016

 ----------------------------------------------------------------------
 #P Freq BLYP/6-31G* 5D 7F Integral=UltraFineGrid SCF=(NoSymm,XQC,MaxCy
 c=120) EmpiricalDispersion=GD3BJ IOp(1/33=1) Geom=Check Guess=Read
 ----------------------------------------------------------------------

 TstMul:  Mul=     2
 TstMul:  ICh=     0
 TstMul:  Mul=     2
 Structure from the checkpoint file:  "MN_68_n2ohts_BH76_BLYPDBJ_631Gs.chk"
 Charge =  0 Multiplicity = 2

                         Standard orientation:
 ---------------------------------------------------------------------
 Center     Atomic      Atomic             Coordinates (Angstroms)
 Number     Number       Type             X           Y           Z
 ---------------------------------------------------------------------
      1          1           0       -0.363941   -2.057863    0.000000
      2          8           0       -0.872183   -0.634940    0.000000
      3          7           0       -0.000000    0.258011    0.000000
      4          7           0        1.048772    0.761615   -0.000000
 ---------------------------------------------------------------------

 SCF Done:  E(UB-LYP) =  -185.131115034     A.U. after    1 cycles

 The electronic state is 2-A'.
 Alpha  occ. eigenvalues --  -18.91366 -14.22260 -14.12113  -1.10447  -0.96167
 Alpha  occ. eigenvalues --   -0.57033  -0.47770  -0.47252  -0.41620  -0.32737
 Alpha  occ. eigenvalues --   -0.29594  -0.18916
 Alpha virt. eigenvalues --   -0.07817  -0.06412   0.09238   0.41143   0.53979
 Alpha virt. eigenvalues --    0.55902   0.56197   0.64504   0.66862   0.68810
 Alpha virt. eigenvalues --    0.69497   0.72314   0.87488   0.88341   1.04535

  Beta  occ. eigenvalues --  -18.91272 -14.22084 -14.11632  -1.09993  -0.95596
  Beta  occ. eigenvalues --   -0.56241  -0.46970  -0.46913  -0.40600  -0.30824
  Beta  occ. eigenvalues --   -0.29298
  Beta virt. eigenvalues --   -0.12414  -0.05920  -0.03761   0.09774   0.41598
  Beta virt. eigenvalues --    0.56146   0.56405   0.57070   0.67378   0.68389
  Beta virt. eigenvalues --    0.69800   0.71552   0.74918   0.87496   0.88722

 Mulliken charges and spin densities:
               1          2
     1  H    0.041830   0.711103
     2  O   -0.329808  -0.062114
     3  N    0.385476   0.085583
     4  N   -0.097498   0.265429
 Sum of Mulliken charges =  -0.00000   1.00000

 Dipole moment (field-independent basis, Debye):
    X=             -0.2185    Y=             -0.1830    Z=             -0.0000  Tot=              0.2850
 Quadrupole moment (field-independent basis, Debye-Ang):
   XX=            -18.7648   YY=            -17.3638   ZZ=            -16.3591
   XY=             -1.5016   XZ=              0.0000   YZ=              0.0000

  Exact polarizability:  22.253  12.050  38.567  -0.000  -0.000   7.607
 Approx polarizability:  76.490  56.178 111.958  -0.000  -0.000  11.834

 ******    1 imaginary frequencies (negative Signs) ******

                      1                      2                      3
                     A'                     A'                     A"
 Frequencies --  -1067.4103               449.7380               539.7685
 Red. masses --      1.5327                 1.3138                 4.7665
 Frc consts  --      1.0289                 0.1566                 0.8182
 IR Inten    --    351.2578                11.3305                 4.8267

                      4                      5                      6
                     A'                     A'                     A'
 Frequencies --    780.6500              1155.7349              2058.9424
 Red. masses --      2.5195                 5.6118                13.9514
 Frc consts  --      0.9047                 4.4164                34.8462
 IR Inten    --      0.2257                30.0199               206.5091

 - Thermochemistry -
 -------------------
 Temperature   298.150 Kelvin.  Pressure   1.00000 Atm.
 Atom     1 has atomic number  1 and mass   1.00783

 Molecular mass:    45.00889 amu.
 Principal axes and moments of inertia in atomic units:
                           1         2         3
     Eigenvalues --     9.01539 160.17441 169.18980
           X            0.77121  -0.63658   0.00000
           Y            0.63658   0.77121   0.00000
           Z           -0.00000   0.00000   1.00000
 This molecule is an asymmetric top.
 Rotational symmetry number  1.
 Rotational temperatures (Kelvin)      9.60734     0.54075     0.51193
 Rotational constants (GHZ):         200.18454    11.26735    10.66696
    1 imaginary frequencies ignored.
 Zero-point vibrational energy      29815.9 (Joules/Mol)
                                    7.12618 (Kcal/Mol)
 Warning -- explicit consideration of   2 degrees of freedom as
           vibrations may cause significant error
 Vibrational temperatures:    647.07   776.61  1123.18  1662.84  2962.36
          (Kelvin)

 Zero-point correction=                           0.011356 (Hartree/Particle)
 Thermal correction to Energy=                    0.014754
 Thermal correction to Enthalpy=                  0.015698
 Thermal correction to Gibbs Free Energy=        -0.013039
 Sum of electronic and zero-point Energies=           -185.119759
 Sum of electronic and thermal Energies=              -185.116361
 Sum of electronic and thermal Enthalpies=            -185.115417
 Sum of electronic and thermal Free Energies=         -185.144154

                     E (Thermal)             CV                S
                      KCal/Mol        Cal/Mol-Kelvin    Cal/Mol-Kelvin
 Total                    9.258              9.413             60.482
 Electronic               0.000              0.000              1.377
 Translational            0.889              2.981             37.338
 Rotational               0.889              2.981             20.130
 Vibrational              7.481              3.452              1.637
 Vibration     1          0.809              1.361              0.797
 Vibration     2          0.895              1.162              0.566

 Optimization completed.
    -- Stationary point found.
 Normal termination of Gaussian 16 at Wed Oct  7 12:28:10 2020.
