 Gaussian 16, Revision A.03,
 Gaussian 16:  ES64L-G16RevA.03 25-Dec-2016

 ----------------------------------------------------------------------
 #P Opt(MaxCyc=100) BLYP/6-31G* 5D 7F Integral=UltraFineGrid SCF=(NoSym
 m,XQC,MaxCyc=120) EmpiricalDispersion=GD3BJ IOp(1/33=1)
 ----------------------------------------------------------------------

 TstMul:  Mul=     1
 TstMul:  ICh=     0
 TstMul:  Mul=     1
 Symbolic Z-matrix:
 Charge =  0 Multiplicity = 1

 SCF Done:  E(RB-LYP) =  -93.3693326115     A.U. after   12 cycles
 SCF Done:  E(RB-LYP) =  -93.3701894754     A.U. after   10 cycles
 SCF Done:  E(RB-LYP) =  -93.3701950573     A.U. after    7 cycles
 Optimization completed.
    -- Stationary point found.

                         Standard orientation:
 ---------------------------------------------------------------------
 Center     Atomic      Atomic             Coordinates (Angstroms)
 Number     Number       Type             X           Y           Z
 ---------------------------------------------------------------------
      1          6           0        0.000000    0.000000   -0.751114
      2          7           0        0.000000    0.000000    0.437248
      3          1           0        0.000000    0.000000    1.445950
 ---------------------------------------------------------------------

 The electronic state is 1-SG.
 Alpha  occ. eigenvalues --  -14.06083  -9.96586  -0.84355  -0.59435  -0.31646
 Alpha  occ. eigenvalues --   -0.31646  -0.25682
 Alpha virt. eigenvalues --   -0.00662  -0.00662   0.03617   0.32581   0.46471
 Alpha virt. eigenvalues --    0.51448   0.51448   0.60699   0.67928   0.67928
 Alpha virt. eigenvalues --    0.85964   1.11895   1.37228   1.44454   1.44454

 Mulliken charges:
               1
     1  C    0.011986
     2  N   -0.349366
     3  H    0.337380
 Sum of Mulliken charges =  -0.00000

 Dipole moment (field-independent basis, Debye):
    X=              0.0000    Y=             -0.0000    Z=              2.9281  Tot=              2.9281
 Quadrupole moment (field-independent basis, Debye-Ang):
   XX=            -11.5097   YY=            -11.5097   ZZ=             -9.9738
   XY=              0.0000   XZ=              0.0000   YZ=              0.0000

 Normal termination of Gaussian 16 at Wed Oct  7 12:26:06 2020.
