 Gaussian 16, Revision A.03,
 Gaussian 16:  ES64L-G16RevA.03 25-Dec-2016

 ----------------------------------------------------------------------
 #P Opt(MaxCyc=100) BLYP/6-31G* 5D 7F Integral=UltraFineGrid SCF=(NoSym
 m,XQC,MaxCyc=120) EmpiricalDispersion=GD3BJ IOp(1/33=1)
 ----------------------------------------------------------------------

 TstMul:  Mul=     1
 TstMul:  ICh=     0
 TstMul:  Mul=     1
 Symbolic Z-matrix:
 Charge =  0 Multiplicity = 1

 SCF Done:  E(RB-LYP) =  -184.646754426     A.U. after   13 cycles
 SCF Done:  E(RB-LYP) =  -184.649621788     A.U. after   12 cycles
 SCF Done:  E(RB-LYP) =  -184.649713178     A.U. after    9 cycles
 Optimization completed.
    -- Stationary point found.

                         Standard orientation:
 ---------------------------------------------------------------------
 Center     Atomic      Atomic             Coordinates (Angstroms)
 Number     Number       Type             X           Y           Z
 ---------------------------------------------------------------------
      1          7           0        0.000000    0.000000   -1.225024
      2          7           0        0.000000    0.000000   -0.072249
      3          8           0        0.000000    0.000000    1.135114
 ---------------------------------------------------------------------

 The electronic state is 1-SG.
 Alpha  occ. eigenvalues --  -18.89825 -14.24231 -14.12002  -1.12228  -0.97531
 Alpha  occ. eigenvalues --   -0.53276  -0.48553  -0.48553  -0.40806  -0.28930
 Alpha  occ. eigenvalues --   -0.28930
 Alpha virt. eigenvalues --   -0.05237  -0.05237   0.07704   0.38804   0.55312
 Alpha virt. eigenvalues --    0.55650   0.55650   0.68453   0.69553   0.69553
 Alpha virt. eigenvalues --    0.70068   0.89645   0.89645   0.96650   1.28357

 Mulliken charges:
               1
     1  N   -0.104938
     2  N    0.481144
     3  O   -0.376207
 Sum of Mulliken charges =  -0.00000

 Dipole moment (field-independent basis, Debye):
    X=              0.0000    Y=              0.0000    Z=              0.1348  Tot=              0.1348
 Quadrupole moment (field-independent basis, Debye-Ang):
   XX=            -15.0017   YY=            -15.0017   ZZ=            -18.7055
   XY=             -0.0000   XZ=              0.0000   YZ=              0.0000

 Normal termination of Gaussian 16 at Wed Oct  7 12:26:19 2020.
