 Gaussian 16, Revision A.03,
 Gaussian 16:  ES64L-G16RevA.03 25-Dec-2016

 ----------------------------------------------------------------------
 #P Opt(MaxCyc=100) BLYP/6-31G* 5D 7F Integral=UltraFineGrid SCF=(NoSym
 m,XQC,MaxCyc=120) EmpiricalDispersion=GD3BJ IOp(1/33=1)
 ----------------------------------------------------------------------

 TstMul:  Mul=     1
 TstMul:  ICh=    -1
 TstMul:  Mul=     1
 Symbolic Z-matrix:
 Charge = -1 Multiplicity = 1

 SCF Done:  E(RB-LYP) =  -215.496278836     A.U. after   14 cycles
 SCF Done:  E(RB-LYP) =  -215.498268204     A.U. after   12 cycles
 SCF Done:  E(RB-LYP) =  -215.494438803     A.U. after   13 cycles
 SCF Done:  E(RB-LYP) =  -215.501313580     A.U. after   11 cycles
 SCF Done:  E(RB-LYP) =  -215.499865347     A.U. after   12 cycles
 SCF Done:  E(RB-LYP) =  -215.502868902     A.U. after   11 cycles
 SCF Done:  E(RB-LYP) =  -215.503333555     A.U. after   12 cycles
 SCF Done:  E(RB-LYP) =  -215.503877060     A.U. after   11 cycles
 SCF Done:  E(RB-LYP) =  -215.504039505     A.U. after   11 cycles
 SCF Done:  E(RB-LYP) =  -215.504051930     A.U. after    9 cycles
 SCF Done:  E(RB-LYP) =  -215.498084082     A.U. after   14 cycles
 SCF Done:  E(RB-LYP) =  -215.504161986     A.U. after   12 cycles
 SCF Done:  E(RB-LYP) =  -215.503211383     A.U. after   12 cycles
 SCF Done:  E(RB-LYP) =  -215.504409391     A.U. after   12 cycles
 SCF Done:  E(RB-LYP) =  -215.504453812     A.U. after   11 cycles
 SCF Done:  E(RB-LYP) =  -215.504523785     A.U. after   11 cycles
 SCF Done:  E(RB-LYP) =  -215.504531838     A.U. after    8 cycles
 SCF Done:  E(RB-LYP) =  -215.504532703     A.U. after    9 cycles
 SCF Done:  E(RB-LYP) =  -215.504532763     A.U. after    7 cycles
 SCF Done:  E(RB-LYP) =  -215.504532771     A.U. after    7 cycles
 Optimization completed.
    -- Stationary point found.

                         Standard orientation:
 ---------------------------------------------------------------------
 Center     Atomic      Atomic             Coordinates (Angstroms)
 Number     Number       Type             X           Y           Z
 ---------------------------------------------------------------------
      1          6           0       -1.246339   -0.391349   -0.000004
      2          8           0       -0.504613    0.760602    0.000006
      3          1           0       -1.947017   -0.515001   -0.892313
      4          1           0       -0.617274   -1.324228   -0.000018
      5          1           0       -1.947015   -0.515093    0.892313
      6          1           0        0.702677    0.325384    0.000021
      7          9           0        1.702618   -0.189754   -0.000002
 ---------------------------------------------------------------------

 The electronic state is 1-A.
 Alpha  occ. eigenvalues --  -23.91910 -18.48451  -9.73698  -0.69210  -0.60846
 Alpha  occ. eigenvalues --   -0.34740  -0.17068  -0.14047  -0.11916  -0.05947
 Alpha  occ. eigenvalues --    0.01999   0.02016   0.05489   0.06775
 Alpha virt. eigenvalues --    0.27913   0.33889   0.34293   0.38112   0.50664
 Alpha virt. eigenvalues --    0.73972   0.75931   0.76752   0.89642   0.97092
 Alpha virt. eigenvalues --    0.98414   1.03446   1.16491   1.17760   1.20582

 Mulliken charges:
               1
     1  C   -0.074427
     2  O   -0.674208
     3  H   -0.023349
     4  H    0.029785
     5  H   -0.023363
     6  H    0.428248
     7  F   -0.662685
 Sum of Mulliken charges =  -1.00000

 Dipole moment (field-independent basis, Debye):
    X=             -1.3040    Y=             -0.9080    Z=             -0.0000  Tot=              1.5890
 Quadrupole moment (field-independent basis, Debye-Ang):
   XX=            -31.0099   YY=            -22.7255   ZZ=            -20.9206
   XY=              1.6331   XZ=              0.0002   YZ=              0.0000

 Normal termination of Gaussian 16 at Wed Oct  7 12:32:08 2020.
