 Gaussian 16, Revision A.03,

 ----------------------------------------------------------------------
 #P Opt(TS,MaxCyc=50,NoEigenTest,MaxStep=10,AddRedundant) BLYP/6-31G* 5
 D 7F Integral=UltraFineGrid SCF=(NoSymm,XQC,MaxCyc=120) EmpiricalDispe
 rsion=GD3BJ IOp(1/33=1)
 ----------------------------------------------------------------------

 TstMul:  Mul=     1
 TstMul:  ICh=    -1
 TstMul:  Mul=     1
 Symbolic Z-matrix:
 Charge = -1 Multiplicity = 1

 SCF Done:  E(RB-LYP) =  -215.425396918     A.U. after   15 cycles
 SCF Done:  E(RB-LYP) =  -215.427143719     A.U. after   13 cycles
 SCF Done:  E(RB-LYP) =  -215.427397232     A.U. after   11 cycles
 SCF Done:  E(RB-LYP) =  -215.427511324     A.U. after   12 cycles
 SCF Done:  E(RB-LYP) =  -215.427542646     A.U. after   12 cycles
 SCF Done:  E(RB-LYP) =  -215.427567640     A.U. after    9 cycles
 SCF Done:  E(RB-LYP) =  -215.427617110     A.U. after   12 cycles
 SCF Done:  E(RB-LYP) =  -215.427544834     A.U. after   12 cycles
 SCF Done:  E(RB-LYP) =  -215.427500279     A.U. after   12 cycles
 SCF Done:  E(RB-LYP) =  -215.427501399     A.U. after    9 cycles
 SCF Done:  E(RB-LYP) =  -215.427501637     A.U. after    8 cycles
 Optimization completed.
    -- Stationary point found.
 Normal termination of Gaussian 16 at Wed Oct  7 12:28:01 2020.
 Gaussian 16:  ES64L-G16RevA.03 25-Dec-2016

 ----------------------------------------------------------------------
 #P Freq BLYP/6-31G* 5D 7F Integral=UltraFineGrid SCF=(NoSymm,XQC,MaxCy
 c=120) EmpiricalDispersion=GD3BJ IOp(1/33=1) Geom=Check Guess=Read
 ----------------------------------------------------------------------

 TstMul:  Mul=     1
 TstMul:  ICh=    -1
 TstMul:  Mul=     1
 Structure from the checkpoint file:  "MN_63_hoch3fts_BH76_BLYPDBJ_631Gs.chk"
 Charge = -1 Multiplicity = 1

                         Standard orientation:
 ---------------------------------------------------------------------
 Center     Atomic      Atomic             Coordinates (Angstroms)
 Number     Number       Type             X           Y           Z
 ---------------------------------------------------------------------
      1          9           0        1.894474   -0.021728   -0.000048
      2          6           0        0.074754    0.031527    0.000031
      3          1           0        0.032644    1.115391   -0.000613
      4          1           0        0.017426   -0.501195   -0.942945
      5          1           0        0.018428   -0.500004    0.943739
      6          8           0       -1.935607    0.096534   -0.000000
      7          1           0       -2.082434   -0.880066    0.000065
 ---------------------------------------------------------------------

 SCF Done:  E(RB-LYP) =  -215.427501637     A.U. after    1 cycles

 The electronic state is 1-A.
 Alpha  occ. eigenvalues --  -23.90752 -18.46533  -9.73583  -0.65873  -0.54235
 Alpha  occ. eigenvalues --   -0.36653  -0.15499  -0.15499  -0.07222  -0.03260
 Alpha  occ. eigenvalues --    0.04074   0.04155   0.07220   0.08680
 Alpha virt. eigenvalues --    0.25927   0.27799   0.33406   0.34941   0.35153
 Alpha virt. eigenvalues --    0.74245   0.74861   0.86199   0.95805   1.02135
 Alpha virt. eigenvalues --    1.04573   1.06397   1.14011   1.17339   1.28209

 Mulliken charges:
               1
     1  F   -0.582800
     2  C   -0.112587
     3  H    0.105348
     4  H    0.094338
     5  H    0.094356
     6  O   -0.839424
     7  H    0.240769
 Sum of Mulliken charges =  -1.00000

 Dipole moment (field-independent basis, Debye):
    X=              0.3626    Y=             -1.1334    Z=              0.0002  Tot=              1.1899
 Quadrupole moment (field-independent basis, Debye-Ang):
   XX=            -40.8283   YY=            -18.2567   ZZ=            -19.6699
   XY=              2.8427   XZ=              0.0009   YZ=             -0.0001

  Exact polarizability:  42.758   2.406  20.648   0.002  -0.000  16.064
 Approx polarizability:  98.996   0.220  31.745   0.005  -0.000  22.355

 ******    1 imaginary frequencies (negative Signs) ******

                      1                      2                      3
                      A                      A                      A
 Frequencies --   -414.3822               201.5844               272.2185
 Red. masses --      9.5952                 1.0518                 3.4417
 Frc consts  --      0.9707                 0.0252                 0.1503
 IR Inten    --    639.3605                39.9374                11.6523

                      4                      5                      6
                      A                      A                      A
 Frequencies --    289.2236               311.7334               760.4036
 Red. masses --      4.4792                12.6915                 1.1158
 Frc consts  --      0.2208                 0.7267                 0.3801
 IR Inten    --     19.1677                 3.9472                23.3616

                      7                      8                      9
                      A                      A                      A
 Frequencies --    904.2093               952.7636              1039.1772
 Red. masses --      1.0204                 1.0633                 1.0591
 Frc consts  --      0.4916                 0.5687                 0.6739
 IR Inten    --      0.0307                 4.5484                 1.4167

                     10                     11                     12
                      A                      A                      A
 Frequencies --   1347.4972              1352.4272              3059.2444
 Red. masses --      1.1242                 1.1144                 1.0084
 Frc consts  --      1.2027                 1.2009                 5.5607
 IR Inten    --      0.8961                 1.3667                 0.1202

                     13                     14                     15
                      A                      A                      A
 Frequencies --   3234.7913              3237.5932              3453.7968
 Red. masses --      1.1281                 1.1259                 1.0678
 Frc consts  --      6.9552                 6.9536                 7.5044
 IR Inten    --     52.1522                43.3964                91.9806

 - Thermochemistry -
 -------------------
 Temperature   298.150 Kelvin.  Pressure   1.00000 Atm.
 Atom     1 has atomic number  9 and mass  18.99840

 Molecular mass:    51.02462 amu.
 Principal axes and moments of inertia in atomic units:
                           1         2         3
     Eigenvalues --    15.94013 478.79324 481.92242
           X            0.99989   0.01492   0.00001
           Y           -0.01492   0.99989  -0.00001
           Z           -0.00001   0.00001   1.00000
 This molecule is an asymmetric top.
 Rotational symmetry number  1.
 Rotational temperatures (Kelvin)      5.43370     0.18090     0.17973
 Rotational constants (GHZ):         113.22000     3.76935     3.74488
    1 imaginary frequencies ignored.
 Zero-point vibrational energy     122118.8 (Joules/Mol)
                                   29.18709 (Kcal/Mol)
 Warning -- explicit consideration of   4 degrees of freedom as
           vibrations may cause significant error
 Vibrational temperatures:    290.04   391.66   416.13   448.51  1094.05
          (Kelvin)           1300.96  1370.81  1495.14  1938.75  1945.84
                             4401.57  4654.14  4658.17  4969.24

 Zero-point correction=                           0.046513 (Hartree/Particle)
 Thermal correction to Energy=                    0.051437
 Thermal correction to Enthalpy=                  0.052381
 Thermal correction to Gibbs Free Energy=         0.020221
 Sum of electronic and zero-point Energies=           -215.380989
 Sum of electronic and thermal Energies=              -215.376065
 Sum of electronic and thermal Enthalpies=            -215.375121
 Sum of electronic and thermal Free Energies=         -215.407280

                     E (Thermal)             CV                S
                      KCal/Mol        Cal/Mol-Kelvin    Cal/Mol-Kelvin
 Total                   32.277             15.101             67.685
 Electronic               0.000              0.000              0.000
 Translational            0.889              2.981             37.712
 Rotational               0.889              2.981             22.824
 Vibrational             30.500              9.139              7.149
 Vibration     1          0.638              1.838              2.119
 Vibration     2          0.675              1.725              1.582
 Vibration     3          0.686              1.694              1.478
 Vibration     4          0.700              1.651              1.353

 Optimization completed.
    -- Stationary point found.
 Normal termination of Gaussian 16 at Wed Oct  7 12:28:32 2020.
