 Gaussian 16, Revision A.03,

 ----------------------------------------------------------------------
 #P Opt(TS,MaxCyc=50,NoEigenTest,MaxStep=10,AddRedundant) BLYP/6-31G* 5
 D 7F Integral=UltraFineGrid SCF=(NoSymm,XQC,MaxCyc=120) EmpiricalDispe
 rsion=GD3BJ IOp(1/33=1)
 ----------------------------------------------------------------------

 TstMul:  Mul=     2
 TstMul:  ICh=     0
 TstMul:  Mul=     2
 Symbolic Z-matrix:
 Charge =  0 Multiplicity = 2

 SCF Done:  E(UB-LYP) =  -461.271697645     A.U. after   12 cycles
 SCF Done:  E(UB-LYP) =  -461.274239953     A.U. after   11 cycles
 SCF Done:  E(UB-LYP) =  -461.275897476     A.U. after   11 cycles
 SCF Done:  E(UB-LYP) =  -461.277008785     A.U. after   11 cycles
 SCF Done:  E(UB-LYP) =  -461.277800499     A.U. after   11 cycles
 SCF Done:  E(UB-LYP) =  -461.278406328     A.U. after   11 cycles
 SCF Done:  E(UB-LYP) =  -461.278894895     A.U. after   11 cycles
 SCF Done:  E(UB-LYP) =  -461.279298233     A.U. after   11 cycles
 SCF Done:  E(UB-LYP) =  -461.279631909     A.U. after   11 cycles
 SCF Done:  E(UB-LYP) =  -461.279905907     A.U. after   11 cycles
 SCF Done:  E(UB-LYP) =  -461.280127969     A.U. after   11 cycles
 SCF Done:  E(UB-LYP) =  -461.280304340     A.U. after   11 cycles
 SCF Done:  E(UB-LYP) =  -461.280440616     A.U. after   11 cycles
 SCF Done:  E(UB-LYP) =  -461.280542018     A.U. after   11 cycles
 SCF Done:  E(UB-LYP) =  -461.280613570     A.U. after   11 cycles
 SCF Done:  E(UB-LYP) =  -461.280660001     A.U. after   11 cycles
 SCF Done:  E(UB-LYP) =  -461.280685474     A.U. after   11 cycles
 SCF Done:  E(UB-LYP) =  -461.280692542     A.U. after   11 cycles
 SCF Done:  E(UB-LYP) =  -461.280692852     A.U. after    8 cycles
 Optimization completed.
    -- Stationary point found.
 Normal termination of Gaussian 16 at Wed Oct  7 12:30:04 2020.
 Gaussian 16:  ES64L-G16RevA.03 25-Dec-2016

 ----------------------------------------------------------------------
 #P Freq BLYP/6-31G* 5D 7F Integral=UltraFineGrid SCF=(NoSymm,XQC,MaxCy
 c=120) EmpiricalDispersion=GD3BJ IOp(1/33=1) Geom=Check Guess=Read
 ----------------------------------------------------------------------

 TstMul:  Mul=     2
 TstMul:  ICh=     0
 TstMul:  Mul=     2
 Structure from the checkpoint file:  "MN_78_RKT01_BH76_BLYPDBJ_631Gs.chk"
 Charge =  0 Multiplicity = 2

                         Standard orientation:
 ---------------------------------------------------------------------
 Center     Atomic      Atomic             Coordinates (Angstroms)
 Number     Number       Type             X           Y           Z
 ---------------------------------------------------------------------
      1          1           0        0.000000    0.000000   -1.889608
      2         17           0        0.000000    0.000000    0.267142
      3          1           0        0.000000    0.000000   -2.651807
 ---------------------------------------------------------------------

 SCF Done:  E(UB-LYP) =  -461.280692852     A.U. after    1 cycles

 The electronic state is 2-SG.
 Alpha  occ. eigenvalues -- -100.76392  -9.20454  -7.04643  -7.02487  -7.02487
 Alpha  occ. eigenvalues --   -0.74748  -0.42871  -0.32535  -0.28965  -0.28965
 Alpha virt. eigenvalues --    0.07446   0.32468   0.39923   0.39923   0.42557
 Alpha virt. eigenvalues --    0.59206   0.75409   0.75409   0.79793   0.79793
 Alpha virt. eigenvalues --    0.82466   1.11068
  Beta  occ. eigenvalues -- -100.75855  -9.19950  -7.03202  -7.02165  -7.02165
  Beta  occ. eigenvalues --   -0.71167  -0.41231  -0.27631  -0.27631
  Beta virt. eigenvalues --   -0.26525   0.08381   0.34263   0.40542   0.40542
  Beta virt. eigenvalues --    0.45284   0.62090   0.80585   0.80585   0.80619
  Beta virt. eigenvalues --    0.80619   0.87437   1.12557

 Mulliken charges and spin densities:
               1          2
     1  H   -0.017034  -0.022281
     2  Cl  -0.051124   0.899570
     3  H    0.068158   0.122711
 Sum of Mulliken charges =  -0.00000   1.00000

 Dipole moment (field-independent basis, Debye):
    X=              0.0000    Y=              0.0000    Z=             -0.7890  Tot=              0.7890
 Quadrupole moment (field-independent basis, Debye-Ang):
   XX=            -15.0060   YY=            -15.0060   ZZ=            -10.6168
   XY=              0.0000   XZ=              0.0000   YZ=              0.0000

  Exact polarizability:   5.771  -0.000   5.771  -0.000   0.000  28.916
 Approx polarizability:   7.435  -0.000   7.435  -0.000   0.000  46.700

                      1                      2                      3
                     PI                     PI                     SG
 Frequencies --     46.3728                46.3728               217.4232
 Red. masses --      1.0091                 1.0091                 1.0641
 Frc consts  --      0.0013                 0.0013                 0.0296
 IR Inten    --      1.0461                 1.0461                34.6284

                      4
                     SG
 Frequencies --   4011.5041
 Red. masses --      1.0078
 Frc consts  --      9.5556
 IR Inten    --    330.6360

 - Thermochemistry -
 -------------------
 Temperature   298.150 Kelvin.  Pressure   1.00000 Atm.
 Atom     1 has atomic number  1 and mass   1.00783

 Molecular mass:    36.98450 amu.
 Principal axes and moments of inertia in atomic units:
                           1         2         3
     Eigenvalues --     0.00000  44.87893  44.87893
           X            0.00000   0.00000   1.00000
           Y            0.00000   1.00000   0.00000
           Z            1.00000   0.00000   0.00000
 This molecule is a prolate symmetric top.
 Rotational symmetry number  1.
 Rotational temperature (Kelvin)      1.92995
 Rotational constant (GHZ):          40.213553
 Zero-point vibrational energy      25849.3 (Joules/Mol)
                                    6.17814 (Kcal/Mol)
 Warning -- explicit consideration of   3 degrees of freedom as
           vibrations may cause significant error
 Vibrational temperatures:     66.72    66.72   312.82  5771.66
          (Kelvin)

 Zero-point correction=                           0.009845 (Hartree/Particle)
 Thermal correction to Energy=                    0.014425
 Thermal correction to Enthalpy=                  0.015369
 Thermal correction to Gibbs Free Energy=        -0.014111
 Sum of electronic and zero-point Energies=           -461.270847
 Sum of electronic and thermal Energies=              -461.266268
 Sum of electronic and thermal Enthalpies=            -461.265324
 Sum of electronic and thermal Free Energies=         -461.294804

                     E (Thermal)             CV                S
                      KCal/Mol        Cal/Mol-Kelvin    Cal/Mol-Kelvin
 Total                    9.052             10.740             62.047
 Electronic               0.000              0.000              1.377
 Translational            0.889              2.981             36.753
 Rotational               0.592              1.987             12.003
 Vibrational              7.571              5.772             11.913
 Vibration     1          0.595              1.979              4.966
 Vibration     2          0.595              1.979              4.966
 Vibration     3          0.646              1.815              1.980

 Optimization completed.
    -- Stationary point found.

 1\1\GINC-NODE06\Freq\UBLYP\6-31G(d)\Cl1H2(2)\RPEVERATI\07-Oct-2020\0\\
 #P Freq BLYP/6-31G* 5D 7F Integral=UltraFineGrid SCF=(NoSymm,XQC,MaxCy
 c=120) EmpiricalDispersion=GD3BJ IOp(1/33=1) Geom=Check Guess=Read\\TS
  search on BH76.\\0,2\H,0.,0.,-1.548862552\Cl,0.,0.,0.6078875029\H,0.,
 0.,-2.3110618036\\Version=ES64L-G16RevA.03\State=2-SG\HF=-461.2806929\
 S2=0.751827\S2-1=0.\S2A=0.750002\RMSD=2.565e-09\RMSF=1.044e-05\ZeroPoi
 nt=0.0098455\Thermal=0.0144248\Dipole=0.,0.,-0.3104081\DipoleDeriv=0.0
 001679,0.,0.,0.,0.0001679,0.,0.,0.,-0.538042,-0.0563431,0.,0.,0.,-0.05

 Normal termination of Gaussian 16 at Wed Oct  7 12:30:28 2020.
