 Gaussian 16, Revision A.03,

 ----------------------------------------------------------------------
 #P Opt(TS,MaxCyc=50,NoEigenTest,MaxStep=10,AddRedundant) BLYP/6-31G* 5
 D 7F Integral=UltraFineGrid SCF=(NoSymm,XQC,MaxCyc=120) EmpiricalDispe
 rsion=GD3BJ IOp(1/33=1)
 ----------------------------------------------------------------------

 TstMul:  Mul=     2
 TstMul:  ICh=     0
 TstMul:  Mul=     2
 Symbolic Z-matrix:
 Charge =  0 Multiplicity = 2

 SCF Done:  E(UB-LYP) =  -76.8726159614     A.U. after   14 cycles
 SCF Done:  E(UB-LYP) =  -76.8730457036     A.U. after   13 cycles
 SCF Done:  E(UB-LYP) =  -76.8733374183     A.U. after   13 cycles
 SCF Done:  E(UB-LYP) =  -76.8734847106     A.U. after   11 cycles
 SCF Done:  E(UB-LYP) =  -76.8736526902     A.U. after   13 cycles
 SCF Done:  E(UB-LYP) =  -76.8734868907     A.U. after   14 cycles
 SCF Done:  E(UB-LYP) =  -76.8733097799     A.U. after   14 cycles
 SCF Done:  E(UB-LYP) =  -76.8731440133     A.U. after   14 cycles
 SCF Done:  E(UB-LYP) =  -76.8730486327     A.U. after   13 cycles
 SCF Done:  E(UB-LYP) =  -76.8730527793     A.U. after   14 cycles
 SCF Done:  E(UB-LYP) =  -76.8730640977     A.U. after   11 cycles
 SCF Done:  E(UB-LYP) =  -76.8730869874     A.U. after   13 cycles
 SCF Done:  E(UB-LYP) =  -76.8730946136     A.U. after   14 cycles
 SCF Done:  E(UB-LYP) =  -76.8730950683     A.U. after    9 cycles
 Optimization completed.
    -- Stationary point found.
 Normal termination of Gaussian 16 at Wed Oct  7 12:29:05 2020.
 Gaussian 16:  ES64L-G16RevA.03 25-Dec-2016

 ----------------------------------------------------------------------
 #P Freq BLYP/6-31G* 5D 7F Integral=UltraFineGrid SCF=(NoSymm,XQC,MaxCy
 c=120) EmpiricalDispersion=GD3BJ IOp(1/33=1) Geom=Check Guess=Read
 ----------------------------------------------------------------------

 TstMul:  Mul=     2
 TstMul:  ICh=     0
 TstMul:  Mul=     2
 Structure from the checkpoint file:  "MN_79_RKT02_BH76_BLYPDBJ_631Gs.chk"
 Charge =  0 Multiplicity = 2

                         Standard orientation:
 ---------------------------------------------------------------------
 Center     Atomic      Atomic             Coordinates (Angstroms)
 Number     Number       Type             X           Y           Z
 ---------------------------------------------------------------------
      1          8           0       -0.317355   -0.112602    0.000010
      2          1           0       -0.491710    0.864354   -0.000020
      3          1           0        1.121123   -0.088173   -0.000155
      4          1           0        1.909428    0.124636    0.000099
 ---------------------------------------------------------------------

 SCF Done:  E(UB-LYP) =  -76.8730950683     A.U. after    1 cycles

 The electronic state is 2-A.
 Alpha  occ. eigenvalues --  -18.83049  -0.89058  -0.44764  -0.37963  -0.27226
 Alpha  occ. eigenvalues --   -0.24634
 Alpha virt. eigenvalues --    0.04978   0.14323   0.59506   0.73375   0.78502
 Alpha virt. eigenvalues --    0.81781   0.97266   1.00064   1.33921   1.65285
 Alpha virt. eigenvalues --    1.69238   1.70422   1.85683   2.32371
  Beta  occ. eigenvalues --  -18.81306  -0.84941  -0.41984  -0.35454  -0.22804
  Beta virt. eigenvalues --   -0.19036   0.05714   0.16376   0.61736   0.74199
  Beta virt. eigenvalues --    0.82533   0.82952   0.98840   1.03775   1.36990
  Beta virt. eigenvalues --    1.69965   1.70063   1.74811   1.90257   2.34261

 Mulliken charges and spin densities:
               1          2
     1  O   -0.487932   0.780224
     2  H    0.379356  -0.021865
     3  H    0.113870  -0.070859
     4  H   -0.005294   0.312500
 Sum of Mulliken charges =  -0.00000   1.00000

 Dipole moment (field-independent basis, Debye):
    X=              0.3170    Y=              1.6000    Z=             -0.0001  Tot=              1.6311
 Quadrupole moment (field-independent basis, Debye-Ang):
   XX=             -6.6679   YY=             -6.5701   ZZ=             -8.4724
   XY=             -0.7653   XZ=              0.0001   YZ=             -0.0000

  Exact polarizability:  21.643   0.472   7.174   0.002   0.001   2.534
 Approx polarizability:  38.336   2.986  10.909   0.003   0.001   2.927

 ******    1 imaginary frequencies (negative Signs) ******

                      1                      2                      3
                      A                      A                      A
 Frequencies --   -464.2497               332.4297               614.1832
 Red. masses --      1.1188                 1.0180                 1.0228
 Frc consts  --      0.1421                 0.0663                 0.2273
 IR Inten    --     32.2374                19.0907                36.0302

                      4                      5                      6
                      A                      A                      A
 Frequencies --    986.0622              2797.5467              3498.9572
 Red. masses --      1.0571                 1.0122                 1.0667
 Frc consts  --      0.6056                 4.6674                 7.6942
 IR Inten    --    107.7660                76.6406                 2.4926

 - Thermochemistry -
 -------------------
 Temperature   298.150 Kelvin.  Pressure   1.00000 Atm.
 Atom     1 has atomic number  8 and mass  15.99491

 Molecular mass:    19.01839 amu.
 Principal axes and moments of inertia in atomic units:
                           1         2         3
     Eigenvalues --     3.32953  23.09591  26.42544
           X            0.99955  -0.02986   0.00000
           Y            0.02986   0.99955   0.00000
           Z           -0.00000  -0.00000   1.00000
 This molecule is an asymmetric top.
 Rotational symmetry number  1.
 Rotational temperatures (Kelvin)     26.01387     3.75018     3.27767
 Rotational constants (GHZ):         542.04114    78.14116    68.29560
    1 imaginary frequencies ignored.
 Zero-point vibrational energy      49221.4 (Joules/Mol)
                                   11.76420 (Kcal/Mol)
 Warning -- explicit consideration of   2 degrees of freedom as
           vibrations may cause significant error
 Vibrational temperatures:    478.29   883.67  1418.72  4025.05  5034.22
          (Kelvin)

 Zero-point correction=                           0.018747 (Hartree/Particle)
 Thermal correction to Energy=                    0.022152
 Thermal correction to Enthalpy=                  0.023097
 Thermal correction to Gibbs Free Energy=        -0.002224
 Sum of electronic and zero-point Energies=            -76.854348
 Sum of electronic and thermal Energies=               -76.850943
 Sum of electronic and thermal Enthalpies=             -76.849999
 Sum of electronic and thermal Free Energies=          -76.875319

                     E (Thermal)             CV                S
                      KCal/Mol        Cal/Mol-Kelvin    Cal/Mol-Kelvin
 Total                   13.901              8.967             53.292
 Electronic               0.000              0.000              1.377
 Translational            0.889              2.981             34.771
 Rotational               0.889              2.981             15.371
 Vibrational             12.123              3.006              1.773
 Vibration     1          0.714              1.611              1.248
 Vibration     2          0.974              1.002              0.426

 Optimization completed.
    -- Stationary point found.
 Normal termination of Gaussian 16 at Wed Oct  7 12:29:28 2020.
