 Gaussian 16, Revision A.03,
 Gaussian 16:  ES64L-G16RevA.03 25-Dec-2016

 ----------------------------------------------------------------------
 #P Opt(MaxCyc=100) BLYP/6-31G* 5D 7F Integral=UltraFineGrid SCF=(NoSym
 m,XQC,MaxCyc=120) EmpiricalDispersion=GD3BJ IOp(1/33=1)
 ----------------------------------------------------------------------

 TstMul:  Mul=     2
 TstMul:  ICh=     0
 TstMul:  Mul=     2
 Symbolic Z-matrix:
 Charge =  0 Multiplicity = 2

 SCF Done:  E(UB-LYP) =  -55.8479616773     A.U. after   11 cycles
 SCF Done:  E(UB-LYP) =  -55.8485861255     A.U. after   10 cycles
 SCF Done:  E(UB-LYP) =  -55.8486128461     A.U. after    8 cycles
 SCF Done:  E(UB-LYP) =  -55.8486131837     A.U. after    6 cycles
 Optimization completed.
    -- Stationary point found.

                         Standard orientation:
 ---------------------------------------------------------------------
 Center     Atomic      Atomic             Coordinates (Angstroms)
 Number     Number       Type             X           Y           Z
 ---------------------------------------------------------------------
      1          7           0       -0.000000    0.000000    0.147249
      2          1           0        0.000000    0.809149   -0.515371
      3          1           0       -0.000000   -0.809149   -0.515371
 ---------------------------------------------------------------------

 The electronic state is 2-B1.
 Alpha  occ. eigenvalues --  -14.04604  -0.75840  -0.40590  -0.26189  -0.24675
 Alpha virt. eigenvalues --    0.05047   0.11774   0.60711   0.63904   0.67036
 Alpha virt. eigenvalues --    0.77247   0.81783   1.03964   1.60030   1.61900
 Alpha virt. eigenvalues --    1.62503   2.00353   2.28223
  Beta  occ. eigenvalues --  -14.02900  -0.71723  -0.39416  -0.24046
  Beta virt. eigenvalues --   -0.13989   0.06018   0.12358   0.64184   0.68456
  Beta virt. eigenvalues --    0.68653   0.79084   0.82802   1.07924   1.63891
  Beta virt. eigenvalues --    1.66828   1.69122   2.07870   2.29306

 Mulliken charges and spin densities:
               1          2
     1  N   -0.551102   1.069757
     2  H    0.275551  -0.034879
     3  H    0.275551  -0.034879
 Sum of Mulliken charges =  -0.00000   1.00000

 Dipole moment (field-independent basis, Debye):
    X=             -0.0000    Y=              0.0000    Z=             -1.9323  Tot=              1.9323
 Quadrupole moment (field-independent basis, Debye-Ang):
   XX=             -6.9625   YY=             -5.6135   ZZ=             -7.3152
   XY=              0.0000   XZ=              0.0000   YZ=              0.0000

 Normal termination of Gaussian 16 at Wed Oct  7 12:26:38 2020.
