 Gaussian 16, Revision A.03,
 Gaussian 16:  ES64L-G16RevA.03 25-Dec-2016

 ----------------------------------------------------------------------
 #P Opt(MaxCyc=100) BLYP/6-31G* 5D 7F Integral=UltraFineGrid SCF=(NoSym
 m,XQC,MaxCyc=120) EmpiricalDispersion=GD3BJ IOp(1/33=1)
 ----------------------------------------------------------------------

 TstMul:  Mul=     2
 TstMul:  ICh=     0
 TstMul:  Mul=     2
 Symbolic Z-matrix:
 Charge =  0 Multiplicity = 2

 SCF Done:  E(UB-LYP) =  -342.473827303     A.U. after   12 cycles
 SCF Done:  E(UB-LYP) =  -342.474364871     A.U. after   11 cycles
 SCF Done:  E(UB-LYP) =  -342.474366433     A.U. after    7 cycles
 Optimization completed.
    -- Stationary point found.

                         Standard orientation:
 ---------------------------------------------------------------------
 Center     Atomic      Atomic             Coordinates (Angstroms)
 Number     Number       Type             X           Y           Z
 ---------------------------------------------------------------------
      1         15           0        0.000000    0.000000    0.118926
      2          1           0        0.000000    1.030761   -0.891943
      3          1           0       -0.000000   -1.030761   -0.891943
 ---------------------------------------------------------------------

 The electronic state is 2-B1.
 Alpha  occ. eigenvalues --  -76.38034  -6.31821  -4.54680  -4.54247  -4.53912
 Alpha  occ. eigenvalues --   -0.56905  -0.34095  -0.26816  -0.20703
 Alpha virt. eigenvalues --    0.00273   0.05059   0.21980   0.25177   0.26959
 Alpha virt. eigenvalues --    0.27313   0.59728   0.60379   0.61319   0.63358
 Alpha virt. eigenvalues --    0.68558   0.89344   1.05249
  Beta  occ. eigenvalues --  -76.37677  -6.31455  -4.54012  -4.53690  -4.53680
  Beta  occ. eigenvalues --   -0.54711  -0.33594  -0.25599
  Beta virt. eigenvalues --   -0.14799   0.00847   0.06792   0.24019   0.25740
  Beta virt. eigenvalues --    0.28024   0.30339   0.62053   0.63463   0.64661
  Beta virt. eigenvalues --    0.65156   0.72987   0.90705   1.05622

 Mulliken charges and spin densities:
               1          2
     1  P   -0.015957   1.065509
     2  H    0.007979  -0.032754
     3  H    0.007979  -0.032754
 Sum of Mulliken charges =   0.00000   1.00000

 Dipole moment (field-independent basis, Debye):
    X=              0.0000    Y=              0.0000    Z=             -0.8395  Tot=              0.8395
 Quadrupole moment (field-independent basis, Debye-Ang):
   XX=            -14.9444   YY=            -13.9895   ZZ=            -15.3971
   XY=             -0.0000   XZ=             -0.0000   YZ=             -0.0000

 Normal termination of Gaussian 16 at Wed Oct  7 12:26:49 2020.
