 Gaussian 16, Revision A.03,
 Gaussian 16:  ES64L-G16RevA.03 25-Dec-2016

 ----------------------------------------------------------------------
 #P Opt(MaxCyc=100) BLYP/6-31G* 5D 7F Integral=UltraFineGrid SCF=(NoSym
 m,XQC,MaxCyc=120) EmpiricalDispersion=GD3BJ IOp(1/33=1)
 ----------------------------------------------------------------------

 TstMul:  Mul=     1
 TstMul:  ICh=     0
 TstMul:  Mul=     1
 Symbolic Z-matrix:
 Charge =  0 Multiplicity = 1

 SCF Done:  E(RB-LYP) =  -343.104343991     A.U. after   10 cycles
 SCF Done:  E(RB-LYP) =  -343.105043289     A.U. after    9 cycles
 SCF Done:  E(RB-LYP) =  -343.105056049     A.U. after    7 cycles
 Optimization completed.
    -- Stationary point found.

                         Standard orientation:
 ---------------------------------------------------------------------
 Center     Atomic      Atomic             Coordinates (Angstroms)
 Number     Number       Type             X           Y           Z
 ---------------------------------------------------------------------
      1         15           0        0.000000    0.000000    0.131454
      2          1           0        0.000000    1.201359   -0.657269
      3          1           0        1.040408   -0.600680   -0.657269
      4          1           0       -1.040408   -0.600680   -0.657269
 ---------------------------------------------------------------------

 The electronic state is 1-A1.
 Alpha  occ. eigenvalues --  -76.36494  -6.30520  -4.53049  -4.53049  -4.52573
 Alpha  occ. eigenvalues --   -0.57854  -0.33813  -0.33813  -0.23576
 Alpha virt. eigenvalues --    0.00806   0.00806   0.08628   0.25483   0.25483
 Alpha virt. eigenvalues --    0.27618   0.36641   0.61818   0.61818   0.63645
 Alpha virt. eigenvalues --    0.63815   0.63815   0.87297   1.06874   1.06874

 Mulliken charges:
               1
     1  P   -0.105539
     2  H    0.035180
     3  H    0.035180
     4  H    0.035180
 Sum of Mulliken charges =  -0.00000

 Dipole moment (field-independent basis, Debye):
    X=              0.0000    Y=              0.0000    Z=             -0.9506  Tot=              0.9506
 Quadrupole moment (field-independent basis, Debye-Ang):
   XX=            -14.6642   YY=            -14.6642   ZZ=            -16.9450
   XY=             -0.0000   XZ=             -0.0000   YZ=              0.0000

 Normal termination of Gaussian 16 at Wed Oct  7 12:27:02 2020.
