 Gaussian 16, Revision A.03,
 Gaussian 16:  ES64L-G16RevA.03 25-Dec-2016

 ----------------------------------------------------------------------
 #P Opt(MaxCyc=100) BLYP/6-31G* 5D 7F Integral=UltraFineGrid SCF=(NoSym
 m,XQC,MaxCyc=120) EmpiricalDispersion=GD3BJ IOp(1/33=1)
 ----------------------------------------------------------------------

 TstMul:  Mul=     1
 TstMul:  ICh=    -1
 TstMul:  Mul=     1
 Symbolic Z-matrix:
 Charge = -1 Multiplicity = 1

 SCF Done:  E(RB-LYP) =  -75.6937896947     A.U. after   11 cycles
 SCF Done:  E(RB-LYP) =  -75.6949557840     A.U. after   10 cycles
 SCF Done:  E(RB-LYP) =  -75.6950097487     A.U. after    7 cycles
 Optimization completed.
    -- Stationary point found.

                         Standard orientation:
 ---------------------------------------------------------------------
 Center     Atomic      Atomic             Coordinates (Angstroms)
 Number     Number       Type             X           Y           Z
 ---------------------------------------------------------------------
      1          8           0        0.000000    0.000000    0.111437
      2          1           0        0.000000    0.000000   -0.891494
 ---------------------------------------------------------------------

 The electronic state is 1-SG.
 Alpha  occ. eigenvalues --  -18.30550  -0.37733   0.06976   0.22983   0.22983
 Alpha virt. eigenvalues --    0.38906   1.12320   1.24710   1.24710   1.28906
 Alpha virt. eigenvalues --    1.62111   2.15294   2.15294   2.21330   2.21330
 Alpha virt. eigenvalues --    2.76301

 Mulliken charges:
               1
     1  O   -1.122026
     2  H    0.122026
 Sum of Mulliken charges =  -1.00000

 Dipole moment (field-independent basis, Debye):
    X=              0.0000    Y=              0.0000    Z=             -1.0677  Tot=              1.0677
 Quadrupole moment (field-independent basis, Debye-Ang):
   XX=             -7.9721   YY=             -7.9721   ZZ=             -6.9187
   XY=             -0.0000   XZ=              0.0000   YZ=              0.0000

 1\1\GINC-NODE62\FOpt\RBLYP\6-31G(d)\H1O1(1-)\RPEVERATI\07-Oct-2020\0\\
 #P Opt(MaxCyc=100) BLYP/6-31G* 5D 7F Integral=UltraFineGrid SCF=(NoSym
 m,XQC,MaxCyc=120) EmpiricalDispersion=GD3BJ IOp(1/33=1)\\TS search on
 BH76.\\-1,1\O,0.,0.,0.1273370668\H,0.,0.,-0.8755936429\\Version=ES64L-
 G16RevA.03\State=1-SG\HF=-75.6950097\RMSD=7.894e-09\RMSF=1.619e-05\Dip
 ole=0.,0.,-0.4200807\Quadrupole=-0.2610537,-0.2610537,0.5221075,0.,0.,
 0.\PG=C*V [C*(H1O1)]\\@

 Normal termination of Gaussian 16 at Wed Oct  7 12:27:02 2020.
