 Gaussian 16, Revision A.03,
 Gaussian 16:  ES64L-G16RevA.03 25-Dec-2016

 ----------------------------------------------------------------------
 #P BLYP/6-31G* 5D 7F Integral=UltraFineGrid SCF=(NoSymm,XQC,MaxCyc=120
 ) EmpiricalDispersion=GD3BJ IOp(1/33=1) Stable=Opt
 ----------------------------------------------------------------------

 TstMul:  Mul=     3
 TstMul:  ICh=     0
 TstMul:  Mul=     3
 Symbolic Z-matrix:
 Charge =  0 Multiplicity = 3

                         Standard orientation:
 ---------------------------------------------------------------------
 Center     Atomic      Atomic             Coordinates (Angstroms)
 Number     Number       Type             X           Y           Z
 ---------------------------------------------------------------------
      1          8           0        0.000000    0.000000    0.000000
 ---------------------------------------------------------------------

 SCF Done:  E(UB-LYP) =  -75.0455522531     A.U. after   38 cycles

 Unable to determine electronic state:  an orbital has unidentified symmetry.
 Alpha  occ. eigenvalues --  -18.92630  -0.89316  -0.36979  -0.36979  -0.29539
 Alpha virt. eigenvalues --    0.74289   0.74289   0.78899   0.87098   1.62155
 Alpha virt. eigenvalues --    1.62155   1.66988   1.66988   1.68695
  Beta  occ. eigenvalues --  -18.88239  -0.77068  -0.24995
  Beta virt. eigenvalues --   -0.21890  -0.21890   0.81709   0.84320   0.84320
  Beta virt. eigenvalues --    0.94920   1.73566   1.73566   1.74567   1.75265
  Beta virt. eigenvalues --    1.75265

 Mulliken charges and spin densities:
               1          2
     1  O   -0.000000   2.000000
 Sum of Mulliken charges =  -0.00000   2.00000

 Dipole moment (field-independent basis, Debye):
    X=              0.0000    Y=              0.0000    Z=              0.0000  Tot=              0.0000
 Quadrupole moment (field-independent basis, Debye-Ang):
   XX=             -4.5486   YY=             -5.6299   ZZ=             -4.5630
   XY=             -0.0000   XZ=             -0.0000   YZ=             -0.1247

 Normal termination of Gaussian 16 at Wed Oct  7 12:26:15 2020.
