 Gaussian 16, Revision A.03,

 ----------------------------------------------------------------------
 #P Opt(TS,MaxCyc=50,NoEigenTest,MaxStep=10,AddRedundant) BLYP/6-31G* 5
 D 7F Integral=UltraFineGrid SCF=(NoSymm,XQC,MaxCyc=120) EmpiricalDispe
 rsion=GD3BJ IOp(1/33=1)
 ----------------------------------------------------------------------

 TstMul:  Mul=     2
 TstMul:  ICh=     0
 TstMul:  Mul=     2
 Symbolic Z-matrix:
 Charge =  0 Multiplicity = 2

 SCF Done:  E(UB-LYP) =  -116.188232250     A.U. after   13 cycles
 SCF Done:  E(UB-LYP) =  -116.188265628     A.U. after   10 cycles
 SCF Done:  E(UB-LYP) =  -116.188263271     A.U. after   10 cycles
 SCF Done:  E(UB-LYP) =  -116.188614460     A.U. after   12 cycles
 SCF Done:  E(UB-LYP) =  -116.189205887     A.U. after   12 cycles
 SCF Done:  E(UB-LYP) =  -116.189261731     A.U. after   12 cycles
 SCF Done:  E(UB-LYP) =  -116.189262901     A.U. after   10 cycles
 SCF Done:  E(UB-LYP) =  -116.189263332     A.U. after    9 cycles
 Optimization completed.
    -- Stationary point found.

 1\1\GINC-NODE61\FTS\UBLYP\6-31G(d)\C1H5O1(2)\RPEVERATI\07-Oct-2020\0\\
 #P Opt(TS,MaxCyc=50,NoEigenTest,MaxStep=10,AddRedundant) BLYP/6-31G* 5
 D 7F Integral=UltraFineGrid SCF=(NoSymm,XQC,MaxCyc=120) EmpiricalDispe
 rsion=GD3BJ IOp(1/33=1)\\TS search on BH76.\\0,2\C,-1.2248749332,0.003
 7842725,0.0031910556\O,1.2985942946,-0.101235447,-0.0041312038\H,0.040
 2316118,-0.1580908056,0.0191002708\H,-1.5560393981,-0.2364731818,1.021
 461614\H,-1.4148946134,1.0474011422,-0.2778708508\H,-1.572691962,-0.71
 28943702,-0.7518695736\H,1.4293603912,0.8785283736,-0.012847894\\Versi

 Normal termination of Gaussian 16 at Wed Oct  7 12:28:38 2020.
 Gaussian 16:  ES64L-G16RevA.03 25-Dec-2016

 ----------------------------------------------------------------------
 #P Freq BLYP/6-31G* 5D 7F Integral=UltraFineGrid SCF=(NoSymm,XQC,MaxCy
 c=120) EmpiricalDispersion=GD3BJ IOp(1/33=1) Geom=Check Guess=Read
 ----------------------------------------------------------------------

 TstMul:  Mul=     2
 TstMul:  ICh=     0
 TstMul:  Mul=     2
 Structure from the checkpoint file:  "MN_81_RKT04_BH76_BLYPDBJ_631Gs.chk"
 Charge =  0 Multiplicity = 2

                         Standard orientation:
 ---------------------------------------------------------------------
 Center     Atomic      Atomic             Coordinates (Angstroms)
 Number     Number       Type             X           Y           Z
 ---------------------------------------------------------------------
      1          6           0       -1.223028    0.009633    0.000084
      2          8           0        1.299760   -0.110855    0.000092
      3          1           0        0.041003   -0.160149    0.018788
      4          1           0       -1.559007   -0.236754    1.015308
      5          1           0       -1.405723    1.056623   -0.273179
      6          1           0       -1.572745   -0.698803   -0.761847
      7          1           0        1.436557    0.868124   -0.000311
 ---------------------------------------------------------------------

 SCF Done:  E(UB-LYP) =  -116.189263332     A.U. after    1 cycles

 The electronic state is 2-A.
 Alpha  occ. eigenvalues --  -18.79444  -9.93084  -0.87166  -0.63309  -0.42125
 Alpha  occ. eigenvalues --   -0.36755  -0.36641  -0.34223  -0.22248  -0.21555
 Alpha virt. eigenvalues --    0.05714   0.09577   0.13251   0.13499   0.24803
 Alpha virt. eigenvalues --    0.47780   0.47934   0.50188   0.71523   0.76029
 Alpha virt. eigenvalues --    0.81940   0.82116   0.83581   0.86303   0.92314

  Beta  occ. eigenvalues --  -18.78110  -9.92377  -0.84129  -0.61619  -0.40082
  Beta  occ. eigenvalues --   -0.36135  -0.36066  -0.31731  -0.20886
  Beta virt. eigenvalues --   -0.15520   0.06257   0.10186   0.13748   0.14004
  Beta virt. eigenvalues --    0.26355   0.48248   0.48373   0.53294   0.71982
  Beta virt. eigenvalues --    0.76992   0.82467   0.82672   0.84501   0.87182

 Mulliken charges and spin densities:
               1          2
     1  C   -0.596440   0.514638
     2  O   -0.608302   0.571575
     3  H    0.336939  -0.041050
     4  H    0.171474  -0.009632
     5  H    0.161210  -0.013929
     6  H    0.173942  -0.008779
     7  H    0.361177  -0.012824
 Sum of Mulliken charges =  -0.00000   1.00000

 Dipole moment (field-independent basis, Debye):
    X=             -1.3896    Y=              1.4595    Z=              0.0055  Tot=              2.0152
 Quadrupole moment (field-independent basis, Debye-Ang):
   XX=            -14.6807   YY=            -12.6168   ZZ=            -14.4249
   XY=              2.5158   XZ=             -0.0069   YZ=              0.0124

  Exact polarizability:  34.817   1.381  18.503  -0.061  -0.004  14.723
 Approx polarizability:  61.198  -0.262  27.262  -0.178  -0.011  20.012

 ******    1 imaginary frequencies (negative Signs) ******

                      1                      2                      3
                      A                      A                      A
 Frequencies --  -1053.0346                35.3130               282.3091
 Red. masses --      1.0859                 1.0516                 1.0643
 Frc consts  --      0.7095                 0.0008                 0.0500
 IR Inten    --    238.1325                75.7650                 7.9916

                      4                      5                      6
                      A                      A                      A
 Frequencies --    375.8513               616.4554               873.8050
 Red. masses --      1.1506                 3.1436                 1.1759
 Frc consts  --      0.0958                 0.7039                 0.5290
 IR Inten    --      7.9641                33.0435                96.3413

                      7                      8                      9
                      A                      A                      A
 Frequencies --   1048.4692              1220.8845              1419.8655
 Red. masses --      1.0923                 1.1460                 1.1072
 Frc consts  --      0.7074                 1.0064                 1.3152
 IR Inten    --     45.7468                 0.1798                27.3749

                     10                     11                     12
                      A                      A                      A
 Frequencies --   1432.4168              1461.7410              3013.1509
 Red. masses --      1.0672                 1.0237                 1.0212
 Frc consts  --      1.2901                 1.2888                 5.4626
 IR Inten    --      2.4337                44.3132                 1.3045

                     13                     14                     15
                      A                      A                      A
 Frequencies --   3133.6418              3136.5398              3530.7809
 Red. masses --      1.1081                 1.1087                 1.0663
 Frc consts  --      6.4111                 6.4266                 7.8316
 IR Inten    --     13.0792                11.3985                 6.4823

 - Thermochemistry -
 -------------------
 Temperature   298.150 Kelvin.  Pressure   1.00000 Atm.
 Atom     1 has atomic number  6 and mass  12.00000

 Molecular mass:    33.03404 amu.
 Principal axes and moments of inertia in atomic units:
                           1         2         3
     Eigenvalues --    15.39320 197.95642 201.21203
           X            0.99975   0.02226  -0.00000
           Y           -0.02226   0.99975   0.00004
           Z            0.00000  -0.00004   1.00000
 This molecule is an asymmetric top.
 Rotational symmetry number  1.
 Rotational temperatures (Kelvin)      5.62676     0.43754     0.43046
 Rotational constants (GHZ):         117.24274     9.11686     8.96935
    1 imaginary frequencies ignored.
 Zero-point vibrational energy     129084.4 (Joules/Mol)
                                   30.85191 (Kcal/Mol)
 Warning -- explicit consideration of   4 degrees of freedom as
           vibrations may cause significant error
 Vibrational temperatures:     50.81   406.18   540.77   886.94  1257.21
          (Kelvin)           1508.51  1756.58  2042.87  2060.93  2103.12
                             4335.25  4508.61  4512.78  5080.01

 Zero-point correction=                           0.049166 (Hartree/Particle)
 Thermal correction to Energy=                    0.053916
 Thermal correction to Enthalpy=                  0.054861
 Thermal correction to Gibbs Free Energy=         0.022714
 Sum of electronic and zero-point Energies=           -116.140098
 Sum of electronic and thermal Energies=              -116.135347
 Sum of electronic and thermal Enthalpies=            -116.134403
 Sum of electronic and thermal Free Energies=         -116.166549

                     E (Thermal)             CV                S
                      KCal/Mol        Cal/Mol-Kelvin    Cal/Mol-Kelvin
 Total                   33.833             13.504             67.657
 Electronic               0.000              0.000              1.377
 Translational            0.889              2.981             36.416
 Rotational               0.889              2.981             21.044
 Vibrational             32.056              7.543              8.820
 Vibration     1          0.594              1.982              5.506
 Vibration     2          0.681              1.706              1.520
 Vibration     3          0.747              1.522              1.056
 Vibration     4          0.976              0.997              0.422

                           ! Non-Optimized Parameters !
 Normal termination of Gaussian 16 at Wed Oct  7 12:29:14 2020.
