 Gaussian 16, Revision A.03,

 ----------------------------------------------------------------------
 #P Opt(TS,MaxCyc=50,NoEigenTest,MaxStep=10,AddRedundant) BLYP/6-31G* 5
 D 7F Integral=UltraFineGrid SCF=(NoSymm,XQC,MaxCyc=120) EmpiricalDispe
 rsion=GD3BJ IOp(1/33=1)
 ----------------------------------------------------------------------

 TstMul:  Mul=     2
 TstMul:  ICh=     0
 TstMul:  Mul=     2
 Symbolic Z-matrix:
 Charge =  0 Multiplicity = 2

 SCF Done:  E(UB-LYP) =  -1.65713954579     A.U. after    9 cycles
 SCF Done:  E(UB-LYP) =  -1.65714584511     A.U. after    9 cycles
 SCF Done:  E(UB-LYP) =  -1.65714584511     A.U. after    8 cycles
 SCF Done:  E(UB-LYP) =  -1.65715205562     A.U. after    7 cycles
 SCF Done:  E(UB-LYP) =  -1.65722777160     A.U. after    8 cycles
 Optimization completed.
    -- Stationary point found.
 Normal termination of Gaussian 16 at Wed Oct  7 12:27:46 2020.
 Gaussian 16:  ES64L-G16RevA.03 25-Dec-2016

 ----------------------------------------------------------------------
 #P Freq BLYP/6-31G* 5D 7F Integral=UltraFineGrid SCF=(NoSymm,XQC,MaxCy
 c=120) EmpiricalDispersion=GD3BJ IOp(1/33=1) Geom=Check Guess=Read
 ----------------------------------------------------------------------

 TstMul:  Mul=     2
 TstMul:  ICh=     0
 TstMul:  Mul=     2
 Structure from the checkpoint file:  "MN_82_RKT06_BH76_BLYPDBJ_631Gs.chk"
 Charge =  0 Multiplicity = 2

                         Standard orientation:
 ---------------------------------------------------------------------
 Center     Atomic      Atomic             Coordinates (Angstroms)
 Number     Number       Type             X           Y           Z
 ---------------------------------------------------------------------
      1          1           0        0.000000    0.000000    0.000000
      2          1           0        0.000000    0.000000    0.941113
      3          1           0        0.000000    0.000000   -0.941113
 ---------------------------------------------------------------------

 SCF Done:  E(UB-LYP) =  -1.65722777160     A.U. after    1 cycles

 The electronic state is 2-SGU.
 Alpha  occ. eigenvalues --   -0.44653  -0.21194
 Alpha virt. eigenvalues --    0.12680   0.62760   0.70278   0.95065
  Beta  occ. eigenvalues --   -0.40826
  Beta virt. eigenvalues --   -0.12307   0.16296   0.67651   0.79274   0.98796

 Mulliken charges and spin densities:
               1          2
     1  H   -0.083043  -0.151041
     2  H    0.041522   0.575521
     3  H    0.041522   0.575521
 Sum of Mulliken charges =  -0.00000   1.00000

 Dipole moment (field-independent basis, Debye):
    X=              0.0000    Y=              0.0000    Z=             -0.0000  Tot=              0.0000
 Quadrupole moment (field-independent basis, Debye-Ang):
   XX=             -3.2748   YY=             -3.2748   ZZ=             -3.2910
   XY=              0.0000   XZ=              0.0000   YZ=              0.0000

  Exact polarizability:   0.000   0.000   0.000  -0.000   0.000  18.418
 Approx polarizability:   0.000  -0.000  -0.000  -0.000  -0.000  28.777

                      1                      2                      3
                     SGU                    PIU                    PIU
 Frequencies --    509.3305              1065.4950              1065.4950
 Red. masses --      1.0078                 1.0078                 1.0078
 Frc consts  --      0.1540                 0.6741                 0.6741
 IR Inten    --     83.1783                 5.5030                 5.5030

                      4
                     SGG
 Frequencies --   2081.8669
 Red. masses --      1.0078
 Frc consts  --      2.5736
 IR Inten    --      0.0000

 - Thermochemistry -
 -------------------
 Temperature   298.150 Kelvin.  Pressure   1.00000 Atm.
 Atom     1 has atomic number  1 and mass   1.00783

 Molecular mass:     3.02348 amu.
 Principal axes and moments of inertia in atomic units:
                           1         2         3
     Eigenvalues --     0.00000   6.37524   6.37524
           X           -0.00000   1.00000   0.00000
           Y            0.00000   0.00000   1.00000
           Z            1.00000   0.00000   0.00000
 This molecule is a prolate symmetric top.
 Rotational symmetry number  2.
 Rotational temperature (Kelvin)     13.58600
 Rotational constant (GHZ):         283.086216
 Zero-point vibrational energy      28245.0 (Joules/Mol)
                                    6.75071 (Kcal/Mol)
 Warning -- explicit consideration of   1 degrees of freedom as
           vibrations may cause significant error
 Vibrational temperatures:    732.81  1533.01  1533.01  2995.34
          (Kelvin)

 Zero-point correction=                           0.010758 (Hartree/Particle)
 Thermal correction to Energy=                    0.013393
 Thermal correction to Enthalpy=                  0.014337
 Thermal correction to Gibbs Free Energy=        -0.003809
 Sum of electronic and zero-point Energies=             -1.646470
 Sum of electronic and thermal Energies=                -1.643835
 Sum of electronic and thermal Enthalpies=              -1.642890
 Sum of electronic and thermal Free Energies=           -1.661037

                     E (Thermal)             CV                S
                      KCal/Mol        Cal/Mol-Kelvin    Cal/Mol-Kelvin
 Total                    8.404              6.828             38.193
 Electronic               0.000              0.000              1.377
 Translational            0.889              2.981             29.289
 Rotational               0.592              1.987              6.747
 Vibrational              6.923              1.860              0.780
 Vibration     1          0.864              1.229              0.635

 Optimization completed.
    -- Stationary point found.
 Normal termination of Gaussian 16 at Wed Oct  7 12:28:10 2020.
