 Gaussian 16, Revision A.03,

 ----------------------------------------------------------------------
 #P Opt(TS,MaxCyc=50,NoEigenTest,MaxStep=10,AddRedundant) BLYP/6-31G* 5
 D 7F Integral=UltraFineGrid SCF=(NoSymm,XQC,MaxCyc=120) EmpiricalDispe
 rsion=GD3BJ IOp(1/33=1)
 ----------------------------------------------------------------------

 TstMul:  Mul=     3
 TstMul:  ICh=     0
 TstMul:  Mul=     3
 Symbolic Z-matrix:
 Charge =  0 Multiplicity = 3

 SCF Done:  E(UB-LYP) =  -76.2030285710     A.U. after   12 cycles
 SCF Done:  E(UB-LYP) =  -76.2030549494     A.U. after    9 cycles
 SCF Done:  E(UB-LYP) =  -76.2030542925     A.U. after   10 cycles
 SCF Done:  E(UB-LYP) =  -76.2034647349     A.U. after   11 cycles
 SCF Done:  E(UB-LYP) =  -76.2029945100     A.U. after   11 cycles
 SCF Done:  E(UB-LYP) =  -76.2025836097     A.U. after   11 cycles
 SCF Done:  E(UB-LYP) =  -76.2023256780     A.U. after   11 cycles
 SCF Done:  E(UB-LYP) =  -76.2025638972     A.U. after   11 cycles
 SCF Done:  E(UB-LYP) =  -76.2027012777     A.U. after   10 cycles
 SCF Done:  E(UB-LYP) =  -76.2026860361     A.U. after    8 cycles
 SCF Done:  E(UB-LYP) =  -76.2025624172     A.U. after   11 cycles
 SCF Done:  E(UB-LYP) =  -76.2024937255     A.U. after   11 cycles
 SCF Done:  E(UB-LYP) =  -76.2024906531     A.U. after   11 cycles
 SCF Done:  E(UB-LYP) =  -76.2024895410     A.U. after    9 cycles
 SCF Done:  E(UB-LYP) =  -76.2024896660     A.U. after    7 cycles
 Optimization completed.
    -- Stationary point found.
 Normal termination of Gaussian 16 at Wed Oct  7 12:29:55 2020.
 Gaussian 16:  ES64L-G16RevA.03 25-Dec-2016

 ----------------------------------------------------------------------
 #P Freq BLYP/6-31G* 5D 7F Integral=UltraFineGrid SCF=(NoSymm,XQC,MaxCy
 c=120) EmpiricalDispersion=GD3BJ IOp(1/33=1) Geom=Check Guess=Read
 ----------------------------------------------------------------------

 TstMul:  Mul=     3
 TstMul:  ICh=     0
 TstMul:  Mul=     3
 Structure from the checkpoint file:  "MN_89_RKT14_BH76_BLYPDBJ_631Gs.chk"
 Charge =  0 Multiplicity = 3

                         Standard orientation:
 ---------------------------------------------------------------------
 Center     Atomic      Atomic             Coordinates (Angstroms)
 Number     Number       Type             X           Y           Z
 ---------------------------------------------------------------------
      1          8           0        0.000000    0.000000    0.330357
      2          1           0        0.000000    0.000000   -0.744486
      3          1           0        0.000000    0.000000   -1.898370
 ---------------------------------------------------------------------

 SCF Done:  E(UB-LYP) =  -76.2024896660     A.U. after    1 cycles

 Unable to determine electronic state:  partially filled degenerate orbitals.
 Alpha  occ. eigenvalues --  -18.86766  -0.89775  -0.44481  -0.33978  -0.27995
 Alpha  occ. eigenvalues --   -0.26654
 Alpha virt. eigenvalues --    0.14056   0.63880   0.68451   0.75794   0.80529
 Alpha virt. eigenvalues --    0.86684   1.31729   1.62980   1.67835   1.69085
 Alpha virt. eigenvalues --    1.69115   2.20727
  Beta  occ. eigenvalues --  -18.83883  -0.82608  -0.39532  -0.23649
  Beta virt. eigenvalues --   -0.20829  -0.17891   0.17620   0.67488   0.77651
  Beta virt. eigenvalues --    0.82414   0.84902   0.90528   1.37138   1.70348
  Beta virt. eigenvalues --    1.71035   1.75231   1.76350   2.24947

 Mulliken charges and spin densities:
               1          2
     1  O   -0.313412   1.306685
     2  H    0.294609  -0.059221
     3  H    0.018803   0.752536
 Sum of Mulliken charges =  -0.00000   2.00000

 Dipole moment (field-independent basis, Debye):
    X=              0.0000    Y=             -0.0000    Z=             -1.3562  Tot=              1.3562
 Quadrupole moment (field-independent basis, Debye-Ang):
   XX=             -7.7039   YY=             -6.5779   ZZ=             -6.3398
   XY=              0.0000   XZ=              0.0000   YZ=              0.0000

  Exact polarizability:   2.381   0.000   2.665  -0.000  -0.000  19.287
 Approx polarizability:   2.733   0.000   3.690  -0.000  -0.000  32.730

 ******    2 imaginary frequencies (negative Signs) ******

                      1                      2                      3
                     SG                     PI                     PI
 Frequencies --   -395.4267              -147.3368               772.3781
 Red. masses --      1.0171                 1.0208                 1.0208
 Frc consts  --      0.0937                 0.0131                 0.3588
 IR Inten    --    112.2388                53.1401                40.8596

                      4
                     SG
 Frequencies --   1880.6310
 Red. masses --      1.1145
 Frc consts  --      2.3224
 IR Inten    --     14.6161

 - Thermochemistry -
 -------------------
 Temperature   298.150 Kelvin.  Pressure   1.00000 Atm.
 Atom     1 has atomic number  8 and mass  15.99491

 Molecular mass:    18.01056 amu.
 Principal axes and moments of inertia in atomic units:
                           1         2         3
     Eigenvalues --     0.00000  19.83707  19.83707
           X            0.00000   0.00000   1.00000
           Y            0.00000   1.00000   0.00000
           Z            1.00000   0.00000   0.00000
 This molecule is a prolate symmetric top.
 Rotational symmetry number  1.
 Rotational temperature (Kelvin)      4.36627
 Rotational constant (GHZ):          90.978203
    2 imaginary frequencies ignored.
 Zero-point vibrational energy      15868.5 (Joules/Mol)
                                    3.79267 (Kcal/Mol)
 Vibrational temperatures:   1111.28  2705.81
          (Kelvin)

 Zero-point correction=                           0.006044 (Hartree/Particle)
 Thermal correction to Energy=                    0.008492
 Thermal correction to Enthalpy=                  0.009436
 Thermal correction to Gibbs Free Energy=        -0.013087
 Sum of electronic and zero-point Energies=            -76.196446
 Sum of electronic and thermal Energies=               -76.193997
 Sum of electronic and thermal Enthalpies=             -76.193053
 Sum of electronic and thermal Free Energies=          -76.215577

                     E (Thermal)             CV                S
                      KCal/Mol        Cal/Mol-Kelvin    Cal/Mol-Kelvin
 Total                    5.329              5.684             47.405
 Electronic               0.000              0.000              2.183
 Translational            0.889              2.981             34.608
 Rotational               0.592              1.987             10.381
 Vibrational              3.848              0.716              0.233

 Optimization completed.
    -- Stationary point found.
 Normal termination of Gaussian 16 at Wed Oct  7 12:30:17 2020.
