 Gaussian 16, Revision A.03,

 ----------------------------------------------------------------------
 #P Opt(TS,MaxCyc=50,NoEigenTest,MaxStep=10,AddRedundant) BLYP/6-31G* 5
 D 7F Integral=UltraFineGrid SCF=(NoSymm,XQC,MaxCyc=120) EmpiricalDispe
 rsion=GD3BJ IOp(1/33=1)
 ----------------------------------------------------------------------

 TstMul:  Mul=     2
 TstMul:  ICh=     0
 TstMul:  Mul=     2
 Symbolic Z-matrix:
 Charge =  0 Multiplicity = 2

 SCF Done:  E(UB-LYP) =  -132.242813829     A.U. after   16 cycles
 SCF Done:  E(UB-LYP) =  -132.242862440     A.U. after   11 cycles
 SCF Done:  E(UB-LYP) =  -132.242865660     A.U. after   11 cycles
 SCF Done:  E(UB-LYP) =  -132.243792836     A.U. after   13 cycles
 SCF Done:  E(UB-LYP) =  -132.244625261     A.U. after   14 cycles
 SCF Done:  E(UB-LYP) =  -132.244641432     A.U. after   13 cycles
 SCF Done:  E(UB-LYP) =  -132.244650045     A.U. after   13 cycles
 SCF Done:  E(UB-LYP) =  -132.244662225     A.U. after   10 cycles
 SCF Done:  E(UB-LYP) =  -132.244667864     A.U. after   10 cycles
 SCF Done:  E(UB-LYP) =  -132.244670360     A.U. after   10 cycles
 SCF Done:  E(UB-LYP) =  -132.244672841     A.U. after   10 cycles
 SCF Done:  E(UB-LYP) =  -132.244675754     A.U. after   10 cycles
 SCF Done:  E(UB-LYP) =  -132.244677767     A.U. after    9 cycles
 SCF Done:  E(UB-LYP) =  -132.244678117     A.U. after    9 cycles
 Optimization completed.
    -- Stationary point found.

 1\1\GINC-NODE04\FTS\UBLYP\6-31G(d)\H4N1O1(2)\RPEVERATI\10-Oct-2020\0\\
 #P Opt(TS,MaxCyc=50,NoEigenTest,MaxStep=10,AddRedundant) BLYP/6-31G* 5
 D 7F Integral=UltraFineGrid SCF=(NoSymm,XQC,MaxCyc=120) EmpiricalDispe
 rsion=GD3BJ IOp(1/33=1)\\TS search on BH76.\\0,2\N,-1.1606203027,-0.01
 8387836,-0.1159546483\O,1.1746245801,-0.1039801913,0.1385959248\H,-1.4
 055364979,-0.6170739228,0.689534273\H,-1.3706465514,0.9471425649,0.186
 3252837\H,0.0288544149,-0.1551852139,-0.3217331506\H,1.3839171776,0.85
 99430115,0.1106158927\\Version=ES64L-G16RevA.03\State=2-A\HF=-132.2446

 Normal termination of Gaussian 16 at Sat Oct 10 18:39:11 2020.
 Gaussian 16:  ES64L-G16RevA.03 25-Dec-2016

 ----------------------------------------------------------------------
 #P Freq BLYP/6-31G* 5D 7F Integral=UltraFineGrid SCF=(NoSymm,XQC,MaxCy
 c=120) EmpiricalDispersion=GD3BJ IOp(1/33=1) Geom=Check Guess=Read
 ----------------------------------------------------------------------

 TstMul:  Mul=     2
 TstMul:  ICh=     0
 TstMul:  Mul=     2
 Structure from the checkpoint file:  "MN_83_RKT07_BH76_BLYPDBJ_631Gs.chk"
 Charge =  0 Multiplicity = 2

                         Standard orientation:
 ---------------------------------------------------------------------
 Center     Atomic      Atomic             Coordinates (Angstroms)
 Number     Number       Type             X           Y           Z
 ---------------------------------------------------------------------
      1          7           0       -1.162184   -0.009438   -0.116014
      2          8           0        1.182554   -0.107689    0.018299
      3          1           0       -1.367871   -0.721335    0.603789
      4          1           0       -1.361407    0.899706    0.332875
      5          1           0        0.017061   -0.102903   -0.392697
      6          1           0        1.387068    0.852107    0.121740
 ---------------------------------------------------------------------

 SCF Done:  E(UB-LYP) =  -132.244678117     A.U. after    1 cycles

 The electronic state is 2-A.
 Alpha  occ. eigenvalues --  -18.78408 -14.04355  -0.87083  -0.77480  -0.44672
 Alpha  occ. eigenvalues --   -0.42741  -0.34612  -0.27572  -0.22563  -0.21900
 Alpha virt. eigenvalues --    0.03349   0.08331   0.11315   0.24451   0.57628
 Alpha virt. eigenvalues --    0.60175   0.65351   0.74454   0.77333   0.77659
 Alpha virt. eigenvalues --    0.81009   0.89053   0.92057   1.03919   1.19116

  Beta  occ. eigenvalues --  -18.77337 -14.03308  -0.84700  -0.75090  -0.43378
  Beta  occ. eigenvalues --   -0.41882  -0.33305  -0.24192  -0.21175
  Beta virt. eigenvalues --   -0.15860   0.03956   0.08827   0.11658   0.25264
  Beta virt. eigenvalues --    0.59445   0.60712   0.68021   0.75059   0.78195
  Beta virt. eigenvalues --    0.78856   0.81581   0.90164   0.93815   1.05285

 Mulliken charges and spin densities:
               1          2
     1  N   -0.724058   0.608463
     2  O   -0.654029   0.472078
     3  H    0.310618  -0.019109
     4  H    0.296634  -0.019517
     5  H    0.411508  -0.030215
     6  H    0.359327  -0.011700
 Sum of Mulliken charges =   0.00000   1.00000

 Dipole moment (field-independent basis, Debye):
    X=             -1.2432    Y=              1.7194    Z=              1.3189  Tot=              2.4982
 Quadrupole moment (field-independent basis, Debye-Ang):
   XX=            -13.8806   YY=            -10.8229   ZZ=            -14.0495
   XY=              1.9869   XZ=             -2.2575   YZ=              0.0169

  Exact polarizability:  40.645   1.234  15.720  -0.143   0.134  10.094
 Approx polarizability: 121.209  -2.589  23.750   6.534   0.072  14.412

 ******    1 imaginary frequencies (negative Signs) ******

                      1                      2                      3
                      A                      A                      A
 Frequencies --  -1126.1305               265.4270               414.2573
 Red. masses --      1.0371                 1.0616                 1.9619
 Frc consts  --      0.7749                 0.0441                 0.1984
 IR Inten    --     18.8098                72.5784                30.4627

                      4                      5                      6
                      A                      A                      A
 Frequencies --    507.0395               766.5758               852.2592
 Red. masses --      1.0360                 1.7655                 1.1581
 Frc consts  --      0.1569                 0.6113                 0.4956
 IR Inten    --     33.4689               146.1452                78.4797

                      7                      8                      9
                      A                      A                      A
 Frequencies --   1418.4115              1606.1905              1662.1260
 Red. masses --      1.1202                 1.0678                 1.0323
 Frc consts  --      1.3278                 1.6231                 1.6803
 IR Inten    --    118.2069                35.0164                17.3576

                     10                     11                     12
                      A                      A                      A
 Frequencies --   3321.8586              3420.3153              3546.0333
 Red. masses --      1.0497                 1.0902                 1.0660
 Frc consts  --      6.8249                 7.5146                 7.8977
 IR Inten    --      3.3173                 0.2105                12.8765

 - Thermochemistry -
 -------------------
 Temperature   298.150 Kelvin.  Pressure   1.00000 Atm.
 Atom     1 has atomic number  7 and mass  14.00307

 Molecular mass:    34.02929 amu.
 Principal axes and moments of inertia in atomic units:
                           1         2         3
     Eigenvalues --    10.81676 170.59969 175.68456
           X            0.99950   0.02016  -0.02452
           Y           -0.02010   0.99979   0.00266
           Z            0.02457  -0.00217   0.99970
 This molecule is an asymmetric top.
 Rotational symmetry number  1.
 Rotational temperatures (Kelvin)      8.00738     0.50770     0.49301
 Rotational constants (GHZ):         166.84673    10.57881    10.27262
    1 imaginary frequencies ignored.
 Zero-point vibrational energy     106351.0 (Joules/Mol)
                                   25.41849 (Kcal/Mol)
 Warning -- explicit consideration of   3 degrees of freedom as
           vibrations may cause significant error
 Vibrational temperatures:    381.89   596.02   729.52  1102.93  1226.21
          (Kelvin)           2040.78  2310.95  2391.43  4779.41  4921.07
                             5101.95

 Zero-point correction=                           0.040507 (Hartree/Particle)
 Thermal correction to Energy=                    0.044485
 Thermal correction to Enthalpy=                  0.045429
 Thermal correction to Gibbs Free Energy=         0.016016
 Sum of electronic and zero-point Energies=           -132.204171
 Sum of electronic and thermal Energies=              -132.200193
 Sum of electronic and thermal Enthalpies=            -132.199249
 Sum of electronic and thermal Free Energies=         -132.228663

                     E (Thermal)             CV                S
                      KCal/Mol        Cal/Mol-Kelvin    Cal/Mol-Kelvin
 Total                   27.915             11.841             61.906
 Electronic               0.000              0.000              1.377
 Translational            0.889              2.981             36.505
 Rotational               0.889              2.981             20.411
 Vibrational             26.137              5.879              3.613
 Vibration     1          0.671              1.736              1.626
 Vibration     2          0.778              1.439              0.912
 Vibration     3          0.862              1.234              0.641

 Optimization completed.
    -- Stationary point found.
 Normal termination of Gaussian 16 at Sat Oct 10 18:39:24 2020.
