 Gaussian 16, Revision A.03,

 ----------------------------------------------------------------------
 #P Opt(TS,MaxCyc=50,NoEigenTest,MaxStep=10,AddRedundant) BLYP/6-31G* 5
 D 7F Integral=UltraFineGrid SCF=(NoSymm,XQC,MaxCyc=120) EmpiricalDispe
 rsion=GD3BJ IOp(1/33=1)
 ----------------------------------------------------------------------

 TstMul:  Mul=     2
 TstMul:  ICh=     0
 TstMul:  Mul=     2
 Symbolic Z-matrix:
 Charge =  0 Multiplicity = 2

 SCF Done:  E(UB-LYP) =  -40.9638948776     A.U. after   13 cycles
 SCF Done:  E(UB-LYP) =  -40.9643592244     A.U. after   11 cycles
 SCF Done:  E(UB-LYP) =  -40.9644483144     A.U. after   11 cycles
 SCF Done:  E(UB-LYP) =  -40.9646178814     A.U. after   11 cycles
 SCF Done:  E(UB-LYP) =  -40.9643551478     A.U. after   11 cycles
 SCF Done:  E(UB-LYP) =  -40.9642460522     A.U. after   11 cycles
 SCF Done:  E(UB-LYP) =  -40.9642473392     A.U. after    9 cycles
 Optimization completed.
    -- Stationary point found.
 Normal termination of Gaussian 16 at Wed Oct  7 12:27:41 2020.
 Gaussian 16:  ES64L-G16RevA.03 25-Dec-2016

 ----------------------------------------------------------------------
 #P Freq BLYP/6-31G* 5D 7F Integral=UltraFineGrid SCF=(NoSymm,XQC,MaxCy
 c=120) EmpiricalDispersion=GD3BJ IOp(1/33=1) Geom=Check Guess=Read
 ----------------------------------------------------------------------

 TstMul:  Mul=     2
 TstMul:  ICh=     0
 TstMul:  Mul=     2
 Structure from the checkpoint file:  "MN_80_RKT03_BH76_BLYPDBJ_631Gs.chk"
 Charge =  0 Multiplicity = 2

                         Standard orientation:
 ---------------------------------------------------------------------
 Center     Atomic      Atomic             Coordinates (Angstroms)
 Number     Number       Type             X           Y           Z
 ---------------------------------------------------------------------
      1          6           0        0.000000    0.277656    0.000000
      2          1           0        1.067166    0.523811    0.000000
      3          1           0       -0.534106    0.524058    0.923960
      4          1           0       -0.534106    0.524058   -0.923960
      5          1           0        0.000300   -1.169537    0.000000
      6          1           0        0.000745   -2.068326    0.000000
 ---------------------------------------------------------------------

 SCF Done:  E(UB-LYP) =  -40.9642473392     A.U. after    1 cycles

 The electronic state is 2-A'.
 Alpha  occ. eigenvalues --   -9.92598  -0.61971  -0.38593  -0.36064  -0.36046
 Alpha  occ. eigenvalues --   -0.16922
 Alpha virt. eigenvalues --    0.08866   0.14253   0.14265   0.17030   0.49225
 Alpha virt. eigenvalues --    0.49240   0.51608   0.64945   0.83305   0.83329
 Alpha virt. eigenvalues --    0.85853   0.94999   1.14870   1.58192   1.58200

  Beta  occ. eigenvalues --   -9.91642  -0.59860  -0.35673  -0.35389  -0.35371
  Beta virt. eigenvalues --   -0.10208   0.09679   0.14863   0.14874   0.19498
  Beta virt. eigenvalues --    0.49740   0.49755   0.55982   0.68648   0.83935
  Beta virt. eigenvalues --    0.83959   0.88238   0.95810   1.17440   1.62401

 Mulliken charges and spin densities:
               1          2
     1  C   -0.481344   0.708726
     2  H    0.163348  -0.020104
     3  H    0.163278  -0.020117
     4  H    0.163278  -0.020117
     5  H    0.016036  -0.114438
     6  H   -0.024596   0.466049
 Sum of Mulliken charges =  -0.00000   1.00000

 Dipole moment (field-independent basis, Debye):
    X=             -0.0003    Y=              0.7523    Z=              0.0000  Tot=              0.7523
 Quadrupole moment (field-independent basis, Debye-Ang):
   XX=             -9.2470   YY=            -11.2572   ZZ=             -9.2505
   XY=             -0.0003   XZ=             -0.0000   YZ=             -0.0000

  Exact polarizability:  12.481  -0.011  28.815  -0.000   0.000  12.475
 Approx polarizability:  16.920  -0.018  43.723   0.000  -0.000  16.910

 ******    1 imaginary frequencies (negative Signs) ******

                      1                      2                      3
                     A'                     A"                     A'
 Frequencies --   -821.7147               545.6237               546.1475
 Red. masses --      1.1989                 1.0459                 1.0459
 Frc consts  --      0.4769                 0.1835                 0.1838
 IR Inten    --      3.3605                 0.6537                 0.6490

                      4                      5                      6
                     A'                     A"                     A'
 Frequencies --   1049.5238              1146.3809              1146.5785
 Red. masses --      1.0774                 1.0453                 1.0453
 Frc consts  --      0.6992                 0.8094                 0.8097
 IR Inten    --      5.9803                 2.4142                 2.4110

                      7                      8                      9
                     A"                     A'                     A'
 Frequencies --   1422.3440              1423.0939              2009.7607
 Red. masses --      1.0778                 1.0777                 1.0480
 Frc consts  --      1.2846                 1.2860                 2.4941
 IR Inten    --      2.9676                 2.9592                35.7904

                     10                     11                     12
                     A'                     A"                     A'
 Frequencies --   3025.6177              3163.6280              3164.7358
 Red. masses --      1.0165                 1.1122                 1.1123
 Frc consts  --      5.4828                 6.5586                 6.5639
 IR Inten    --      0.3403                14.2376                14.1529

 - Thermochemistry -
 -------------------
 Temperature   298.150 Kelvin.  Pressure   1.00000 Atm.
 Atom     1 has atomic number  6 and mass  12.00000

 Molecular mass:    17.03913 amu.
 Principal axes and moments of inertia in atomic units:
                           1         2         3
     Eigenvalues --    12.29704  32.15958  32.16670
           X           -0.00049   1.00000   0.00000
           Y            1.00000   0.00049   0.00000
           Z            0.00000   0.00000   1.00000
 This molecule is an asymmetric top.
 Rotational symmetry number  1.
 Rotational temperatures (Kelvin)      7.04348     2.69325     2.69266
 Rotational constants (GHZ):         146.76228    56.11830    56.10589
    1 imaginary frequencies ignored.
 Zero-point vibrational energy     111512.5 (Joules/Mol)
                                   26.65213 (Kcal/Mol)
 Warning -- explicit consideration of   2 degrees of freedom as
           vibrations may cause significant error
 Vibrational temperatures:    785.03   785.78  1510.03  1649.39  1649.67
          (Kelvin)           2046.44  2047.51  2891.60  4353.19  4551.76
                             4553.35

 Zero-point correction=                           0.042473 (Hartree/Particle)
 Thermal correction to Energy=                    0.045776
 Thermal correction to Enthalpy=                  0.046720
 Thermal correction to Gibbs Free Energy=         0.020905
 Sum of electronic and zero-point Energies=            -40.921774
 Sum of electronic and thermal Energies=               -40.918471
 Sum of electronic and thermal Enthalpies=             -40.917527
 Sum of electronic and thermal Free Energies=          -40.943342

                     E (Thermal)             CV                S
                      KCal/Mol        Cal/Mol-Kelvin    Cal/Mol-Kelvin
 Total                   28.725              9.278             54.333
 Electronic               0.000              0.000              1.377
 Translational            0.889              2.981             34.443
 Rotational               0.889              2.981             17.193
 Vibrational             26.947              3.316              1.319
 Vibration     1          0.901              1.149              0.553
 Vibration     2          0.901              1.148              0.552

 Optimization completed.
    -- Stationary point found.
 Normal termination of Gaussian 16 at Wed Oct  7 12:28:03 2020.
