 Gaussian 16, Revision A.03,

 ----------------------------------------------------------------------
 #P Opt(TS,MaxCyc=150,NoEigenTest,MaxStep=10,AddRedundant) BLYP/6-31G*
 5D 7F Integral=UltraFineGrid SCF=(NoSymm,XQC,MaxCyc=120) EmpiricalDisp
 ersion=GD3BJ IOp(1/33=1)
 ----------------------------------------------------------------------

 TstMul:  Mul=     2
 TstMul:  ICh=     0
 TstMul:  Mul=     2
 Symbolic Z-matrix:
 Charge =  0 Multiplicity = 2

 SCF Done:  E(UB-LYP) =  -500.588535626     A.U. after   13 cycles
 SCF Done:  E(UB-LYP) =  -500.588545291     A.U. after   10 cycles
 SCF Done:  E(UB-LYP) =  -500.588629240     A.U. after   10 cycles
 SCF Done:  E(UB-LYP) =  -500.587781160     A.U. after   12 cycles
 SCF Done:  E(UB-LYP) =  -500.587114835     A.U. after   12 cycles
 SCF Done:  E(UB-LYP) =  -500.586504121     A.U. after   12 cycles
 SCF Done:  E(UB-LYP) =  -500.586090581     A.U. after   12 cycles
 SCF Done:  E(UB-LYP) =  -500.585921717     A.U. after   12 cycles
 SCF Done:  E(UB-LYP) =  -500.585608124     A.U. after   11 cycles
 SCF Done:  E(UB-LYP) =  -500.585335223     A.U. after   11 cycles
 SCF Done:  E(UB-LYP) =  -500.583349609     A.U. after   11 cycles
 SCF Done:  E(UB-LYP) =  -500.583360312     A.U. after   11 cycles
 SCF Done:  E(UB-LYP) =  -500.583363744     A.U. after    9 cycles
 SCF Done:  E(UB-LYP) =  -500.583364494     A.U. after    9 cycles
 SCF Done:  E(UB-LYP) =  -500.583364503     A.U. after    8 cycles
 SCF Done:  E(UB-LYP) =  -500.583364415     A.U. after    8 cycles
 SCF Done:  E(UB-LYP) =  -500.583364741     A.U. after    9 cycles
 SCF Done:  E(UB-LYP) =  -500.583365122     A.U. after    8 cycles
 SCF Done:  E(UB-LYP) =  -500.583365716     A.U. after    9 cycles
 Optimization completed.
    -- Stationary point found.
 Normal termination of Gaussian 16 at Wed Oct  7 12:36:15 2020.
 Gaussian 16:  ES64L-G16RevA.03 25-Dec-2016

 ----------------------------------------------------------------------
 #P Freq BLYP/6-31G* 5D 7F Integral=UltraFineGrid SCF=(NoSymm,XQC,MaxCy
 c=120) EmpiricalDispersion=GD3BJ IOp(1/33=1) Geom=Check Guess=Read
 ----------------------------------------------------------------------

 TstMul:  Mul=     2
 TstMul:  ICh=     0
 TstMul:  Mul=     2
 Structure from the checkpoint file:  "MN_84_RKT08_BH76_BLYPDBJ_631Gs.chk"
 Charge =  0 Multiplicity = 2

                         Standard orientation:
 ---------------------------------------------------------------------
 Center     Atomic      Atomic             Coordinates (Angstroms)
 Number     Number       Type             X           Y           Z
 ---------------------------------------------------------------------
      1          6           0       -2.030327   -0.000530    0.019833
      2         17           0        1.108621   -0.000085    0.003086
      3          1           0       -2.480128    0.016198   -0.973248
      4          1           0       -1.994595    0.927255    0.593510
      5          1           0       -1.990989   -0.947548    0.560843
      6          1           0       -0.198880    0.008725   -0.352563
 ---------------------------------------------------------------------

 SCF Done:  E(UB-LYP) =  -500.583365716     A.U. after    1 cycles

 The electronic state is 2-A.
 Alpha  occ. eigenvalues -- -100.71103  -9.96086  -9.15684  -6.99088  -6.97899
 Alpha  occ. eigenvalues --   -6.97890  -0.73882  -0.63941  -0.40529  -0.39282
 Alpha  occ. eigenvalues --   -0.39203  -0.26120  -0.26028  -0.21838
 Alpha virt. eigenvalues --    0.04449   0.06435   0.12581   0.12732   0.35858
 Alpha virt. eigenvalues --    0.39456   0.40242   0.40546   0.49393   0.49732
 Alpha virt. eigenvalues --    0.50800   0.71523   0.80102   0.80119   0.81840

  Beta  occ. eigenvalues -- -100.71004  -9.94944  -9.15591  -6.98835  -6.97834
  Beta  occ. eigenvalues --   -6.97828  -0.73305  -0.61161  -0.39703  -0.38479
  Beta  occ. eigenvalues --   -0.38397  -0.25850  -0.25809
  Beta virt. eigenvalues --   -0.14765   0.06135   0.07702   0.13142   0.13310
  Beta virt. eigenvalues --    0.36336   0.40238   0.40752   0.40776   0.50105
  Beta virt. eigenvalues --    0.51474   0.54374   0.73542   0.80915   0.80946

 Mulliken charges and spin densities:
               1          2
     1  C   -0.474165   0.965305
     2  Cl  -0.239924   0.127477
     3  H    0.177619  -0.035053
     4  H    0.188208  -0.035016
     5  H    0.188328  -0.035013
     6  H    0.159934   0.012300
 Sum of Mulliken charges =  -0.00000   1.00000

 Dipole moment (field-independent basis, Debye):
    X=             -2.7084    Y=              0.0052    Z=             -0.2031  Tot=              2.7160
 Quadrupole moment (field-independent basis, Debye-Ang):
   XX=            -19.5044   YY=            -20.8886   ZZ=            -20.8108
   XY=             -0.0140   XZ=              0.5647   YZ=             -0.0029

  Exact polarizability:  38.773  -0.044  17.699   1.869  -0.005  17.870
 Approx polarizability:  58.108  -0.099  24.554   4.137  -0.019  25.244

 ******    1 imaginary frequencies (negative Signs) ******

                      1                      2                      3
                      A                      A                      A
 Frequencies --   -123.1610               223.1883               275.7709
 Red. masses --      2.5530                 1.3188                 1.0287
 Frc consts  --      0.0228                 0.0387                 0.0461
 IR Inten    --     25.8091                10.4443                 3.9464

                      4                      5                      6
                      A                      A                      A
 Frequencies --    515.3845               583.0647               799.2357
 Red. masses --      1.0584                 1.0365                 1.1502
 Frc consts  --      0.1656                 0.2076                 0.4329
 IR Inten    --     94.5023                25.9999                26.4812

                      7                      8                      9
                      A                      A                      A
 Frequencies --   1398.4712              1404.7570              2063.6807
 Red. masses --      1.0979                 1.0985                 1.0482
 Frc consts  --      1.2651                 1.2772                 2.6302
 IR Inten    --      4.1347                 3.4483               362.4678

                     10                     11                     12
                      A                      A                      A
 Frequencies --   3061.0677              3223.7367              3229.5823
 Red. masses --      1.0102                 1.1167                 1.1169
 Frc consts  --      5.5771                 6.8378                 6.8637
 IR Inten    --      1.3474                 1.8309                 2.9519

 - Thermochemistry -
 -------------------
 Temperature   298.150 Kelvin.  Pressure   1.00000 Atm.
 Atom     1 has atomic number  6 and mass  12.00000

 Molecular mass:    51.00015 amu.
 Principal axes and moments of inertia in atomic units:
                           1         2         3
     Eigenvalues --    12.59772 383.12673 383.18305
           X            1.00000  -0.00006   0.00197
           Y            0.00005   1.00000   0.00258
           Z           -0.00197  -0.00258   0.99999
 This molecule is an asymmetric top.
 Rotational symmetry number  1.
 Rotational temperatures (Kelvin)      6.87536     0.22607     0.22604
 Rotational constants (GHZ):         143.25932     4.71056     4.70987
    1 imaginary frequencies ignored.
 Zero-point vibrational energy     100354.4 (Joules/Mol)
                                   23.98527 (Kcal/Mol)
 Warning -- explicit consideration of   4 degrees of freedom as
           vibrations may cause significant error
 Vibrational temperatures:    321.12   396.77   741.52   838.90  1149.92
          (Kelvin)           2012.09  2021.13  2969.18  4404.19  4638.24
                             4646.65

 Zero-point correction=                           0.038223 (Hartree/Particle)
 Thermal correction to Energy=                    0.042508
 Thermal correction to Enthalpy=                  0.043453
 Thermal correction to Gibbs Free Energy=         0.012062
 Sum of electronic and zero-point Energies=           -500.545143
 Sum of electronic and thermal Energies=              -500.540857
 Sum of electronic and thermal Enthalpies=            -500.539913
 Sum of electronic and thermal Free Energies=         -500.571304

                     E (Thermal)             CV                S
                      KCal/Mol        Cal/Mol-Kelvin    Cal/Mol-Kelvin
 Total                   26.674             12.642             66.067
 Electronic               0.000              0.000              1.377
 Translational            0.889              2.981             37.711
 Rotational               0.889              2.981             22.141
 Vibrational             24.897              6.680              4.838
 Vibration     1          0.649              1.806              1.933
 Vibration     2          0.677              1.718              1.560
 Vibration     3          0.870              1.216              0.621
 Vibration     4          0.940              1.068              0.480

                           ! Non-Optimized Parameters !
 Normal termination of Gaussian 16 at Wed Oct  7 12:36:45 2020.
