 Gaussian 16, Revision A.03,

 ----------------------------------------------------------------------
 #P Opt(TS,MaxCyc=50,NoEigenTest,MaxStep=10,AddRedundant) BLYP/6-31G* 5
 D 7F Integral=UltraFineGrid SCF=(NoSymm,XQC,MaxCyc=120) EmpiricalDispe
 rsion=GD3BJ IOp(1/33=1)
 ----------------------------------------------------------------------

 TstMul:  Mul=     3
 TstMul:  ICh=     0
 TstMul:  Mul=     3
 Symbolic Z-matrix:
 Charge =  0 Multiplicity = 3

 SCF Done:  E(UB-LYP) =  -115.518723195     A.U. after   13 cycles
 SCF Done:  E(UB-LYP) =  -115.519511973     A.U. after   12 cycles
 SCF Done:  E(UB-LYP) =  -115.520022986     A.U. after   11 cycles
 SCF Done:  E(UB-LYP) =  -115.519267968     A.U. after   12 cycles
 SCF Done:  E(UB-LYP) =  -115.518658261     A.U. after   12 cycles
 SCF Done:  E(UB-LYP) =  -115.518330995     A.U. after   11 cycles
 SCF Done:  E(UB-LYP) =  -115.518276586     A.U. after   12 cycles
 SCF Done:  E(UB-LYP) =  -115.518279399     A.U. after    9 cycles
 Optimization completed.
    -- Stationary point found.

 1\1\GINC-NODE62\FTS\UBLYP\6-31G(d)\C1H4O1(3)\RPEVERATI\07-Oct-2020\0\\
 #P Opt(TS,MaxCyc=50,NoEigenTest,MaxStep=10,AddRedundant) BLYP/6-31G* 5
 D 7F Integral=UltraFineGrid SCF=(NoSymm,XQC,MaxCyc=120) EmpiricalDispe
 rsion=GD3BJ IOp(1/33=1)\\TS search on BH76.\\0,3\C,0.0031301303,-1.187
 5201107,0.\H,-1.0720110838,-1.3997321951,0.\H,0.5306239562,-1.43187142
 9,0.9280142154\H,0.5306239562,-1.431871429,-0.9280142154\H,0.010493231
 6,0.2574661924,0.\O,-0.0064794732,1.3907355957,0.\\Version=ES64L-G16Re
 vA.03\State=3-A'\HF=-115.5182794\S2=2.005716\S2-1=0.\S2A=2.000015\RMSD

 Normal termination of Gaussian 16 at Wed Oct  7 12:30:06 2020.
 Gaussian 16:  ES64L-G16RevA.03 25-Dec-2016

 ----------------------------------------------------------------------
 #P Freq BLYP/6-31G* 5D 7F Integral=UltraFineGrid SCF=(NoSymm,XQC,MaxCy
 c=120) EmpiricalDispersion=GD3BJ IOp(1/33=1) Geom=Check Guess=Read
 ----------------------------------------------------------------------

 TstMul:  Mul=     3
 TstMul:  ICh=     0
 TstMul:  Mul=     3
 Structure from the checkpoint file:  "MN_87_RKT11_BH76_BLYPDBJ_631Gs.chk"
 Charge =  0 Multiplicity = 3

                         Standard orientation:
 ---------------------------------------------------------------------
 Center     Atomic      Atomic             Coordinates (Angstroms)
 Number     Number       Type             X           Y           Z
 ---------------------------------------------------------------------
      1          6           0        0.000557   -1.187239   -0.000000
      2          1           0       -1.075368   -1.395442   -0.000000
      3          1           0        0.527136   -1.433555    0.928014
      4          1           0        0.527136   -1.433555   -0.928014
      5          1           0        0.013305    0.257710    0.000000
      6          8           0        0.000557    1.391035    0.000000
 ---------------------------------------------------------------------

 SCF Done:  E(UB-LYP) =  -115.518279399     A.U. after    1 cycles

 The electronic state is 3-A'.
 Alpha  occ. eigenvalues --  -18.84205  -9.94713  -0.86459  -0.63742  -0.40188
 Alpha  occ. eigenvalues --   -0.38152  -0.38136  -0.31490  -0.24279  -0.21768
 Alpha virt. eigenvalues --    0.07207   0.12736   0.12837   0.20659   0.46776
 Alpha virt. eigenvalues --    0.47170   0.49041   0.66034   0.79913   0.81327
 Alpha virt. eigenvalues --    0.81579   0.81696   0.84645   0.89508   1.09186

  Beta  occ. eigenvalues --  -18.81172  -9.93755  -0.78880  -0.61320  -0.37426
  Beta  occ. eigenvalues --   -0.37399  -0.35706  -0.21137
  Beta virt. eigenvalues --   -0.18340  -0.14811   0.08082   0.13354   0.13437
  Beta virt. eigenvalues --    0.23447   0.47762   0.47846   0.53491   0.66890
  Beta virt. eigenvalues --    0.82169   0.82299   0.83075   0.86615   0.88924

 Mulliken charges and spin densities:
               1          2
     1  C   -0.564387   0.736188
     2  H    0.180286  -0.019415
     3  H    0.180692  -0.020616
     4  H    0.180692  -0.020616
     5  H    0.380134  -0.043866
     6  O   -0.357417   1.368325
 Sum of Mulliken charges =  -0.00000   2.00000

 Dipole moment (field-independent basis, Debye):
    X=              0.0007    Y=             -2.1619    Z=              0.0000  Tot=              2.1619
 Quadrupole moment (field-independent basis, Debye-Ang):
   XX=            -12.3722   YY=            -15.4166   ZZ=            -13.4829
   XY=             -0.0019   XZ=              0.0000   YZ=             -0.0000

  Exact polarizability:  14.526  -0.089  30.331   0.000   0.000  14.278
 Approx polarizability:  20.212  -0.144  51.895  -0.000  -0.000  19.301

 ******    1 imaginary frequencies (negative Signs) ******

                      1                      2                      3
                     A'                     A"                     A'
 Frequencies --   -754.7085               247.6880               382.7092
 Red. masses --      1.4236                 1.0523                 1.0692
 Frc consts  --      0.4777                 0.0380                 0.0923
 IR Inten    --     81.0287                12.8332                 3.6028

                      4                      5                      6
                     A'                     A"                     A'
 Frequencies --    647.9695               812.2359              1054.6942
 Red. masses --      2.1030                 1.0658                 1.0557
 Frc consts  --      0.5202                 0.4143                 0.6919
 IR Inten    --      0.2568                40.6951                48.5706

                      7                      8                      9
                     A'                     A'                     A"
 Frequencies --   1227.1657              1413.8956              1420.7656
 Red. masses --      1.2898                 1.0843                 1.0876
 Frc consts  --      1.1444                 1.2772                 1.2934
 IR Inten    --     15.7203                 3.7374                 3.8345

                     10                     11                     12
                     A'                     A'                     A"
 Frequencies --   3024.8264              3163.9077              3172.7652
 Red. masses --      1.0159                 1.1120                 1.1133
 Frc consts  --      5.4763                 6.5585                 6.6027
 IR Inten    --      0.0877                 6.9639                 6.6377

 - Thermochemistry -
 -------------------
 Temperature   298.150 Kelvin.  Pressure   1.00000 Atm.
 Atom     1 has atomic number  6 and mass  12.00000

 Molecular mass:    32.02621 amu.
 Principal axes and moments of inertia in atomic units:
                           1         2         3
     Eigenvalues --    12.36175 197.37450 197.41076
           X           -0.00007   0.00000   1.00000
           Y            1.00000   0.00000   0.00007
           Z            0.00000   1.00000   0.00000
 This molecule is an asymmetric top.
 Rotational symmetry number  1.
 Rotational temperatures (Kelvin)      7.00661     0.43883     0.43875
 Rotational constants (GHZ):         145.99398     9.14374     9.14206
    1 imaginary frequencies ignored.
 Zero-point vibrational energy      99102.4 (Joules/Mol)
                                   23.68604 (Kcal/Mol)
 Warning -- explicit consideration of   2 degrees of freedom as
           vibrations may cause significant error
 Vibrational temperatures:    356.37   550.63   932.28  1168.63  1517.47
          (Kelvin)           1765.62  2034.28  2044.16  4352.05  4552.16
                             4564.90

 Zero-point correction=                           0.037746 (Hartree/Particle)
 Thermal correction to Energy=                    0.041664
 Thermal correction to Enthalpy=                  0.042608
 Thermal correction to Gibbs Free Energy=         0.012768
 Sum of electronic and zero-point Energies=           -115.480533
 Sum of electronic and thermal Energies=              -115.476615
 Sum of electronic and thermal Enthalpies=            -115.475671
 Sum of electronic and thermal Free Energies=         -115.505511

                     E (Thermal)             CV                S
                      KCal/Mol        Cal/Mol-Kelvin    Cal/Mol-Kelvin
 Total                   26.145             11.507             62.804
 Electronic               0.000              0.000              2.183
 Translational            0.889              2.981             36.324
 Rotational               0.889              2.981             20.804
 Vibrational             24.367              5.545              3.492
 Vibration     1          0.661              1.767              1.747
 Vibration     2          0.752              1.507              1.028

 Optimization completed.
    -- Stationary point found.
 Normal termination of Gaussian 16 at Wed Oct  7 12:30:44 2020.
