 Gaussian 16, Revision A.03,

 ----------------------------------------------------------------------
 #P Opt(TS,MaxCyc=50,NoEigenTest,MaxStep=10,AddRedundant) BLYP/6-31G* 5
 D 7F Integral=UltraFineGrid SCF=(NoSymm,XQC,MaxCyc=120) EmpiricalDispe
 rsion=GD3BJ IOp(1/33=1)
 ----------------------------------------------------------------------

 TstMul:  Mul=     2
 TstMul:  ICh=     0
 TstMul:  Mul=     2
 Symbolic Z-matrix:
 Charge =  0 Multiplicity = 2

 SCF Done:  E(UB-LYP) =  -100.878289552     A.U. after   14 cycles
 SCF Done:  E(UB-LYP) =  -100.878280941     A.U. after   12 cycles
 SCF Done:  E(UB-LYP) =  -100.878232234     A.U. after   10 cycles
 SCF Done:  E(UB-LYP) =  -100.878101620     A.U. after   11 cycles
 SCF Done:  E(UB-LYP) =  -100.878482341     A.U. after   12 cycles
 SCF Done:  E(UB-LYP) =  -100.878829460     A.U. after   12 cycles
 SCF Done:  E(UB-LYP) =  -100.878456887     A.U. after   12 cycles
 SCF Done:  E(UB-LYP) =  -100.878005850     A.U. after   13 cycles
 SCF Done:  E(UB-LYP) =  -100.877584402     A.U. after   12 cycles
 SCF Done:  E(UB-LYP) =  -100.877203424     A.U. after   12 cycles
 SCF Done:  E(UB-LYP) =  -100.875846878     A.U. after   12 cycles
 SCF Done:  E(UB-LYP) =  -100.875686418     A.U. after   12 cycles
 SCF Done:  E(UB-LYP) =  -100.875556014     A.U. after   12 cycles
 SCF Done:  E(UB-LYP) =  -100.875475357     A.U. after   12 cycles
 SCF Done:  E(UB-LYP) =  -100.875418942     A.U. after   12 cycles
 SCF Done:  E(UB-LYP) =  -100.875415277     A.U. after   12 cycles
 SCF Done:  E(UB-LYP) =  -100.875415058     A.U. after    9 cycles
 SCF Done:  E(UB-LYP) =  -100.875415103     A.U. after    9 cycles
 SCF Done:  E(UB-LYP) =  -100.875415055     A.U. after    9 cycles
 Optimization completed.
    -- Stationary point found.
 Normal termination of Gaussian 16 at Wed Oct  7 12:34:14 2020.
 Gaussian 16:  ES64L-G16RevA.03 25-Dec-2016

 ----------------------------------------------------------------------
 #P Freq BLYP/6-31G* 5D 7F Integral=UltraFineGrid SCF=(NoSymm,XQC,MaxCy
 c=120) EmpiricalDispersion=GD3BJ IOp(1/33=1) Geom=Check Guess=Read
 ----------------------------------------------------------------------

 TstMul:  Mul=     2
 TstMul:  ICh=     0
 TstMul:  Mul=     2
 Structure from the checkpoint file:  "MN_86_RKT10_BH76_BLYPDBJ_631Gs.chk"
 Charge =  0 Multiplicity = 2

                         Standard orientation:
 ---------------------------------------------------------------------
 Center     Atomic      Atomic             Coordinates (Angstroms)
 Number     Number       Type             X           Y           Z
 ---------------------------------------------------------------------
      1          1           0        0.388527   -1.401577    0.000000
      2          9           0       -0.000000    0.311465   -0.000000
      3          1           0       -0.388527   -1.401608    0.000000
 ---------------------------------------------------------------------

 SCF Done:  E(UB-LYP) =  -100.875415055     A.U. after    1 cycles

 The electronic state is 2-A'.
 Alpha  occ. eigenvalues --  -24.31048  -1.02999  -0.47048  -0.33012  -0.32096
 Alpha  occ. eigenvalues --   -0.31533
 Alpha virt. eigenvalues --    0.04547   0.53001   0.95245   1.10875   1.11709
 Alpha virt. eigenvalues --    1.15714   1.33966   1.76659   1.77004   1.79002
 Alpha virt. eigenvalues --    1.80974   1.80984
  Beta  occ. eigenvalues --  -24.28727  -0.97369  -0.42586  -0.29763  -0.29185
  Beta virt. eigenvalues --   -0.23460   0.05842   0.54716   0.97983   1.12327
  Beta virt. eigenvalues --    1.17222   1.19207   1.37634   1.80881   1.81589
  Beta virt. eigenvalues --    1.81607   1.82810   1.83190

 Mulliken charges and spin densities:
               1          2
     1  H    0.072811   0.092710
     2  F   -0.145617   0.814567
     3  H    0.072806   0.092724
 Sum of Mulliken charges =   0.00000   1.00000

 Dipole moment (field-independent basis, Debye):
    X=              0.0000    Y=             -1.1484    Z=              0.0000  Tot=              1.1484
 Quadrupole moment (field-independent basis, Debye-Ang):
   XX=             -6.2276   YY=             -4.6331   ZZ=             -6.6561
   XY=              0.0000   XZ=             -0.0000   YZ=             -0.0000

  Exact polarizability:   7.232   0.000  13.021   0.000  -0.000   1.562
 Approx polarizability:  10.286   0.000  23.304  -0.000  -0.000   1.878

 ******    1 imaginary frequencies (negative Signs) ******

                      1                      2                      3
                     A'                     A'                     A'
 Frequencies --   -498.1712               535.7674              3890.0692
 Red. masses --      1.0128                 1.1083                 1.0080
 Frc consts  --      0.1481                 0.1874                 8.9870
 IR Inten    --      2.0269                22.1808               116.8285

 - Thermochemistry -
 -------------------
 Temperature   298.150 Kelvin.  Pressure   1.00000 Atm.
 Atom     1 has atomic number  1 and mass   1.00783

 Molecular mass:    21.01405 amu.
 Principal axes and moments of inertia in atomic units:
                           1         2         3
     Eigenvalues --     1.08656  19.09696  20.18352
           X            0.00000   1.00000   0.00000
           Y            1.00000  -0.00000   0.00000
           Z           -0.00000   0.00000   1.00000
 This molecule is an asymmetric top.
 Rotational symmetry number  1.
 Rotational temperatures (Kelvin)     79.71377     4.53548     4.29132
 Rotational constants (GHZ):        1660.96536    94.50413    89.41658
    1 imaginary frequencies ignored.
 Zero-point vibrational energy      26472.4 (Joules/Mol)
                                    6.32705 (Kcal/Mol)
 Warning -- explicit consideration of   1 degrees of freedom as
           vibrations may cause significant error
 Vibrational temperatures:    770.85  5596.94
          (Kelvin)

 Zero-point correction=                           0.010083 (Hartree/Particle)
 Thermal correction to Energy=                    0.013114
 Thermal correction to Enthalpy=                  0.014059
 Thermal correction to Gibbs Free Energy=        -0.010088
 Sum of electronic and zero-point Energies=           -100.865332
 Sum of electronic and thermal Energies=              -100.862301
 Sum of electronic and thermal Enthalpies=            -100.861357
 Sum of electronic and thermal Free Energies=         -100.885504

                     E (Thermal)             CV                S
                      KCal/Mol        Cal/Mol-Kelvin    Cal/Mol-Kelvin
 Total                    8.229              7.133             50.822
 Electronic               0.000              0.000              1.377
 Translational            0.889              2.981             35.068
 Rotational               0.889              2.981             13.802
 Vibrational              6.452              1.171              0.574
 Vibration     1          0.891              1.171              0.574

 Optimization completed.
    -- Stationary point found.
 Normal termination of Gaussian 16 at Wed Oct  7 12:34:56 2020.
