 Gaussian 16, Revision A.03,

 ----------------------------------------------------------------------
 #P Opt(TS,MaxCyc=150,NoEigenTest,MaxStep=10,AddRedundant) BLYP/6-31G*
 5D 7F Integral=UltraFineGrid SCF=(NoSymm,XQC,MaxCyc=120) EmpiricalDisp
 ersion=GD3BJ IOp(1/33=1)
 ----------------------------------------------------------------------

 TstMul:  Mul=     3
 TstMul:  ICh=     0
 TstMul:  Mul=     3
 Symbolic Z-matrix:
 Charge =  0 Multiplicity = 3

 SCF Done:  E(UB-LYP) =  -535.830461693     A.U. after   18 cycles
 SCF Done:  E(UB-LYP) =  -535.830476670     A.U. after   11 cycles
 SCF Done:  E(UB-LYP) =  -535.830555886     A.U. after   11 cycles
 SCF Done:  E(UB-LYP) =  -535.829833808     A.U. after   14 cycles
 SCF Done:  E(UB-LYP) =  -535.828638298     A.U. after   15 cycles
 SCF Done:  E(UB-LYP) =  -535.827520092     A.U. after   15 cycles
 SCF Done:  E(UB-LYP) =  -535.826506699     A.U. after   15 cycles
 SCF Done:  E(UB-LYP) =  -535.825605897     A.U. after   15 cycles
 SCF Done:  E(UB-LYP) =  -535.824837557     A.U. after   16 cycles
 SCF Done:  E(UB-LYP) =  -535.824216697     A.U. after   18 cycles
 SCF Done:  E(UB-LYP) =  -535.822906437     A.U. after   21 cycles
 SCF Done:  E(UB-LYP) =  -535.822882842     A.U. after   21 cycles
 SCF Done:  E(UB-LYP) =  -535.822876992     A.U. after   20 cycles
 SCF Done:  E(UB-LYP) =  -535.822875416     A.U. after   19 cycles
 SCF Done:  E(UB-LYP) =  -535.822877891     A.U. after   14 cycles
 SCF Done:  E(UB-LYP) =  -535.822870073     A.U. after   20 cycles
 SCF Done:  E(UB-LYP) =  -535.822880683     A.U. after   18 cycles
 SCF Done:  E(UB-LYP) =  -535.822880839     A.U. after   18 cycles
 SCF Done:  E(UB-LYP) =  -535.822881068     A.U. after   12 cycles
 Optimization completed.
    -- Stationary point found.
 Normal termination of Gaussian 16 at Wed Oct  7 12:33:40 2020.
 Gaussian 16:  ES64L-G16RevA.03 25-Dec-2016

 ----------------------------------------------------------------------
 #P Freq BLYP/6-31G* 5D 7F Integral=UltraFineGrid SCF=(NoSymm,XQC,MaxCy
 c=120) EmpiricalDispersion=GD3BJ IOp(1/33=1) Geom=Check Guess=Read
 ----------------------------------------------------------------------

 TstMul:  Mul=     3
 TstMul:  ICh=     0
 TstMul:  Mul=     3
 Structure from the checkpoint file:  "MN_91_RKT17_BH76_BLYPDBJ_631Gs.chk"
 Charge =  0 Multiplicity = 3

                         Standard orientation:
 ---------------------------------------------------------------------
 Center     Atomic      Atomic             Coordinates (Angstroms)
 Number     Number       Type             X           Y           Z
 ---------------------------------------------------------------------
      1          8           0        0.001204    2.091087    0.000000
      2         17           0        0.001204   -1.003395   -0.000000
      3          1           0       -0.030111    0.329027   -0.000000
 ---------------------------------------------------------------------

 SCF Done:  E(UB-LYP) =  -535.822881068     A.U. after    3 cycles

 The electronic state is 3-A".
 Alpha  occ. eigenvalues -- -100.72918 -18.96179  -9.17551  -7.00718  -6.99861
 Alpha  occ. eigenvalues --   -6.99860  -0.93020  -0.75589  -0.42549  -0.40040
 Alpha  occ. eigenvalues --   -0.40028  -0.32767  -0.27925  -0.27922
 Alpha virt. eigenvalues --    0.02970   0.35392   0.38511   0.40289   0.40291
 Alpha virt. eigenvalues --    0.70706   0.71734   0.71895   0.78504   0.78511
 Alpha virt. eigenvalues --    0.80951   0.80951   0.81222   1.06917   1.23282

  Beta  occ. eigenvalues -- -100.72859 -18.91973  -9.17498  -7.00697  -6.99760
  Beta  occ. eigenvalues --   -6.99759  -0.81629  -0.75163  -0.41929  -0.28952
  Beta  occ. eigenvalues --   -0.27642  -0.27642
  Beta virt. eigenvalues --   -0.25653  -0.25650   0.03589   0.35511   0.38686
  Beta virt. eigenvalues --    0.40576   0.40576   0.73246   0.78553   0.78553
  Beta virt. eigenvalues --    0.81337   0.81338   0.81513   0.81513   0.84031

 Mulliken charges and spin densities:
               1          2
     1  O    0.007877   1.919082
     2  Cl  -0.215579   0.098557
     3  H    0.207702  -0.017639
 Sum of Mulliken charges =  -0.00000   2.00000

 Dipole moment (field-independent basis, Debye):
    X=             -0.0376    Y=              1.5745    Z=              0.0000  Tot=              1.5750
 Quadrupole moment (field-independent basis, Debye-Ang):
   XX=            -18.4649   YY=            -18.7307   ZZ=            -18.4641
   XY=             -0.0858   XZ=             -0.0000   YZ=             -0.0000

  Exact polarizability:   8.651  -0.002  60.471   0.000  -0.000   8.649
 Approx polarizability:  11.869   0.077 371.201   0.000  -0.000  11.862

 ******    1 imaginary frequencies (negative Signs) ******

                      1                      2                      3
                     A'                     A'                     A'
 Frequencies --    -81.6772               139.7879              2305.9119
 Red. masses --      1.0945                 7.9729                 1.0424
 Frc consts  --      0.0043                 0.0918                 3.2658
 IR Inten    --     58.6838                 8.1487                 1.2351

 - Thermochemistry -
 -------------------
 Temperature   298.150 Kelvin.  Pressure   1.00000 Atm.
 Atom     1 has atomic number  8 and mass  15.99491

 Molecular mass:    51.97159 amu.
 Principal axes and moments of inertia in atomic units:
                           1         2         3
     Eigenvalues --     0.00346 375.75778 375.76123
           X           -0.00011   1.00000   0.00000
           Y            1.00000   0.00011   0.00000
           Z            0.00000   0.00000   1.00000
 This molecule is an asymmetric top.
 Rotational symmetry number  1.
 Rotational temperatures (Kelvin)  25057.52068     0.23050     0.23050
 Rotational constants (GHZ):      522113.98458     4.80294     4.80289
    1 imaginary frequencies ignored.
 Zero-point vibrational energy      14628.5 (Joules/Mol)
                                    3.49630 (Kcal/Mol)
 Warning -- explicit consideration of   1 degrees of freedom as
           vibrations may cause significant error
 Vibrational temperatures:    201.12  3317.69
          (Kelvin)

 Zero-point correction=                           0.005572 (Hartree/Particle)
 Thermal correction to Energy=                    0.009066
 Thermal correction to Enthalpy=                  0.010010
 Thermal correction to Gibbs Free Energy=        -0.016935
 Sum of electronic and zero-point Energies=           -535.817309
 Sum of electronic and thermal Energies=              -535.813815
 Sum of electronic and thermal Enthalpies=            -535.812871
 Sum of electronic and thermal Free Energies=         -535.839817

                     E (Thermal)             CV                S
                      KCal/Mol        Cal/Mol-Kelvin    Cal/Mol-Kelvin
 Total                    5.689              7.879             56.711
 Electronic               0.000              0.000              2.183
 Translational            0.889              2.981             37.767
 Rotational               0.889              2.981             13.954
 Vibrational              3.911              1.917              2.807
 Vibration     1          0.615              1.914              2.807

                           ! Non-Optimized Parameters !
 Normal termination of Gaussian 16 at Wed Oct  7 12:34:05 2020.
