 Gaussian 16, Revision A.03,

 ----------------------------------------------------------------------
 #P Opt(TS,MaxCyc=50,NoEigenTest,MaxStep=10,AddRedundant) BLYP/6-31G* 5
 D 7F Integral=UltraFineGrid SCF=(NoSymm,XQC,MaxCyc=120) EmpiricalDispe
 rsion=GD3BJ IOp(1/33=1)
 ----------------------------------------------------------------------

 TstMul:  Mul=     3
 TstMul:  ICh=     0
 TstMul:  Mul=     3
 Symbolic Z-matrix:
 Charge =  0 Multiplicity = 3

 SCF Done:  E(UB-LYP) =  -95.6577857563     A.U. after   13 cycles
 SCF Done:  E(UB-LYP) =  -95.6580925299     A.U. after   12 cycles
 SCF Done:  E(UB-LYP) =  -95.6588119236     A.U. after   12 cycles
 SCF Done:  E(UB-LYP) =  -95.6582889604     A.U. after   14 cycles
 SCF Done:  E(UB-LYP) =  -95.6583699284     A.U. after   12 cycles
 SCF Done:  E(UB-LYP) =  -95.6583179318     A.U. after   14 cycles
 SCF Done:  E(UB-LYP) =  -95.6584142974     A.U. after   12 cycles
 SCF Done:  E(UB-LYP) =  -95.6581930126     A.U. after   12 cycles
 SCF Done:  E(UB-LYP) =  -95.6582202375     A.U. after   13 cycles
 SCF Done:  E(UB-LYP) =  -95.6581292469     A.U. after   12 cycles
 SCF Done:  E(UB-LYP) =  -95.6581097462     A.U. after   12 cycles
 SCF Done:  E(UB-LYP) =  -95.6581163552     A.U. after   12 cycles
 SCF Done:  E(UB-LYP) =  -95.6581178652     A.U. after   11 cycles
 SCF Done:  E(UB-LYP) =  -95.6581181050     A.U. after    9 cycles
 SCF Done:  E(UB-LYP) =  -95.6581181724     A.U. after    8 cycles
 Optimization completed.
    -- Stationary point found.

 1\1\GINC-NODE37\FTS\UBLYP\6-31G(d)\C1H5N1(3)\RPEVERATI\07-Oct-2020\0\\
 #P Opt(TS,MaxCyc=50,NoEigenTest,MaxStep=10,AddRedundant) BLYP/6-31G* 5
 D 7F Integral=UltraFineGrid SCF=(NoSymm,XQC,MaxCyc=120) EmpiricalDispe
 rsion=GD3BJ IOp(1/33=1)\\TS search on BH76.\\0,3\C,-1.2411389344,-0.01
 10814158,0.0022716944\N,1.4355131404,0.1191112589,-0.0105540005\H,-1.4
 33298722,-0.519813584,0.9528841294\H,-1.4384697167,-0.6065976999,-0.89
 53511514\H,-1.572159573,1.0317237565,-0.0457478082\H,0.2705618845,0.18
 52556816,-0.0071489252\H,1.5725897766,-0.922143638,0.0037072969\\Versi

 Normal termination of Gaussian 16 at Wed Oct  7 12:30:41 2020.
 Gaussian 16:  ES64L-G16RevA.03 25-Dec-2016

 ----------------------------------------------------------------------
 #P Freq BLYP/6-31G* 5D 7F Integral=UltraFineGrid SCF=(NoSymm,XQC,MaxCy
 c=120) EmpiricalDispersion=GD3BJ IOp(1/33=1) Geom=Check Guess=Read
 ----------------------------------------------------------------------

 TstMul:  Mul=     3
 TstMul:  ICh=     0
 TstMul:  Mul=     3
 Structure from the checkpoint file:  "MN_92_RKT18_BH76_BLYPDBJ_631Gs.chk"
 Charge =  0 Multiplicity = 3

                         Standard orientation:
 ---------------------------------------------------------------------
 Center     Atomic      Atomic             Coordinates (Angstroms)
 Number     Number       Type             X           Y           Z
 ---------------------------------------------------------------------
      1          6           0       -1.241162   -0.012660   -0.000010
      2          7           0        1.434957    0.128651   -0.000085
      3          1           0       -1.435027   -0.535580    0.942523
      4          1           0       -1.432413   -0.596213   -0.906760
      5          1           0       -1.576311    1.029357   -0.034629
      6          1           0        0.269737    0.189974   -0.000493
      7          1           0        1.576293   -0.912132    0.000011
 ---------------------------------------------------------------------

 SCF Done:  E(UB-LYP) =  -95.6581181724     A.U. after    1 cycles

 The electronic state is 3-A.
 Alpha  occ. eigenvalues --  -14.05223  -9.92621  -0.74956  -0.61474  -0.40013
 Alpha  occ. eigenvalues --   -0.36357  -0.36245  -0.28886  -0.24770  -0.17952
 Alpha virt. eigenvalues --    0.06665   0.09729   0.13991   0.14139   0.23290
 Alpha virt. eigenvalues --    0.47272   0.47352   0.50828   0.63878   0.64943
 Alpha virt. eigenvalues --    0.67109   0.76979   0.83082   0.83149   0.83415

  Beta  occ. eigenvalues --  -14.02833  -9.91666  -0.69285  -0.59180  -0.37777
  Beta  occ. eigenvalues --   -0.35642  -0.35474  -0.25033
  Beta virt. eigenvalues --   -0.13411  -0.11363   0.07719   0.10761   0.14611
  Beta virt. eigenvalues --    0.14757   0.25639   0.48194   0.48795   0.55058
  Beta virt. eigenvalues --    0.67607   0.68419   0.71369   0.78245   0.83728

 Mulliken charges and spin densities:
               1          2
     1  C   -0.559026   0.737993
     2  N   -0.492400   1.431416
     3  H    0.161127  -0.022045
     4  H    0.160747  -0.022207
     5  H    0.167485  -0.020642
     6  H    0.294712  -0.063010
     7  H    0.267355  -0.041505
 Sum of Mulliken charges =   0.00000   2.00000

 Dipole moment (field-independent basis, Debye):
    X=             -1.1594    Y=             -1.3301    Z=              0.0004  Tot=              1.7644
 Quadrupole moment (field-independent basis, Debye-Ang):
   XX=            -16.7899   YY=            -13.8236   ZZ=            -14.1979
   XY=             -2.6495   XZ=              0.0011   YZ=             -0.0011

  Exact polarizability:  40.605  -0.831  20.896   0.006  -0.001  16.192
 Approx polarizability:  70.782   1.404  30.726   0.009  -0.001  22.582

 ******    1 imaginary frequencies (negative Signs) ******

                      1                      2                      3
                      A                      A                      A
 Frequencies --   -696.5653                63.3283               348.6963
 Red. masses --      1.5513                 1.0478                 1.0626
 Frc consts  --      0.4435                 0.0025                 0.0761
 IR Inten    --    115.6126                51.1122                10.6854

                      4                      5                      6
                      A                      A                      A
 Frequencies --    395.7826               618.8367               789.7717
 Red. masses --      1.0795                 1.4036                 1.2727
 Frc consts  --      0.0996                 0.3167                 0.4677
 IR Inten    --      5.4990                17.7050                11.7321

                      7                      8                      9
                      A                      A                      A
 Frequencies --   1052.5171              1190.9197              1416.6463
 Red. masses --      1.0564                 1.3313                 1.0882
 Frc consts  --      0.6895                 1.1125                 1.2867
 IR Inten    --     51.3883                 0.1430                 4.7446

                     10                     11                     12
                      A                      A                      A
 Frequencies --   1417.4776              1534.1514              3025.2105
 Red. masses --      1.0844                 1.0518                 1.0159
 Frc consts  --      1.2838                 1.4586                 5.4780
 IR Inten    --      3.3794               145.6410                 0.2114

                     13                     14                     15
                      A                      A                      A
 Frequencies --   3164.3589              3165.6575              3183.9190
 Red. masses --      1.1123                 1.1122                 1.0721
 Frc consts  --      6.5620                 6.5670                 6.4034
 IR Inten    --     14.3146                 8.4832                29.1175

 - Thermochemistry -
 -------------------
 Temperature   298.150 Kelvin.  Pressure   1.00000 Atm.
 Atom     1 has atomic number  6 and mass  12.00000

 Molecular mass:    31.04220 amu.
 Principal axes and moments of inertia in atomic units:
                           1         2         3
     Eigenvalues --    16.05332 207.43198 211.16399
           X            0.99970  -0.02442   0.00001
           Y            0.02442   0.99970   0.00004
           Z           -0.00001  -0.00004   1.00000
 This molecule is an asymmetric top.
 Rotational symmetry number  1.
 Rotational temperatures (Kelvin)      5.39539     0.41755     0.41017
 Rotational constants (GHZ):         112.42167     8.70040     8.54663
    1 imaginary frequencies ignored.
 Zero-point vibrational energy     127804.7 (Joules/Mol)
                                   30.54605 (Kcal/Mol)
 Warning -- explicit consideration of   4 degrees of freedom as
           vibrations may cause significant error
 Vibrational temperatures:     91.12   501.70   569.44   890.37  1136.31
          (Kelvin)           1514.34  1713.47  2038.24  2039.43  2207.30
                             4352.60  4552.81  4554.68  4580.95

 Zero-point correction=                           0.048678 (Hartree/Particle)
 Thermal correction to Energy=                    0.053291
 Thermal correction to Enthalpy=                  0.054235
 Thermal correction to Gibbs Free Energy=         0.022453
 Sum of electronic and zero-point Energies=            -95.609440
 Sum of electronic and thermal Energies=               -95.604827
 Sum of electronic and thermal Enthalpies=             -95.603883
 Sum of electronic and thermal Free Energies=          -95.635665

                     E (Thermal)             CV                S
                      KCal/Mol        Cal/Mol-Kelvin    Cal/Mol-Kelvin
 Total                   33.441             13.451             66.892
 Electronic               0.000              0.000              2.183
 Translational            0.889              2.981             36.231
 Rotational               0.889              2.981             21.180
 Vibrational             31.663              7.489              7.297
 Vibration     1          0.597              1.972              4.351
 Vibration     2          0.726              1.578              1.172
 Vibration     3          0.763              1.479              0.978
 Vibration     4          0.979              0.992              0.418

                           ! Non-Optimized Parameters !
 Normal termination of Gaussian 16 at Wed Oct  7 12:31:14 2020.
