 Gaussian 16, Revision A.03,

 ----------------------------------------------------------------------
 #P Opt(TS,MaxCyc=50,NoEigenTest,MaxStep=10,AddRedundant) BLYP/6-31G* 5
 D 7F Integral=UltraFineGrid SCF=(NoSymm,XQC,MaxCyc=120) EmpiricalDispe
 rsion=GD3BJ IOp(1/33=1)
 ----------------------------------------------------------------------

 TstMul:  Mul=     1
 TstMul:  ICh=     0
 TstMul:  Mul=     1
 Symbolic Z-matrix:
 Charge =  0 Multiplicity = 1

 SCF Done:  E(RB-LYP) =  -195.152086979     A.U. after   14 cycles
 SCF Done:  E(RB-LYP) =  -195.153766105     A.U. after   12 cycles
 SCF Done:  E(RB-LYP) =  -195.153753416     A.U. after   11 cycles
 SCF Done:  E(RB-LYP) =  -195.153645456     A.U. after   11 cycles
 SCF Done:  E(RB-LYP) =  -195.153506818     A.U. after   11 cycles
 SCF Done:  E(RB-LYP) =  -195.153184064     A.U. after   11 cycles
 SCF Done:  E(RB-LYP) =  -195.152618065     A.U. after   12 cycles
 SCF Done:  E(RB-LYP) =  -195.152144420     A.U. after   12 cycles
 SCF Done:  E(RB-LYP) =  -195.152841005     A.U. after   13 cycles
 SCF Done:  E(RB-LYP) =  -195.153678338     A.U. after   13 cycles
 SCF Done:  E(RB-LYP) =  -195.154136991     A.U. after   13 cycles
 SCF Done:  E(RB-LYP) =  -195.154129325     A.U. after   13 cycles
 SCF Done:  E(RB-LYP) =  -195.154160142     A.U. after   12 cycles
 SCF Done:  E(RB-LYP) =  -195.154167547     A.U. after    9 cycles
 SCF Done:  E(RB-LYP) =  -195.154169631     A.U. after    9 cycles
 Optimization completed.
    -- Stationary point found.
 Normal termination of Gaussian 16 at Wed Oct  7 12:33:36 2020.
 Gaussian 16:  ES64L-G16RevA.03 25-Dec-2016

 ----------------------------------------------------------------------
 #P Freq BLYP/6-31G* 5D 7F Integral=UltraFineGrid SCF=(NoSymm,XQC,MaxCy
 c=120) EmpiricalDispersion=GD3BJ IOp(1/33=1) Geom=Check Guess=Read
 ----------------------------------------------------------------------

 TstMul:  Mul=     1
 TstMul:  ICh=     0
 TstMul:  Mul=     1
 Structure from the checkpoint file:  "MN_96_RKT22_BH76_BLYPDBJ_631Gs.chk"
 Charge =  0 Multiplicity = 1

                         Standard orientation:
 ---------------------------------------------------------------------
 Center     Atomic      Atomic             Coordinates (Angstroms)
 Number     Number       Type             X           Y           Z
 ---------------------------------------------------------------------
      1          6           0       -1.326361   -0.912790   -0.021923
      2          6           0       -1.222169    0.511683   -0.011643
      3          6           0       -0.000490    1.190369    0.150027
      4          6           0        1.221521    0.512201   -0.010676
      5          6           0        1.327064   -0.912295   -0.023015
      6          1           0        2.207467   -1.334281   -0.527824
      7          1           0        1.084811   -1.468333    0.891170
      8          1           0        2.059533    1.105779   -0.397386
      9          1           0       -0.000548    2.283477    0.091856
     10          1           0       -2.059533    1.104044   -0.401593
     11          1           0       -2.206858   -1.336701   -0.524922
     12          1           0        0.000088   -1.222060   -0.520890
     13          1           0       -1.082347   -1.466932    0.892966
 ---------------------------------------------------------------------

 SCF Done:  E(RB-LYP) =  -195.154169631     A.U. after    1 cycles

 The electronic state is 1-A.
 Alpha  occ. eigenvalues --   -9.92107  -9.92105  -9.91436  -9.91294  -9.91292
 Alpha  occ. eigenvalues --   -0.72789  -0.65138  -0.60725  -0.51629  -0.46069
 Alpha  occ. eigenvalues --   -0.42903  -0.36481  -0.35354  -0.35094  -0.32826
 Alpha  occ. eigenvalues --   -0.30834  -0.29774  -0.21617  -0.18188
 Alpha virt. eigenvalues --   -0.04289   0.00700   0.07295   0.10042   0.11671
 Alpha virt. eigenvalues --    0.14479   0.15636   0.15902   0.18560   0.20381
 Alpha virt. eigenvalues --    0.25080   0.26395   0.32274   0.38279   0.48067

 Mulliken charges:
               1
     1  C   -0.426039
     2  C   -0.045966
     3  C   -0.096668
     4  C   -0.046034
     5  C   -0.426048
     6  H    0.120238
     7  H    0.159983
     8  H    0.111929
     9  H    0.095668
    10  H    0.111932
    11  H    0.120254
    12  H    0.160738
    13  H    0.160012
 Sum of Mulliken charges =  -0.00000

 Dipole moment (field-independent basis, Debye):
    X=              0.0001    Y=              0.0299    Z=             -0.0937  Tot=              0.0983
 Quadrupole moment (field-independent basis, Debye-Ang):
   XX=            -30.4079   YY=            -30.1918   ZZ=            -33.4954
   XY=              0.0027   XZ=              0.0038   YZ=             -1.3008

  Exact polarizability:  75.723  -0.010  64.146   0.006  -0.641  29.865
 Approx polarizability: 160.364  -0.084 133.908   0.003   5.085  49.444

 ******    1 imaginary frequencies (negative Signs) ******

                      1                      2                      3
                      A                      A                      A
 Frequencies --  -1408.5709               270.2992               447.2923
 Red. masses --      1.1893                 2.1145                 2.6695
 Frc consts  --      1.3902                 0.0910                 0.3147
 IR Inten    --     13.2503                 0.1828                 0.5709

                      4                      5                      6
                      A                      A                      A
 Frequencies --    485.7602               545.0036               592.9776
 Red. masses --      2.1090                 3.5646                 1.3424
 Frc consts  --      0.2932                 0.6238                 0.2781
 IR Inten    --      3.8916                 3.0760                22.5007

                      7                      8                      9
                      A                      A                      A
 Frequencies --    724.3124               771.5268               787.2633
 Red. masses --      1.8722                 1.2484                 1.3239
 Frc consts  --      0.5787                 0.4378                 0.4834
 IR Inten    --      5.6028                 3.5336                40.7407

                     10                     11                     12
                      A                      A                      A
 Frequencies --    945.3938               950.8701               975.8810
 Red. masses --      1.3549                 1.3174                 1.5659
 Frc consts  --      0.7135                 0.7018                 0.8786
 IR Inten    --      5.6608                 1.3686                15.9361

                     13                     14                     15
                      A                      A                      A
 Frequencies --    984.5467               994.3804              1080.6335
 Red. masses --      2.1175                 1.3665                 1.3293
 Frc consts  --      1.2093                 0.7961                 0.9146
 IR Inten    --      5.1138                 0.2648                 2.5620

                     16                     17                     18
                      A                      A                      A
 Frequencies --   1112.2277              1167.0894              1231.5823
 Red. masses --      1.5755                 1.2008                 1.5268
 Frc consts  --      1.1483                 0.9637                 1.3644
 IR Inten    --      1.5593                 6.6703                 6.2899

                     19                     20                     21
                      A                      A                      A
 Frequencies --   1251.0891              1379.1864              1415.4849
 Red. masses --      1.2296                 1.0869                 1.4131
 Frc consts  --      1.1339                 1.2181                 1.6682
 IR Inten    --     10.1300                 7.3818                 2.6786

                     22                     23                     24
                      A                      A                      A
 Frequencies --   1423.3485              1493.6148              1508.2497
 Red. masses --      1.0741                 1.8298                 1.6637
 Frc consts  --      1.2821                 2.4052                 2.2299
 IR Inten    --      3.9412                 0.6904                 0.9549

                     25                     26                     27
                      A                      A                      A
 Frequencies --   1512.5142              1557.5600              3023.4334
 Red. masses --      2.4361                 1.5298                 1.0562
 Frc consts  --      3.2836                 2.1867                 5.6884
 IR Inten    --      5.4641                 3.6184                31.1408

                     28                     29                     30
                      A                      A                      A
 Frequencies --   3024.2731              3060.8421              3063.9006
 Red. masses --      1.0561                 1.0879                 1.0933
 Frc consts  --      5.6914                 6.0050                 6.0472
 IR Inten    --     15.9463                 1.0547                 6.3702

                     31                     32                     33
                      A                      A                      A
 Frequencies --   3080.2541              3084.8889              3103.9706
 Red. masses --      1.1083                 1.1065                 1.0932
 Frc consts  --      6.1954                 6.2041                 6.2055
 IR Inten    --     39.9092                20.1825                32.7632

 - Thermochemistry -
 -------------------
 Temperature   298.150 Kelvin.  Pressure   1.00000 Atm.
 Atom     1 has atomic number  6 and mass  12.00000

 Molecular mass:    68.06260 amu.
 Principal axes and moments of inertia in atomic units:
                           1         2         3
     Eigenvalues --   226.42642 363.64591 568.49073
           X            1.00000   0.00004   0.00002
           Y           -0.00004   0.99977  -0.02132
           Z           -0.00002   0.02132   0.99977
 This molecule is an asymmetric top.
 Rotational symmetry number  1.
 Rotational temperatures (Kelvin)      0.38253     0.23818     0.15236
 Rotational constants (GHZ):           7.97054     4.96291     3.17462
    1 imaginary frequencies ignored.
 Zero-point vibrational energy     281419.4 (Joules/Mol)
                                   67.26085 (Kcal/Mol)
 Warning -- explicit consideration of   5 degrees of freedom as
           vibrations may cause significant error
 Vibrational temperatures:    388.90   643.55   698.90   784.14   853.16
          (Kelvin)           1042.12  1110.06  1132.70  1360.21  1368.09
                             1404.08  1416.54  1430.69  1554.79  1600.25
                             1679.18  1771.97  1800.04  1984.34  2036.57
                             2047.88  2148.98  2170.03  2176.17  2240.98
                             4350.05  4351.25  4403.87  4408.27  4431.80
                             4438.47  4465.92

 Zero-point correction=                           0.107187 (Hartree/Particle)
 Thermal correction to Energy=                    0.111954
 Thermal correction to Enthalpy=                  0.112898
 Thermal correction to Gibbs Free Energy=         0.079815
 Sum of electronic and zero-point Energies=           -195.046983
 Sum of electronic and thermal Energies=              -195.042216
 Sum of electronic and thermal Enthalpies=            -195.041272
 Sum of electronic and thermal Free Energies=         -195.074355

                     E (Thermal)             CV                S
                      KCal/Mol        Cal/Mol-Kelvin    Cal/Mol-Kelvin
 Total                   70.252             18.495             69.630
 Electronic               0.000              0.000              0.000
 Translational            0.889              2.981             38.571
 Rotational               0.889              2.981             25.351
 Vibrational             68.475             12.533              5.707
 Vibration     1          0.674              1.728              1.594
 Vibration     2          0.806              1.367              0.804
 Vibration     3          0.842              1.282              0.695
 Vibration     4          0.900              1.151              0.555
 Vibration     5          0.951              1.047              0.462

                           ! Non-Optimized Parameters !
 Normal termination of Gaussian 16 at Wed Oct  7 12:34:38 2020.
