 Gaussian 16, Revision A.03,

 ----------------------------------------------------------------------
 #P Opt(TS,MaxCyc=50,NoEigenTest,MaxStep=10,AddRedundant) BLYP/6-31G* 5
 D 7F Integral=UltraFineGrid SCF=(NoSymm,XQC,MaxCyc=120) EmpiricalDispe
 rsion=GD3BJ IOp(1/33=1)
 ----------------------------------------------------------------------

 TstMul:  Mul=     2
 TstMul:  ICh=     0
 TstMul:  Mul=     2
 Symbolic Z-matrix:
 Charge =  0 Multiplicity = 2

 SCF Done:  E(UB-LYP) =  -135.609757813     A.U. after   15 cycles
 SCF Done:  E(UB-LYP) =  -135.610765069     A.U. after   12 cycles
 SCF Done:  E(UB-LYP) =  -135.611067991     A.U. after   12 cycles
 SCF Done:  E(UB-LYP) =  -135.611337458     A.U. after   12 cycles
 SCF Done:  E(UB-LYP) =  -135.611404214     A.U. after   12 cycles
 SCF Done:  E(UB-LYP) =  -135.611420082     A.U. after   10 cycles
 SCF Done:  E(UB-LYP) =  -135.611365112     A.U. after   12 cycles
 SCF Done:  E(UB-LYP) =  -135.611366209     A.U. after   12 cycles
 SCF Done:  E(UB-LYP) =  -135.611366753     A.U. after    9 cycles
 SCF Done:  E(UB-LYP) =  -135.611367563     A.U. after   10 cycles
 SCF Done:  E(UB-LYP) =  -135.611366894     A.U. after   10 cycles
 SCF Done:  E(UB-LYP) =  -135.611366936     A.U. after    7 cycles
 Optimization completed.
    -- Stationary point found.

 1\1\GINC-NODE26\FTS\UBLYP\6-31G(d)\C2H8N1(2)\RPEVERATI\07-Oct-2020\0\\
 #P Opt(TS,MaxCyc=50,NoEigenTest,MaxStep=10,AddRedundant) BLYP/6-31G* 5
 D 7F Integral=UltraFineGrid SCF=(NoSymm,XQC,MaxCyc=120) EmpiricalDispe
 rsion=GD3BJ IOp(1/33=1)\\TS search on BH76.\\0,2\C,-1.5231878698,-0.44
 89635463,-0.0152518789\C,-0.5013227453,0.6774879174,0.0254683781\N,1.9
 222403069,-0.3215152333,0.0478201934\H,-1.3982912666,-1.0745845643,-0.
 9151030347\H,-1.4337181073,-1.105251767,0.8665910409\H,-2.5577632004,-
 0.0520386436,-0.0295953586\H,-0.4816329286,1.3154762966,-0.8711614144\

 Normal termination of Gaussian 16 at Wed Oct  7 12:31:12 2020.
 Gaussian 16:  ES64L-G16RevA.03 25-Dec-2016

 ----------------------------------------------------------------------
 #P Freq BLYP/6-31G* 5D 7F Integral=UltraFineGrid SCF=(NoSymm,XQC,MaxCy
 c=120) EmpiricalDispersion=GD3BJ IOp(1/33=1) Geom=Check Guess=Read
 ----------------------------------------------------------------------

 TstMul:  Mul=     2
 TstMul:  ICh=     0
 TstMul:  Mul=     2
 Structure from the checkpoint file:  "MN_94_RKT20_BH76_BLYPDBJ_631Gs.chk"
 Charge =  0 Multiplicity = 2

                         Standard orientation:
 ---------------------------------------------------------------------
 Center     Atomic      Atomic             Coordinates (Angstroms)
 Number     Number       Type             X           Y           Z
 ---------------------------------------------------------------------
      1          6           0       -1.535479   -0.428773    0.009398
      2          6           0       -0.498810    0.684532   -0.015698
      3          7           0        1.911776   -0.344507    0.032441
      4          1           0       -1.428033   -1.099692   -0.859541
      5          1           0       -1.445298   -1.041842    0.921746
      6          1           0       -2.564945   -0.019224   -0.014485
      7          1           0       -0.480236    1.277134   -0.942974
      8          1           0       -0.503160    1.338438    0.869854
      9          1           0        0.678158    0.069370    0.033662
     10          1           0        2.228994    0.015791   -0.890315
     11          1           0        2.337820    0.337012    0.692767
 ---------------------------------------------------------------------

 SCF Done:  E(UB-LYP) =  -135.611366936     A.U. after    1 cycles

 The electronic state is 2-A.
 Alpha  occ. eigenvalues --  -14.00981  -9.91715  -9.90939  -0.74961  -0.66874
 Alpha  occ. eigenvalues --   -0.54124  -0.39326  -0.39249  -0.38097  -0.33281
 Alpha  occ. eigenvalues --   -0.32055  -0.29959  -0.23153  -0.16226
 Alpha virt. eigenvalues --    0.05806   0.09411   0.12030   0.12363   0.13774
 Alpha virt. eigenvalues --    0.14614   0.16751   0.20901   0.26479   0.46454
 Alpha virt. eigenvalues --    0.49012   0.51669   0.55784   0.57029   0.60752

  Beta  occ. eigenvalues --  -13.99942  -9.90997  -9.90949  -0.72633  -0.66042
  Beta  occ. eigenvalues --   -0.53189  -0.38733  -0.37768  -0.37623  -0.32282
  Beta  occ. eigenvalues --   -0.31539  -0.29726  -0.21310
  Beta virt. eigenvalues --   -0.10875   0.06361   0.09723   0.12351   0.12864
  Beta virt. eigenvalues --    0.14001   0.14876   0.17153   0.21479   0.27862
  Beta virt. eigenvalues --    0.46994   0.49220   0.52154   0.57159   0.58176

 Mulliken charges and spin densities:
               1          2
     1  C   -0.380657  -0.015950
     2  C   -0.405206   0.497376
     3  N   -0.710305   0.580508
     4  H    0.140323   0.004476
     5  H    0.143109   0.004390
     6  H    0.136688   0.032675
     7  H    0.134863  -0.012837
     8  H    0.136593  -0.011893
     9  H    0.263914  -0.048660
    10  H    0.270216  -0.015016
    11  H    0.270463  -0.015069
 Sum of Mulliken charges =  -0.00000   1.00000

 Dipole moment (field-independent basis, Debye):
    X=             -0.2851    Y=              1.6257    Z=             -0.3384  Tot=              1.6849
 Quadrupole moment (field-independent basis, Debye-Ang):
   XX=            -20.7483   YY=            -23.2210   ZZ=            -20.3158
   XY=              3.5409   XZ=             -0.7106   YZ=              0.4752

  Exact polarizability:  59.226  -4.127  31.659   0.050   0.506  31.651
 Approx polarizability:  96.256 -15.535  50.200   0.865   0.602  48.664

 ******    1 imaginary frequencies (negative Signs) ******

                      1                      2                      3
                      A                      A                      A
 Frequencies --  -1476.4639                19.6730               145.9630
 Red. masses --      1.0780                 1.0848                 2.6801
 Frc consts  --      1.3846                 0.0002                 0.0336
 IR Inten    --    254.9916                45.1104                 4.9375

                      4                      5                      6
                      A                      A                      A
 Frequencies --    166.8236               425.2070               452.2111
 Red. masses --      1.0855                 1.0840                 2.1604
 Frc consts  --      0.0178                 0.1155                 0.2603
 IR Inten    --      0.5002                 2.5260                 0.7513

                      7                      8                      9
                      A                      A                      A
 Frequencies --    739.7463               764.3784               872.3351
 Red. masses --      1.1944                 1.2519                 1.0540
 Frc consts  --      0.3851                 0.4309                 0.4725
 IR Inten    --     21.9238                45.9858                 1.9035

                     10                     11                     12
                      A                      A                      A
 Frequencies --    918.5620              1019.7589              1170.8556
 Red. masses --      1.2238                 3.1386                 1.4018
 Frc consts  --      0.6084                 1.9230                 1.1323
 IR Inten    --     79.3839                 5.1038                19.5042

                     13                     14                     15
                      A                      A                      A
 Frequencies --   1213.3327              1351.6771              1394.0482
 Red. masses --      1.3909                 1.0830                 1.1909
 Frc consts  --      1.2064                 1.1659                 1.3636
 IR Inten    --      0.4198               101.9000                 0.1058

                     16                     17                     18
                      A                      A                      A
 Frequencies --   1456.6303              1478.2450              1485.3312
 Red. masses --      1.1280                 1.0346                 1.0514
 Frc consts  --      1.4101                 1.3321                 1.3666
 IR Inten    --      1.4014                 2.2254                 3.4371

                     19                     20                     21
                      A                      A                      A
 Frequencies --   1506.0530              1600.6371              2937.9012
 Red. masses --      1.0441                 1.0677                 1.0496
 Frc consts  --      1.3953                 1.6117                 5.3378
 IR Inten    --     11.7810                12.5849                26.3529

                     22                     23                     24
                      A                      A                      A
 Frequencies --   3000.4487              3010.7998              3033.1957
 Red. masses --      1.0687                 1.0676                 1.1023
 Frc consts  --      5.6686                 5.7017                 5.9752
 IR Inten    --      0.9261                47.9199                12.0128

                     25                     26                     27
                      A                      A                      A
 Frequencies --   3075.3510              3226.7750              3327.1178
 Red. masses --      1.1093                 1.0497                 1.0878
 Frc consts  --      6.1813                 6.4395                 7.0946
 IR Inten    --     45.1703                13.1279                10.9161

 - Thermochemistry -
 -------------------
 Temperature   298.150 Kelvin.  Pressure   1.00000 Atm.
 Atom     1 has atomic number  6 and mass  12.00000

 Molecular mass:    46.06567 amu.
 Principal axes and moments of inertia in atomic units:
                           1         2         3
     Eigenvalues --    70.83894 390.40387 428.69022
           X            0.99955   0.02988  -0.00349
           Y           -0.02983   0.99945   0.01414
           Z            0.00391  -0.01403   0.99989
 This molecule is an asymmetric top.
 Rotational symmetry number  1.
 Rotational temperatures (Kelvin)      1.22269     0.22186     0.20204
 Rotational constants (GHZ):          25.47668     4.62275     4.20990
    1 imaginary frequencies ignored.
 Zero-point vibrational energy     238015.3 (Joules/Mol)
                                   56.88703 (Kcal/Mol)
 Warning -- explicit consideration of   5 degrees of freedom as
           vibrations may cause significant error
 Vibrational temperatures:     28.31   210.01   240.02   611.78   650.63
          (Kelvin)           1064.33  1099.77  1255.10  1321.61  1467.21
                             1684.60  1745.72  1944.76  2005.72  2095.77
                             2126.86  2137.06  2166.87  2302.96  4226.98
                             4316.98  4331.87  4364.09  4424.74  4642.61
                             4786.98

 Zero-point correction=                           0.090655 (Hartree/Particle)
 Thermal correction to Energy=                    0.096608
 Thermal correction to Enthalpy=                  0.097552
 Thermal correction to Gibbs Free Energy=         0.060798
 Sum of electronic and zero-point Energies=           -135.520712
 Sum of electronic and thermal Energies=              -135.514759
 Sum of electronic and thermal Enthalpies=            -135.513815
 Sum of electronic and thermal Free Energies=         -135.550569

                     E (Thermal)             CV                S
                      KCal/Mol        Cal/Mol-Kelvin    Cal/Mol-Kelvin
 Total                   60.622             18.373             77.355
 Electronic               0.000              0.000              1.377
 Translational            0.889              2.981             37.408
 Rotational               0.889              2.981             23.987
 Vibrational             58.845             12.411             14.583
 Vibration     1          0.593              1.986              6.667
 Vibration     2          0.617              1.907              2.724
 Vibration     3          0.624              1.883              2.471
 Vibration     4          0.787              1.415              0.874
 Vibration     5          0.811              1.356              0.789

                           ! Non-Optimized Parameters !
 Normal termination of Gaussian 16 at Wed Oct  7 12:32:09 2020.
