 Gaussian 16, Revision A.03,

 ----------------------------------------------------------------------
 #P Opt(TS,MaxCyc=50,NoEigenTest,MaxStep=10,AddRedundant) BLYP/6-31G* 5
 D 7F Integral=UltraFineGrid SCF=(NoSymm,XQC,MaxCyc=120) EmpiricalDispe
 rsion=GD3BJ IOp(1/33=1)
 ----------------------------------------------------------------------

 TstMul:  Mul=     3
 TstMul:  ICh=     0
 TstMul:  Mul=     3
 Symbolic Z-matrix:
 Charge =  0 Multiplicity = 3

 SCF Done:  E(UB-LYP) =  -134.949566388     A.U. after   15 cycles
 SCF Done:  E(UB-LYP) =  -134.950040987     A.U. after   12 cycles
 SCF Done:  E(UB-LYP) =  -134.951361858     A.U. after   14 cycles
 SCF Done:  E(UB-LYP) =  -134.952020462     A.U. after   15 cycles
 SCF Done:  E(UB-LYP) =  -134.952361580     A.U. after   13 cycles
 SCF Done:  E(UB-LYP) =  -134.952346427     A.U. after   12 cycles
 SCF Done:  E(UB-LYP) =  -134.952127328     A.U. after   15 cycles
 SCF Done:  E(UB-LYP) =  -134.952443435     A.U. after   12 cycles
 SCF Done:  E(UB-LYP) =  -134.951966254     A.U. after   13 cycles
 SCF Done:  E(UB-LYP) =  -134.951675360     A.U. after   13 cycles
 SCF Done:  E(UB-LYP) =  -134.951651600     A.U. after   15 cycles
 SCF Done:  E(UB-LYP) =  -134.951665485     A.U. after   12 cycles
 SCF Done:  E(UB-LYP) =  -134.951683732     A.U. after   12 cycles
 SCF Done:  E(UB-LYP) =  -134.951696702     A.U. after   12 cycles
 SCF Done:  E(UB-LYP) =  -134.951712708     A.U. after   13 cycles
 SCF Done:  E(UB-LYP) =  -134.951735986     A.U. after   13 cycles
 SCF Done:  E(UB-LYP) =  -134.951740667     A.U. after   12 cycles
 SCF Done:  E(UB-LYP) =  -134.951741915     A.U. after   11 cycles
 SCF Done:  E(UB-LYP) =  -134.951742090     A.U. after    9 cycles
 Optimization completed.
    -- Stationary point found.

 1\1\GINC-NODE52\FTS\UBLYP\6-31G(d)\C2H7N1(3)\RPEVERATI\07-Oct-2020\0\\
 #P Opt(TS,MaxCyc=50,NoEigenTest,MaxStep=10,AddRedundant) BLYP/6-31G* 5
 D 7F Integral=UltraFineGrid SCF=(NoSymm,XQC,MaxCyc=120) EmpiricalDispe
 rsion=GD3BJ IOp(1/33=1)\\TS search on BH76.\\0,3\C,-1.4268398966,-0.44
 76778063,-0.0078281874\C,-0.4425732372,0.7048410057,-0.0133675923\N,1.
 9996378993,-0.3401412874,0.0398731193\H,-1.291927396,-1.0999972587,-0.
 8870291679\H,-1.3180506576,-1.069087712,0.8969864207\H,-2.4736101043,-
 0.081287611,-0.0295778869\H,-0.4048416351,1.3012288952,-0.9363889926\H

 Normal termination of Gaussian 16 at Wed Oct  7 12:33:42 2020.
 Gaussian 16:  ES64L-G16RevA.03 25-Dec-2016

 ----------------------------------------------------------------------
 #P Freq BLYP/6-31G* 5D 7F Integral=UltraFineGrid SCF=(NoSymm,XQC,MaxCy
 c=120) EmpiricalDispersion=GD3BJ IOp(1/33=1) Geom=Check Guess=Read
 ----------------------------------------------------------------------

 TstMul:  Mul=     3
 TstMul:  ICh=     0
 TstMul:  Mul=     3
 Structure from the checkpoint file:  "MN_93_RKT19_BH76_BLYPDBJ_631Gs.chk"
 Charge =  0 Multiplicity = 3

                         Standard orientation:
 ---------------------------------------------------------------------
 Center     Atomic      Atomic             Coordinates (Angstroms)
 Number     Number       Type             X           Y           Z
 ---------------------------------------------------------------------
      1          6           0       -1.442028   -0.435885   -0.002000
      2          6           0       -0.442572    0.703493    0.002168
      3          7           0        1.985912   -0.374320    0.003429
      4          1           0       -1.327022   -1.072521   -0.895412
      5          1           0       -1.330097   -1.076326    0.889056
      6          1           0       -2.483992   -0.055421   -0.003058
      7          1           0       -0.408573    1.317353   -0.909474
      8          1           0       -0.411281    1.313213    0.916722
      9          1           0        0.844159    0.058485    0.005617
     10          1           0        2.523019    0.529808   -0.028464
 ---------------------------------------------------------------------

 SCF Done:  E(UB-LYP) =  -134.951742090     A.U. after    1 cycles

 The electronic state is 3-A.
 Alpha  occ. eigenvalues --  -14.04751  -9.92566  -9.91474  -0.74028  -0.67267
 Alpha  occ. eigenvalues --   -0.54413  -0.40137  -0.39118  -0.34704  -0.33094
 Alpha  occ. eigenvalues --   -0.30638  -0.28237  -0.24174  -0.16569
 Alpha virt. eigenvalues --    0.06891   0.09153   0.11649   0.12239   0.14045
 Alpha virt. eigenvalues --    0.16481   0.20805   0.24684   0.45548   0.48794
 Alpha virt. eigenvalues --    0.51232   0.54477   0.56818   0.60692   0.65855

  Beta  occ. eigenvalues --  -14.02267  -9.91705  -9.91496  -0.68632  -0.65712
  Beta  occ. eigenvalues --   -0.53211  -0.38705  -0.38182  -0.33545  -0.32556
  Beta  occ. eigenvalues --   -0.30348  -0.24536
  Beta virt. eigenvalues --   -0.12753  -0.10412   0.07688   0.09883   0.12351
  Beta virt. eigenvalues --    0.12478   0.14337   0.16937   0.21488   0.26934
  Beta virt. eigenvalues --    0.46114   0.49607   0.51751   0.57248   0.59685

 Mulliken charges and spin densities:
               1          2
     1  C   -0.384482  -0.026110
     2  C   -0.385175   0.625221
     3  N   -0.481144   1.492120
     4  H    0.144744   0.006409
     5  H    0.145000   0.006361
     6  H    0.141443   0.039561
     7  H    0.141945  -0.016548
     8  H    0.142327  -0.016389
     9  H    0.271775  -0.067672
    10  H    0.263567  -0.042954
 Sum of Mulliken charges =  -0.00000   2.00000

 Dipole moment (field-independent basis, Debye):
    X=             -0.8639    Y=              1.5466    Z=             -0.0393  Tot=              1.7719
 Quadrupole moment (field-independent basis, Debye-Ang):
   XX=            -21.5480   YY=            -21.8234   ZZ=            -20.6510
   XY=              3.7642   XZ=             -0.1047   YZ=              0.0067

  Exact polarizability:  55.819  -2.895  32.576  -0.096  -0.109  26.060
 Approx polarizability:  90.133 -12.889  51.773  -0.093  -0.223  39.120

 ******    1 imaginary frequencies (negative Signs) ******

                      1                      2                      3
                      A                      A                      A
 Frequencies --  -1182.6045                55.0155               135.1004
 Red. masses --      1.1226                 1.0797                 2.8131
 Frc consts  --      0.9250                 0.0019                 0.0303
 IR Inten    --    210.0723                61.4723                 4.4611

                      4                      5                      6
                      A                      A                      A
 Frequencies --    159.6843               451.4048               463.4448
 Red. masses --      1.1042                 1.0847                 1.9926
 Frc consts  --      0.0166                 0.1302                 0.2521
 IR Inten    --      1.5059                 4.0083                 5.3752

                      7                      8                      9
                      A                      A                      A
 Frequencies --    714.3037               817.7964               900.5570
 Red. masses --      1.4171                 1.0490                 1.1572
 Frc consts  --      0.4260                 0.4133                 0.5529
 IR Inten    --     13.7683                 7.4117                33.6455

                     10                     11                     12
                      A                      A                      A
 Frequencies --   1027.1788              1145.0279              1157.4679
 Red. masses --      3.1886                 1.1187                 1.4608
 Frc consts  --      1.9822                 0.8641                 1.1531
 IR Inten    --      0.8354                23.6875                10.9890

                     13                     14                     15
                      A                      A                      A
 Frequencies --   1212.0030              1393.2953              1447.7724
 Red. masses --      1.3135                 1.1963                 1.0813
 Frc consts  --      1.1368                 1.3683                 1.3354
 IR Inten    --      5.2444                 3.3515                21.2845

                     16                     17                     18
                      A                      A                      A
 Frequencies --   1463.3889              1478.0652              1482.7802
 Red. masses --      1.1030                 1.0372                 1.0523
 Frc consts  --      1.3918                 1.3350                 1.3632
 IR Inten    --     48.5627                 4.8196                 7.7884

                     19                     20                     21
                      A                      A                      A
 Frequencies --   2927.4275              3000.0568              3015.7078
 Red. masses --      1.0535                 1.0757                 1.0550
 Frc consts  --      5.3195                 5.7043                 5.6530
 IR Inten    --     25.1911                10.3667                32.7541

                     22                     23                     24
                      A                      A                      A
 Frequencies --   3034.3115              3089.7940              3163.1030
 Red. masses --      1.1024                 1.1115                 1.0725
 Frc consts  --      5.9800                 6.2521                 6.3224
 IR Inten    --     15.1983                38.7866                31.3670

 - Thermochemistry -
 -------------------
 Temperature   298.150 Kelvin.  Pressure   1.00000 Atm.
 Atom     1 has atomic number  6 and mass  12.00000

 Molecular mass:    45.05785 amu.
 Principal axes and moments of inertia in atomic units:
                           1         2         3
     Eigenvalues --    69.36354 367.96637 413.85882
           X            0.99926   0.03853  -0.00062
           Y           -0.03853   0.99926  -0.00061
           Z            0.00059   0.00063   1.00000
 This molecule is an asymmetric top.
 Rotational symmetry number  1.
 Rotational temperatures (Kelvin)      1.24870     0.23539     0.20928
 Rotational constants (GHZ):          26.01859     4.90464     4.36077
    1 imaginary frequencies ignored.
 Zero-point vibrational energy     201778.2 (Joules/Mol)
                                   48.22616 (Kcal/Mol)
 Warning -- explicit consideration of   5 degrees of freedom as
           vibrations may cause significant error
 Vibrational temperatures:     79.16   194.38   229.75   649.47   666.79
          (Kelvin)           1027.72  1176.63  1295.70  1477.88  1647.44
                             1665.34  1743.80  2004.64  2083.02  2105.49
                             2126.61  2133.39  4211.92  4316.41  4338.93
                             4365.70  4445.52  4551.00

 Zero-point correction=                           0.076853 (Hartree/Particle)
 Thermal correction to Energy=                    0.082676
 Thermal correction to Enthalpy=                  0.083620
 Thermal correction to Gibbs Free Energy=         0.047549
 Sum of electronic and zero-point Energies=           -134.874889
 Sum of electronic and thermal Energies=              -134.869066
 Sum of electronic and thermal Enthalpies=            -134.868122
 Sum of electronic and thermal Free Energies=         -134.904193

                     E (Thermal)             CV                S
                      KCal/Mol        Cal/Mol-Kelvin    Cal/Mol-Kelvin
 Total                   51.880             17.828             75.918
 Electronic               0.000              0.000              2.183
 Translational            0.889              2.981             37.342
 Rotational               0.889              2.981             23.872
 Vibrational             50.103             11.866             12.521
 Vibration     1          0.596              1.976              4.628
 Vibration     2          0.613              1.918              2.872
 Vibration     3          0.622              1.892              2.554
 Vibration     4          0.810              1.358              0.792
 Vibration     5          0.821              1.331              0.756

                           ! Non-Optimized Parameters !
 Normal termination of Gaussian 16 at Wed Oct  7 12:34:29 2020.
