 Gaussian 16, Revision A.03,

 ----------------------------------------------------------------------
 #P Opt(TS,MaxCyc=50,NoEigenTest,MaxStep=10,AddRedundant) BLYP/6-31G* 5
 D 7F Integral=UltraFineGrid SCF=(NoSymm,XQC,MaxCyc=120) EmpiricalDispe
 rsion=GD3BJ IOp(1/33=1)
 ----------------------------------------------------------------------

 TstMul:  Mul=     2
 TstMul:  ICh=     0
 TstMul:  Mul=     2
 Symbolic Z-matrix:
 Charge =  0 Multiplicity = 2

 SCF Done:  E(UB-LYP) =  -96.3178435489     A.U. after   13 cycles
 SCF Done:  E(UB-LYP) =  -96.3180904378     A.U. after   11 cycles
 SCF Done:  E(UB-LYP) =  -96.3190394913     A.U. after   13 cycles
 SCF Done:  E(UB-LYP) =  -96.3191883535     A.U. after   12 cycles
 SCF Done:  E(UB-LYP) =  -96.3192888656     A.U. after   12 cycles
 SCF Done:  E(UB-LYP) =  -96.3194052081     A.U. after   12 cycles
 SCF Done:  E(UB-LYP) =  -96.3191074152     A.U. after   13 cycles
 SCF Done:  E(UB-LYP) =  -96.3190629060     A.U. after   13 cycles
 SCF Done:  E(UB-LYP) =  -96.3190641790     A.U. after   10 cycles
 SCF Done:  E(UB-LYP) =  -96.3190643208     A.U. after    9 cycles
 SCF Done:  E(UB-LYP) =  -96.3190644848     A.U. after    9 cycles
 SCF Done:  E(UB-LYP) =  -96.3190645312     A.U. after    8 cycles
 Optimization completed.
    -- Stationary point found.

 1\1\GINC-NODE56\FTS\UBLYP\6-31G(d)\C1H6N1(2)\RPEVERATI\07-Oct-2020\0\\
 #P Opt(TS,MaxCyc=50,NoEigenTest,MaxStep=10,AddRedundant) BLYP/6-31G* 5
 D 7F Integral=UltraFineGrid SCF=(NoSymm,XQC,MaxCyc=120) EmpiricalDispe
 rsion=GD3BJ IOp(1/33=1)\\TS search on BH76.\\0,2\C,-1.2723477355,-0.00
 70252209,0.0066658769\N,1.3309324487,-0.0403733111,-0.1312098682\H,-1.
 5855171033,0.9573980439,-0.4133016802\H,-1.4454622077,-0.0859605799,1.
 0868402699\H,-1.6490198675,-0.8696593456,-0.5578932574\H,0.0726507314,
 -0.0492088891,-0.2209014094\H,1.4884745443,0.8500560688,0.3814245682\H

 Normal termination of Gaussian 16 at Wed Oct  7 12:32:36 2020.
 Gaussian 16:  ES64L-G16RevA.03 25-Dec-2016

 ----------------------------------------------------------------------
 #P Freq BLYP/6-31G* 5D 7F Integral=UltraFineGrid SCF=(NoSymm,XQC,MaxCy
 c=120) EmpiricalDispersion=GD3BJ IOp(1/33=1) Geom=Check Guess=Read
 ----------------------------------------------------------------------

 TstMul:  Mul=     2
 TstMul:  ICh=     0
 TstMul:  Mul=     2
 Structure from the checkpoint file:  "MN_95_RKT21_BH76_BLYPDBJ_631Gs.chk"
 Charge =  0 Multiplicity = 2

                         Standard orientation:
 ---------------------------------------------------------------------
 Center     Atomic      Atomic             Coordinates (Angstroms)
 Number     Number       Type             X           Y           Z
 ---------------------------------------------------------------------
      1          6           0       -1.274840   -0.000187    0.013981
      2          7           0        1.327711   -0.000376   -0.140674
      3          1           0       -1.594881    1.011101   -0.267855
      4          1           0       -1.441245   -0.227690    1.073946
      5          1           0       -1.650870   -0.779083   -0.661793
      6          1           0        0.068978   -0.003525   -0.224200
      7          1           0        1.484184    0.812014    0.488624
      8          1           0        1.488896   -0.809059    0.492115
 ---------------------------------------------------------------------

 SCF Done:  E(UB-LYP) =  -96.3190645312     A.U. after    1 cycles

 The electronic state is 2-A.
 Alpha  occ. eigenvalues --  -14.01579  -9.91380  -0.75733  -0.61117  -0.39743
 Alpha  occ. eigenvalues --   -0.38336  -0.35170  -0.35058  -0.23824  -0.17195
 Alpha virt. eigenvalues --    0.05692   0.10420   0.12584   0.14383   0.14724
 Alpha virt. eigenvalues --    0.25494   0.47256   0.48245   0.51794   0.65882
 Alpha virt. eigenvalues --    0.68505   0.68942   0.81783   0.82397   0.83424

  Beta  occ. eigenvalues --  -14.00563  -9.90615  -0.73432  -0.59437  -0.39065
  Beta  occ. eigenvalues --   -0.36302  -0.34516  -0.34479  -0.21904
  Beta virt. eigenvalues --   -0.11594   0.06297   0.11061   0.12954   0.14922
  Beta virt. eigenvalues --    0.15253   0.26885   0.47622   0.48952   0.55178
  Beta virt. eigenvalues --    0.67740   0.68695   0.70756   0.82311   0.83009

 Mulliken charges and spin densities:
               1          2
     1  C   -0.589758   0.556010
     2  N   -0.712346   0.560858
     3  H    0.157566  -0.012885
     4  H    0.149810  -0.016954
     5  H    0.160018  -0.011200
     6  H    0.285178  -0.047286
     7  H    0.274779  -0.014301
     8  H    0.274751  -0.014241
 Sum of Mulliken charges =   0.00000   1.00000

 Dipole moment (field-independent basis, Debye):
    X=             -0.5379    Y=              0.0034    Z=              1.6183  Tot=              1.7054
 Quadrupole moment (field-independent basis, Debye-Ang):
   XX=            -16.2786   YY=            -13.7393   ZZ=            -15.5203
   XY=              0.0061   XZ=              2.9503   YZ=              0.0082

  Exact polarizability:  43.948  -0.002  22.060   0.789   0.013  19.593
 Approx polarizability:  77.542   0.001  32.205  -1.722   0.017  28.612

 ******    1 imaginary frequencies (negative Signs) ******

                      1                      2                      3
                      A                      A                      A
 Frequencies --  -1488.3158                30.0825               378.8678
 Red. masses --      1.0715                 1.0262                 1.2576
 Frc consts  --      1.3984                 0.0005                 0.1064
 IR Inten    --    151.4033                31.4720                 8.0769

                      4                      5                      6
                      A                      A                      A
 Frequencies --    398.2652               544.6850               776.3278
 Red. masses --      1.0267                 2.2709                 1.1076
 Frc consts  --      0.0959                 0.3970                 0.3933
 IR Inten    --      2.8729                 3.7070                 6.1425

                      7                      8                      9
                      A                      A                      A
 Frequencies --    847.2133              1137.6717              1385.1062
 Red. masses --      1.2573                 1.1798                 1.1147
 Frc consts  --      0.5317                 0.8997                 1.2600
 IR Inten    --    101.9639                17.5530               130.8591

                     10                     11                     12
                      A                      A                      A
 Frequencies --   1425.6006              1434.0905              1517.2041
 Red. masses --      1.0945                 1.0560                 1.0316
 Frc consts  --      1.3105                 1.2796                 1.3990
 IR Inten    --      8.3729                10.1457                11.9798

                     13                     14                     15
                      A                      A                      A
 Frequencies --   1612.3122              3008.9342              3131.2552
 Red. masses --      1.0609                 1.0203                 1.1092
 Frc consts  --      1.6248                 5.4425                 6.4075
 IR Inten    --     16.4540                 3.1400                16.0756

                     16                     17                     18
                      A                      A                      A
 Frequencies --   3134.4157              3238.2755              3337.1869
 Red. masses --      1.1092                 1.0498                 1.0878
 Frc consts  --      6.4207                 6.4859                 7.1375
 IR Inten    --     18.2649                12.7159                 8.5006

 - Thermochemistry -
 -------------------
 Temperature   298.150 Kelvin.  Pressure   1.00000 Atm.
 Atom     1 has atomic number  6 and mass  12.00000

 Molecular mass:    32.05002 amu.
 Principal axes and moments of inertia in atomic units:
                           1         2         3
     Eigenvalues --    19.46239 208.66645 210.76280
           X            0.99968   0.00004   0.02536
           Y           -0.00004   1.00000  -0.00034
           Z           -0.02536   0.00034   0.99968
 This molecule is an asymmetric top.
 Rotational symmetry number  1.
 Rotational temperatures (Kelvin)      4.45032     0.41508     0.41095
 Rotational constants (GHZ):          92.72970     8.64893     8.56290
    1 imaginary frequencies ignored.
 Zero-point vibrational energy     163514.5 (Joules/Mol)
                                   39.08091 (Kcal/Mol)
 Warning -- explicit consideration of   4 degrees of freedom as
           vibrations may cause significant error
 Vibrational temperatures:     43.28   545.11   573.01   783.68  1116.96
          (Kelvin)           1218.95  1636.86  1992.86  2051.12  2063.34
                             2182.92  2319.76  4329.19  4505.18  4509.73
                             4659.16  4801.47

 Zero-point correction=                           0.062279 (Hartree/Particle)
 Thermal correction to Energy=                    0.067025
 Thermal correction to Enthalpy=                  0.067970
 Thermal correction to Gibbs Free Energy=         0.035664
 Sum of electronic and zero-point Energies=            -96.256785
 Sum of electronic and thermal Energies=               -96.252039
 Sum of electronic and thermal Enthalpies=             -96.251095
 Sum of electronic and thermal Free Energies=          -96.283401

                     E (Thermal)             CV                S
                      KCal/Mol        Cal/Mol-Kelvin    Cal/Mol-Kelvin
 Total                   42.059             14.025             67.993
 Electronic               0.000              0.000              1.377
 Translational            0.889              2.981             36.326
 Rotational               0.889              2.981             21.375
 Vibrational             40.282              8.064              8.914
 Vibration     1          0.594              1.984              5.824
 Vibration     2          0.749              1.515              1.044
 Vibration     3          0.765              1.474              0.969
 Vibration     4          0.900              1.151              0.555

                           ! Non-Optimized Parameters !
 Normal termination of Gaussian 16 at Wed Oct  7 12:33:28 2020.
