 Gaussian 16, Revision A.03,

 ----------------------------------------------------------------------
 #P Opt(TS,MaxCyc=50,NoEigenTest,MaxStep=10,AddRedundant) BLYP/6-31G* 5
 D 7F Integral=UltraFineGrid SCF=(NoSymm,XQC,MaxCyc=120) EmpiricalDispe
 rsion=GD3BJ IOp(1/33=1)
 ----------------------------------------------------------------------

 TstMul:  Mul=     2
 TstMul:  ICh=     0
 TstMul:  Mul=     2
 Symbolic Z-matrix:
 Charge =  0 Multiplicity = 2

 SCF Done:  E(UB-LYP) =  -399.854900660     A.U. after   13 cycles
 SCF Done:  E(UB-LYP) =  -399.854988401     A.U. after   10 cycles
 SCF Done:  E(UB-LYP) =  -399.854927159     A.U. after   10 cycles
 SCF Done:  E(UB-LYP) =  -399.854209137     A.U. after   12 cycles
 SCF Done:  E(UB-LYP) =  -399.853679633     A.U. after   12 cycles
 SCF Done:  E(UB-LYP) =  -399.853405613     A.U. after   11 cycles
 SCF Done:  E(UB-LYP) =  -399.853015975     A.U. after   12 cycles
 SCF Done:  E(UB-LYP) =  -399.852716943     A.U. after   12 cycles
 SCF Done:  E(UB-LYP) =  -399.852496656     A.U. after   12 cycles
 SCF Done:  E(UB-LYP) =  -399.852337470     A.U. after   11 cycles
 SCF Done:  E(UB-LYP) =  -399.852225754     A.U. after   11 cycles
 SCF Done:  E(UB-LYP) =  -399.852149766     A.U. after   11 cycles
 SCF Done:  E(UB-LYP) =  -399.852099228     A.U. after   11 cycles
 SCF Done:  E(UB-LYP) =  -399.852065303     A.U. after   11 cycles
 SCF Done:  E(UB-LYP) =  -399.852040597     A.U. after   11 cycles
 SCF Done:  E(UB-LYP) =  -399.852019354     A.U. after   11 cycles
 SCF Done:  E(UB-LYP) =  -399.852019400     A.U. after    8 cycles
 SCF Done:  E(UB-LYP) =  -399.852014822     A.U. after    9 cycles
 Optimization completed.
    -- Stationary point found.
 Normal termination of Gaussian 16 at Wed Oct  7 12:32:11 2020.
 Gaussian 16:  ES64L-G16RevA.03 25-Dec-2016

 ----------------------------------------------------------------------
 #P Freq BLYP/6-31G* 5D 7F Integral=UltraFineGrid SCF=(NoSymm,XQC,MaxCy
 c=120) EmpiricalDispersion=GD3BJ IOp(1/33=1) Geom=Check Guess=Read
 ----------------------------------------------------------------------

 TstMul:  Mul=     2
 TstMul:  ICh=     0
 TstMul:  Mul=     2
 Structure from the checkpoint file:  "MN_90_RKT16_BH76_BLYPDBJ_631Gs.chk"
 Charge =  0 Multiplicity = 2

                         Standard orientation:
 ---------------------------------------------------------------------
 Center     Atomic      Atomic             Coordinates (Angstroms)
 Number     Number       Type             X           Y           Z
 ---------------------------------------------------------------------
      1          1           0        1.305564   -0.137963    0.000000
      2         16           0        0.000000    0.250890    0.000000
      3          1           0       -0.441277   -1.049334    0.000000
      4          1           0       -0.864287   -2.826949    0.000000
 ---------------------------------------------------------------------

 SCF Done:  E(UB-LYP) =  -399.852014822     A.U. after    1 cycles

 The electronic state is 2-A'.
 Alpha  occ. eigenvalues --  -88.11510  -7.67739  -5.70890  -5.70551  -5.69641
 Alpha  occ. eigenvalues --   -0.67038  -0.40221  -0.32857  -0.27300  -0.21530
 Alpha virt. eigenvalues --   -0.00241   0.04294   0.29398   0.30772   0.31980
 Alpha virt. eigenvalues --    0.33616   0.65276   0.68503   0.70331   0.70968
 Alpha virt. eigenvalues --    0.71643   0.76134   0.95030   1.11567
  Beta  occ. eigenvalues --  -88.11469  -7.67700  -5.70825  -5.70479  -5.69617
  Beta  occ. eigenvalues --   -0.66828  -0.39909  -0.32184  -0.21445
  Beta virt. eigenvalues --   -0.12532   0.00144   0.05607   0.29617   0.31132
  Beta virt. eigenvalues --    0.32254   0.33622   0.65668   0.69064   0.71184
  Beta virt. eigenvalues --    0.71892   0.76268   0.89241   0.95063   1.11716

 Mulliken charges and spin densities:
               1          2
     1  H    0.112834  -0.001287
     2  S   -0.205190   0.070863
     3  H    0.074814  -0.021436
     4  H    0.017541   0.951861
 Sum of Mulliken charges =  -0.00000   1.00000

 Dipole moment (field-independent basis, Debye):
    X=              0.6185    Y=             -1.3325    Z=              0.0000  Tot=              1.4690
 Quadrupole moment (field-independent basis, Debye-Ang):
   XX=            -13.7205   YY=            -14.5042   ZZ=            -17.8783
   XY=              0.6570   XZ=              0.0000   YZ=              0.0000

  Exact polarizability:  18.090   3.461  26.181  -0.000  -0.000  11.096
 Approx polarizability:  30.798   5.024  39.513   0.000   0.000  15.462

                      1                      2                      3
                     A'                     A'                     A"
 Frequencies --     67.0030               185.4892               189.0369
 Red. masses --      1.0331                 1.0170                 1.0179
 Frc consts  --      0.0027                 0.0206                 0.0214
 IR Inten    --      1.8992                11.0045                18.4394

                      4                      5                      6
                     A'                     A'                     A'
 Frequencies --   1204.0046              2411.7008              2595.0783
 Red. masses --      1.0394                 1.0398                 1.0381
 Frc consts  --      0.8878                 3.5632                 4.1189
 IR Inten    --      3.3616                 3.4943                17.0402

 - Thermochemistry -
 -------------------
 Temperature   298.150 Kelvin.  Pressure   1.00000 Atm.
 Atom     1 has atomic number  1 and mass   1.00783

 Molecular mass:    34.99555 amu.
 Principal axes and moments of inertia in atomic units:
                           1         2         3
     Eigenvalues --     6.50255  41.38836  47.89091
           X            0.29428   0.95572   0.00000
           Y            0.95572  -0.29428   0.00000
           Z            0.00000   0.00000   1.00000
 This molecule is an asymmetric top.
 Rotational symmetry number  1.
 Rotational temperatures (Kelvin)     13.32000     2.09271     1.80857
 Rotational constants (GHZ):         277.54367    43.60504    37.68442
 Zero-point vibrational energy      39789.7 (Joules/Mol)
                                    9.50996 (Kcal/Mol)
 Warning -- explicit consideration of   3 degrees of freedom as
           vibrations may cause significant error
 Vibrational temperatures:     96.40   266.88   271.98  1732.29  3469.90
          (Kelvin)           3733.74

 Zero-point correction=                           0.015155 (Hartree/Particle)
 Thermal correction to Energy=                    0.019966
 Thermal correction to Enthalpy=                  0.020910
 Thermal correction to Gibbs Free Energy=        -0.009480
 Sum of electronic and zero-point Energies=           -399.836860
 Sum of electronic and thermal Energies=              -399.832049
 Sum of electronic and thermal Enthalpies=            -399.831105
 Sum of electronic and thermal Free Energies=         -399.861495

                     E (Thermal)             CV                S
                      KCal/Mol        Cal/Mol-Kelvin    Cal/Mol-Kelvin
 Total                   12.529             11.852             63.962
 Electronic               0.000              0.000              1.377
 Translational            0.889              2.981             36.588
 Rotational               0.889              2.981             17.206
 Vibrational             10.751              5.890              8.790
 Vibration     1          0.598              1.970              4.240
 Vibration     2          0.632              1.860              2.272
 Vibration     3          0.633              1.855              2.237

                           ! Non-Optimized Parameters !
 Normal termination of Gaussian 16 at Wed Oct  7 12:32:48 2020.
