 Gaussian 16, Revision A.03,
 Gaussian 16:  ES64L-G16RevA.03 25-Dec-2016

 ----------------------------------------------------------------------
 #P Opt(MaxCyc=100) B3LYP/6-31G* 5D 7F Integral=UltraFineGrid SCF=(NoSy
 mm,XQC,MaxCyc=120) IOp(1/33=1)
 ----------------------------------------------------------------------

 TstMul:  Mul=     1
 TstMul:  ICh=     0
 TstMul:  Mul=     1
 Symbolic Z-matrix:
 Charge =  0 Multiplicity = 1

 SCF Done:  E(RB3LYP) =  -79.8288639119     A.U. after    9 cycles
 SCF Done:  E(RB3LYP) =  -79.8290157218     A.U. after    7 cycles
 SCF Done:  E(RB3LYP) =  -79.8290163689     A.U. after    6 cycles
 Optimization completed.
    -- Stationary point found.

                         Standard orientation:
 ---------------------------------------------------------------------
 Center     Atomic      Atomic             Coordinates (Angstroms)
 Number     Number       Type             X           Y           Z
 ---------------------------------------------------------------------
      1          6           0       -0.765463   -0.000000   -0.000000
      2          6           0        0.765463    0.000000    0.000000
      3          1           0        1.164295   -0.544394   -0.863886
      4          1           0       -1.164298   -1.020360    0.039069
      5          1           0        1.164295   -0.475952    0.903401
      6          1           0        1.164298    1.020343   -0.039515
      7          1           0       -1.164295    0.544016    0.864124
      8          1           0       -1.164295    0.476347   -0.903192
 ---------------------------------------------------------------------

 The electronic state is 1-A.
 Alpha  occ. eigenvalues --  -10.16448 -10.16434  -0.74730  -0.61191  -0.43010
 Alpha  occ. eigenvalues --   -0.43010  -0.36269  -0.34014  -0.34014
 Alpha virt. eigenvalues --    0.10492   0.15635   0.16372   0.16372   0.19019
 Alpha virt. eigenvalues --    0.19019   0.24239   0.51369   0.54382   0.54382
 Alpha virt. eigenvalues --    0.63694   0.63694   0.66869   0.88319   0.88319

 Mulliken charges:
               1
     1  C   -0.431837
     2  C   -0.431837
     3  H    0.143946
     4  H    0.143946
     5  H    0.143946
     6  H    0.143946
     7  H    0.143946
     8  H    0.143946
 Sum of Mulliken charges =  -0.00000

 Dipole moment (field-independent basis, Debye):
    X=             -0.0000    Y=              0.0000    Z=              0.0000  Tot=              0.0000
 Quadrupole moment (field-independent basis, Debye-Ang):
   XX=            -15.2375   YY=            -14.7142   ZZ=            -14.7142
   XY=              0.0000   XZ=              0.0000   YZ=             -0.0000

 Normal termination of Gaussian 16 at Tue Oct  6 15:58:46 2020.
