 Gaussian 16, Revision A.03,
 Gaussian 16:  ES64L-G16RevA.03 25-Dec-2016

 ----------------------------------------------------------------------
 #P Opt(MaxCyc=100) B3LYP/6-31G* 5D 7F Integral=UltraFineGrid SCF=(NoSy
 mm,XQC,MaxCyc=120) IOp(1/33=1)
 ----------------------------------------------------------------------

 TstMul:  Mul=     2
 TstMul:  ICh=     0
 TstMul:  Mul=     2
 Symbolic Z-matrix:
 Charge =  0 Multiplicity = 2

 SCF Done:  E(UB3LYP) =  -79.1562371639     A.U. after   13 cycles
 SCF Done:  E(UB3LYP) =  -79.1563833423     A.U. after    9 cycles
 SCF Done:  E(UB3LYP) =  -79.1563861181     A.U. after    8 cycles
 Optimization completed.
    -- Stationary point found.

                         Standard orientation:
 ---------------------------------------------------------------------
 Center     Atomic      Atomic             Coordinates (Angstroms)
 Number     Number       Type             X           Y           Z
 ---------------------------------------------------------------------
      1          6           0        0.795521   -0.000001   -0.022891
      2          6           0       -0.694701    0.000174   -0.000742
      3          1           0       -1.108894    0.893723   -0.483857
      4          1           0        1.353725   -0.928123    0.050448
      5          1           0       -1.095000   -0.012339    1.029287
      6          1           0       -1.109362   -0.881821   -0.504671
      7          1           0        1.354610    0.927522    0.050594
 ---------------------------------------------------------------------

 The electronic state is 2-A.
 Alpha  occ. eigenvalues --  -10.17874 -10.17225  -0.75069  -0.60481  -0.44619
 Alpha  occ. eigenvalues --   -0.40935  -0.38643  -0.35449  -0.19610
 Alpha virt. eigenvalues --    0.11568   0.13962   0.14855   0.17748   0.21996
 Alpha virt. eigenvalues --    0.26102   0.51389   0.53932   0.55221   0.61587
 Alpha virt. eigenvalues --    0.61652   0.74330   0.79631   0.86795   0.87583

  Beta  occ. eigenvalues --  -10.17318 -10.16464  -0.73388  -0.58057  -0.43982
  Beta  occ. eigenvalues --   -0.39465  -0.37830  -0.35019
  Beta virt. eigenvalues --   -0.03357   0.11938   0.15049   0.15302   0.18411
  Beta virt. eigenvalues --    0.22432   0.26952   0.51858   0.54130   0.59715
  Beta virt. eigenvalues --    0.63246   0.64972   0.74936   0.81366   0.87441

 Mulliken charges and spin densities:
               1          2
     1  C   -0.296883   1.091045
     2  C   -0.450965  -0.082593
     3  H    0.153686   0.014559
     4  H    0.142328  -0.051198
     5  H    0.155544   0.063720
     6  H    0.153808   0.015702
     7  H    0.142481  -0.051235
 Sum of Mulliken charges =   0.00000   1.00000

 Dipole moment (field-independent basis, Debye):
    X=             -0.2141    Y=             -0.0004    Z=              0.1332  Tot=              0.2522
 Quadrupole moment (field-independent basis, Debye-Ang):
   XX=            -13.9733   YY=            -13.4255   ZZ=            -14.9086
   XY=              0.0012   XZ=              0.1626   YZ=              0.0002

 1\1\GINC-NODE60\FOpt\UB3LYP\6-31G(d)\C2H5(2)\RPEVERATI\06-Oct-2020\0\\
 #P Opt(MaxCyc=100) B3LYP/6-31G* 5D 7F Integral=UltraFineGrid SCF=(NoSy
 mm,XQC,MaxCyc=120) IOp(1/33=1)\\TS search on BH76.\\0,2\C,0.7966233908
 ,0.0000321232,-0.0241256716\C,-0.6935815444,0.0001775705,-0.0008099527
 \H,-1.1081614901,0.8940411261,-0.4830094884\H,1.3548933792,-0.92813263
 25,0.0481620592\H,-1.093073311,-0.0130208359,1.0295240867\H,-1.1086276
 789,-0.8814891322,-0.5049968584\H,1.355760118,0.9275123901,0.049534727
 \\Version=ES64L-G16RevA.03\State=2-A\HF=-79.1563861\S2=0.753919\S2-1=0

 Normal termination of Gaussian 16 at Tue Oct  6 15:58:39 2020.
