 Gaussian 16, Revision A.03,
 Gaussian 16:  ES64L-G16RevA.03 25-Dec-2016

 ----------------------------------------------------------------------
 #P Opt(MaxCyc=100) B3LYP/6-31G* 5D 7F Integral=UltraFineGrid SCF=(NoSy
 mm,XQC,MaxCyc=120) IOp(1/33=1)
 ----------------------------------------------------------------------

 TstMul:  Mul=     1
 TstMul:  ICh=     0
 TstMul:  Mul=     1
 Symbolic Z-matrix:
 Charge =  0 Multiplicity = 1

 SCF Done:  E(RB3LYP) =  -500.104166105     A.U. after   11 cycles
 SCF Done:  E(RB3LYP) =  -500.104396313     A.U. after    9 cycles
 SCF Done:  E(RB3LYP) =  -500.104405926     A.U. after    7 cycles
 SCF Done:  E(RB3LYP) =  -500.104407903     A.U. after    7 cycles
 Optimization completed.
    -- Stationary point found.

                         Standard orientation:
 ---------------------------------------------------------------------
 Center     Atomic      Atomic             Coordinates (Angstroms)
 Number     Number       Type             X           Y           Z
 ---------------------------------------------------------------------
      1          6           0        0.000000    0.000000   -1.138960
      2         17           0        0.000000    0.000000    0.664063
      3          1           0        0.000000    1.033857   -1.485104
      4          1           0        0.895346   -0.516928   -1.485104
      5          1           0       -0.895346   -0.516928   -1.485104
 ---------------------------------------------------------------------

 The electronic state is 1-A1.
 Alpha  occ. eigenvalues -- -101.51510 -10.23741  -9.44743  -7.21084  -7.20057
 Alpha  occ. eigenvalues --   -7.20057  -0.84853  -0.68027  -0.45242  -0.45242
 Alpha  occ. eigenvalues --   -0.41214  -0.29644  -0.29644
 Alpha virt. eigenvalues --    0.02613   0.10660   0.14269   0.14269   0.40872
 Alpha virt. eigenvalues --    0.44588   0.46108   0.46108   0.52660   0.52660
 Alpha virt. eigenvalues --    0.55593   0.83718   0.83718   0.87668   0.89630

 Mulliken charges:
               1
     1  C   -0.517643
     2  Cl  -0.089314
     3  H    0.202319
     4  H    0.202319
     5  H    0.202319
 Sum of Mulliken charges =  -0.00000

 Dipole moment (field-independent basis, Debye):
    X=             -0.0000    Y=             -0.0000    Z=             -2.0810  Tot=              2.0810
 Quadrupole moment (field-independent basis, Debye-Ang):
   XX=            -19.7532   YY=            -19.7532   ZZ=            -17.9505
   XY=             -0.0000   XZ=             -0.0000   YZ=              0.0000

 1\1\GINC-NODE60\FOpt\RB3LYP\6-31G(d)\C1H3Cl1\RPEVERATI\06-Oct-2020\0\\
 #P Opt(MaxCyc=100) B3LYP/6-31G* 5D 7F Integral=UltraFineGrid SCF=(NoSy
 mm,XQC,MaxCyc=120) IOp(1/33=1)\\TS search on BH76.\\0,1\C,0.,0.,-0.152
 9074877\Cl,0.,0.,1.6501162255\H,-0.5169284955,-0.895346418,-0.49905133
 12\H,-0.5169284955,0.895346418,-0.4990513312\H,1.0338569909,0.,-0.4990
 513312\\Version=ES64L-G16RevA.03\State=1-A1\HF=-500.1044079\RMSD=6.508
 e-09\RMSF=1.018e-05\Dipole=0.,0.,-0.8187099\Quadrupole=-0.4467545,-0.4
 467545,0.893509,0.,0.,0.\PG=C03V [C3(C1Cl1),3SGV(H1)]\\@

 Normal termination of Gaussian 16 at Tue Oct  6 15:59:24 2020.
