 Gaussian 16, Revision A.03,
 Gaussian 16:  ES64L-G16RevA.03 25-Dec-2016

 ----------------------------------------------------------------------
 #P Opt(MaxCyc=100) B3LYP/6-31G* 5D 7F Integral=UltraFineGrid SCF=(NoSy
 mm,XQC,MaxCyc=120) IOp(1/33=1)
 ----------------------------------------------------------------------

 TstMul:  Mul=     2
 TstMul:  ICh=     0
 TstMul:  Mul=     2
 Symbolic Z-matrix:
 Charge =  0 Multiplicity = 2

 SCF Done:  E(UB3LYP) =  -79.1562212565     A.U. after   13 cycles
 SCF Done:  E(UB3LYP) =  -79.1563819530     A.U. after    9 cycles
 SCF Done:  E(UB3LYP) =  -79.1563861734     A.U. after    9 cycles
 Optimization completed.
    -- Stationary point found.

                         Standard orientation:
 ---------------------------------------------------------------------
 Center     Atomic      Atomic             Coordinates (Angstroms)
 Number     Number       Type             X           Y           Z
 ---------------------------------------------------------------------
      1          6           0       -0.011076   -0.694656   -0.000000
      2          6           0       -0.011076    0.795831    0.000000
      3          1           0        1.013012   -1.110153   -0.000000
      4          1           0       -0.510774   -1.101638    0.887871
      5          1           0       -0.510774   -1.101638   -0.887871
      6          1           0        0.070724    1.353190   -0.927917
      7          1           0        0.070724    1.353190    0.927917
 ---------------------------------------------------------------------

 The electronic state is 2-A'.
 Alpha  occ. eigenvalues --  -10.17875 -10.17226  -0.75067  -0.60480  -0.44619
 Alpha  occ. eigenvalues --   -0.40935  -0.38639  -0.35450  -0.19611
 Alpha virt. eigenvalues --    0.11566   0.13962   0.14854   0.17748   0.21994
 Alpha virt. eigenvalues --    0.26096   0.51391   0.53934   0.55221   0.61587
 Alpha virt. eigenvalues --    0.61648   0.74328   0.79625   0.86796   0.87584

  Beta  occ. eigenvalues --  -10.17319 -10.16465  -0.73386  -0.58056  -0.43982
  Beta  occ. eigenvalues --   -0.39465  -0.37826  -0.35021
  Beta virt. eigenvalues --   -0.03357   0.11937   0.15053   0.15298   0.18410
  Beta virt. eigenvalues --    0.22430   0.26947   0.51859   0.54132   0.59715
  Beta virt. eigenvalues --    0.63241   0.64972   0.74934   0.81360   0.87441

 Mulliken charges and spin densities:
               1          2
     1  C   -0.450954  -0.082583
     2  C   -0.296879   1.091069
     3  H    0.155541   0.063707
     4  H    0.153739   0.015120
     5  H    0.153739   0.015120
     6  H    0.142406  -0.051217
     7  H    0.142406  -0.051217
 Sum of Mulliken charges =   0.00000   1.00000

 Dipole moment (field-independent basis, Debye):
    X=              0.1302    Y=             -0.2160    Z=              0.0000  Tot=              0.2522
 Quadrupole moment (field-independent basis, Debye-Ang):
   XX=            -14.9035   YY=            -13.9793   ZZ=            -13.4251
   XY=              0.1766   XZ=              0.0000   YZ=              0.0000

 1\1\GINC-NODE61\FOpt\UB3LYP\6-31G(d)\C2H5(2)\RPEVERATI\06-Oct-2020\0\\
 #P Opt(MaxCyc=100) B3LYP/6-31G* 5D 7F Integral=UltraFineGrid SCF=(NoSy
 mm,XQC,MaxCyc=120) IOp(1/33=1)\\TS search on BH76.\\0,2\C,-0.010993706
 7,-0.6933695091,0.\C,-0.0129049758,0.7971155975,0.\H,1.0136258297,-1.1
 075530012,0.\H,-0.5101693609,-1.1009922884,0.8878713464\H,-0.510169360
 9,-1.1009922884,-0.8878713464\H,0.0681806978,1.3545793386,-0.927916824
 5\H,0.0681806978,1.3545793386,0.9279168245\\Version=ES64L-G16RevA.03\S
 tate=2-A'\HF=-79.1563862\S2=0.753919\S2-1=0.\S2A=0.75001\RMSD=4.555e-0

 Normal termination of Gaussian 16 at Tue Oct  6 15:58:45 2020.
