 Gaussian 16, Revision A.03,
 Gaussian 16:  ES64L-G16RevA.03 25-Dec-2016

 ----------------------------------------------------------------------
 #P Opt(MaxCyc=100) B3LYP/6-31G* 5D 7F Integral=UltraFineGrid SCF=(NoSy
 mm,XQC,MaxCyc=120) IOp(1/33=1)
 ----------------------------------------------------------------------

 TstMul:  Mul=     2
 TstMul:  ICh=     0
 TstMul:  Mul=     2
 Symbolic Z-matrix:
 Charge =  0 Multiplicity = 2

 SCF Done:  E(UB3LYP) =  -118.468731335     A.U. after   14 cycles
 SCF Done:  E(UB3LYP) =  -118.468953664     A.U. after   10 cycles
 SCF Done:  E(UB3LYP) =  -118.468957757     A.U. after    8 cycles
 Optimization completed.
    -- Stationary point found.

                         Standard orientation:
 ---------------------------------------------------------------------
 Center     Atomic      Atomic             Coordinates (Angstroms)
 Number     Number       Type             X           Y           Z
 ---------------------------------------------------------------------
      1          6           0        1.217335   -0.286164    0.000059
      2          6           0       -0.069703    0.573832   -0.000057
      3          6           0       -1.323300   -0.238336   -0.000013
      4          1           0        1.258042   -0.930838    0.885304
      5          1           0        1.258067   -0.931036   -0.885041
      6          1           0        2.111521    0.349432   -0.000002
      7          1           0       -0.049003    1.230466   -0.880869
      8          1           0       -0.049059    1.230653    0.880611
      9          1           0       -1.737968   -0.622022    0.927787
     10          1           0       -1.737599   -0.622649   -0.927721
 ---------------------------------------------------------------------

 The electronic state is 2-A.
 Alpha  occ. eigenvalues --  -10.17757 -10.17723 -10.16762  -0.77728  -0.67119
 Alpha  occ. eigenvalues --   -0.57830  -0.46082  -0.42612  -0.39204  -0.37638
 Alpha  occ. eigenvalues --   -0.34796  -0.33194  -0.19709
 Alpha virt. eigenvalues --    0.10518   0.14041   0.14353   0.15834   0.17837
 Alpha virt. eigenvalues --    0.18000   0.22200   0.23229   0.27595   0.51884
 Alpha virt. eigenvalues --    0.53849   0.53849   0.55636   0.59334   0.60982

  Beta  occ. eigenvalues --  -10.17842 -10.16606 -10.16325  -0.76697  -0.65260
  Beta  occ. eigenvalues --   -0.56456  -0.45652  -0.42058  -0.38710  -0.36470
  Beta  occ. eigenvalues --   -0.34267  -0.32987
  Beta virt. eigenvalues --   -0.03749   0.10903   0.14537   0.15250   0.16048
  Beta virt. eigenvalues --    0.18103   0.18239   0.22613   0.23722   0.28456
  Beta virt. eigenvalues --    0.52406   0.53992   0.55925   0.57247   0.61253

 Mulliken charges and spin densities:
               1          2
     1  C   -0.431068   0.049943
     2  C   -0.257811  -0.074882
     3  C   -0.300957   1.087880
     4  H    0.144640  -0.000707
     5  H    0.144638  -0.000709
     6  H    0.140763   0.013570
     7  H    0.139932   0.013163
     8  H    0.139928   0.013137
     9  H    0.139970  -0.050698
    10  H    0.139965  -0.050697
 Sum of Mulliken charges =  -0.00000   1.00000

 Dipole moment (field-independent basis, Debye):
    X=              0.2291    Y=             -0.0125    Z=              0.0001  Tot=              0.2294
 Quadrupole moment (field-independent basis, Debye-Ang):
   XX=            -21.5509   YY=            -21.0969   ZZ=            -19.9113
   XY=              0.7241   XZ=             -0.0004   YZ=              0.0004

 1\1\GINC-NODE21\FOpt\UB3LYP\6-31G(d)\C3H7(2)\RPEVERATI\06-Oct-2020\0\\
 #P Opt(MaxCyc=100) B3LYP/6-31G* 5D 7F Integral=UltraFineGrid SCF=(NoSy
 mm,XQC,MaxCyc=120) IOp(1/33=1)\\TS search on BH76.\\0,2\C,1.2146782711
 ,-0.2891173613,0.0000589767\C,-0.0701420248,0.574188798,-0.0000573281\
 C,-1.3258252599,-0.23474978,-0.0000132007\H,1.2537251179,-0.9338937142
 ,0.8853038791\H,1.2537493858,-0.9340926499,-0.885040595\H,2.1104973568
 ,0.3441743825,-0.0000019731\H,-0.0477517868,1.230767096,-0.8808689003\
 H,-0.0478075325,1.2309545948,0.8806106613\H,-1.7414798754,-0.617367541

 Normal termination of Gaussian 16 at Tue Oct  6 15:58:55 2020.
