 Gaussian 16, Revision A.03,

 ----------------------------------------------------------------------
 #P Opt(TS,MaxCyc=50,NoEigenTest,MaxStep=10,CalcFC) B3LYP/6-31G* 5D 7F
 Integral=UltraFineGrid SCF=(NoSymm,XQC,MaxCyc=120) IOp(1/33=1)
 ----------------------------------------------------------------------

 TstMul:  Mul=     2
 TstMul:  ICh=     0
 TstMul:  Mul=     2
 Symbolic Z-matrix:
 Charge =  0 Multiplicity = 2

 SCF Done:  E(UB3LYP) =  -118.416867523     A.U. after   17 cycles
 SCF Done:  E(UB3LYP) =  -118.416591318     A.U. after   14 cycles
 SCF Done:  E(UB3LYP) =  -118.416494976     A.U. after   15 cycles
 SCF Done:  E(UB3LYP) =  -118.416490697     A.U. after   11 cycles
 Optimization completed.
    -- Stationary point found.
 Normal termination of Gaussian 16 at Tue Oct  6 16:29:03 2020.
 Gaussian 16:  ES64L-G16RevA.03 25-Dec-2016

 ----------------------------------------------------------------------
 #P Freq B3LYP/6-31G* 5D 7F Integral=UltraFineGrid SCF=(NoSymm,XQC,MaxC
 yc=120) IOp(1/33=1) Geom=Check Guess=Read
 ----------------------------------------------------------------------

 TstMul:  Mul=     2
 TstMul:  ICh=     0
 TstMul:  Mul=     2
 Structure from the checkpoint file:  "MN_17_c3h7ts_BH76_B3LYP_631Gs.chk"
 Charge =  0 Multiplicity = 2

                         Standard orientation:
 ---------------------------------------------------------------------
 Center     Atomic      Atomic             Coordinates (Angstroms)
 Number     Number       Type             X           Y           Z
 ---------------------------------------------------------------------
      1          6           0       -0.515135    0.642201   -0.000001
      2          6           0       -1.417142   -0.370063    0.000000
      3          1           0       -0.257130    1.158314   -0.920212
      4          1           0       -0.257134    1.158319    0.920209
      5          1           0       -1.771334   -0.818748    0.924391
      6          1           0       -1.771329   -0.818753   -0.924390
      7          6           0        1.681169   -0.234439    0.000001
      8          1           0        2.239841    0.696881   -0.000153
      9          1           0        1.661818   -0.801229   -0.924379
     10          1           0        1.661913   -0.800981    0.924535
 ---------------------------------------------------------------------

 SCF Done:  E(UB3LYP) =  -118.416490697     A.U. after    1 cycles

 The electronic state is 2-A.
 Alpha  occ. eigenvalues --  -10.18045 -10.17585 -10.17234  -0.75266  -0.67240
 Alpha  occ. eigenvalues --   -0.57593  -0.46134  -0.41621  -0.40300  -0.39884
 Alpha  occ. eigenvalues --   -0.35087  -0.29146  -0.18351
 Alpha virt. eigenvalues --    0.03742   0.10286   0.13963   0.14397   0.16918
 Alpha virt. eigenvalues --    0.18436   0.18483   0.24355   0.32982   0.46281
 Alpha virt. eigenvalues --    0.53159   0.53876   0.55877   0.60323   0.60386

  Beta  occ. eigenvalues --  -10.18310 -10.16654 -10.16318  -0.74676  -0.64123
  Beta  occ. eigenvalues --   -0.57055  -0.45945  -0.41185  -0.39469  -0.39193
  Beta  occ. eigenvalues --   -0.34928  -0.26425
  Beta virt. eigenvalues --   -0.04949   0.05869   0.10884   0.14455   0.14695
  Beta virt. eigenvalues --    0.17185   0.19068   0.19129   0.24457   0.33209
  Beta virt. eigenvalues --    0.46832   0.53544   0.55736   0.57986   0.60699

 Mulliken charges and spin densities:
               1          2
     1  C   -0.262940  -0.222732
     2  C   -0.291220   0.439887
     3  H    0.149748   0.012701
     4  H    0.149748   0.012701
     5  H    0.137310  -0.021167
     6  H    0.137310  -0.021167
     7  C   -0.483869   0.903652
     8  H    0.150631  -0.032483
     9  H    0.156641  -0.035696
    10  H    0.156640  -0.035696
 Sum of Mulliken charges =   0.00000   1.00000

 Dipole moment (field-independent basis, Debye):
    X=              0.1742    Y=              0.0824    Z=              0.0000  Tot=              0.1927
 Quadrupole moment (field-independent basis, Debye-Ang):
   XX=            -21.9355   YY=            -20.3918   ZZ=            -19.3226
   XY=              1.3635   XZ=             -0.0000   YZ=              0.0000

  Exact polarizability:  51.870   6.994  31.588  -0.000  -0.000  30.889
 Approx polarizability:  71.011  13.385  43.353  -0.000   0.000  39.733

 ******    1 imaginary frequencies (negative Signs) ******

                      1                      2                      3
                      A                      A                      A
 Frequencies --   -375.3992                91.8504               216.6624
 Red. masses --      9.7626                 1.0899                 2.4915
 Frc consts  --      0.8106                 0.0054                 0.0689
 IR Inten    --      0.4411                 0.0106                 0.7017

                      4                      5                      6
                      A                      A                      A
 Frequencies --    348.5319               476.4430               496.7211
 Red. masses --      1.0600                 1.1176                 1.0998
 Frc consts  --      0.0759                 0.1495                 0.1599
 IR Inten    --      0.3105                 1.8142                 1.1401

                      7                      8                      9
                      A                      A                      A
 Frequencies --    781.7428               826.5284               866.9923
 Red. masses --      1.0712                 1.0435                 1.3882
 Frc consts  --      0.3857                 0.4200                 0.6148
 IR Inten    --      4.0505                 0.6945                36.6723

                     10                     11                     12
                      A                      A                      A
 Frequencies --    945.4057              1027.5960              1248.1526
 Red. masses --      1.1792                 1.0220                 1.4886
 Frc consts  --      0.6210                 0.6358                 1.3664
 IR Inten    --     37.8328                 0.0964                 0.0425

                     13                     14                     15
                      A                      A                      A
 Frequencies --   1326.2076              1446.4278              1451.9262
 Red. masses --      1.6041                 1.0944                 1.0937
 Frc consts  --      1.6623                 1.3490                 1.3584
 IR Inten    --      0.7450                 1.7604                 1.5354

                     16                     17                     18
                      A                      A                      A
 Frequencies --   1490.5333              1617.1696              3123.5862
 Red. masses --      1.1131                 1.9096                 1.0126
 Frc consts  --      1.4571                 2.9424                 5.8208
 IR Inten    --      3.9927                 0.1792                 0.2714

                     19                     20                     21
                      A                      A                      A
 Frequencies --   3158.7961              3168.5542              3231.0249
 Red. masses --      1.0487                 1.0643                 1.1155
 Frc consts  --      6.1654                 6.2955                 6.8609
 IR Inten    --     14.9578                 1.3200                 0.7195

                     22                     23                     24
                      A                      A                      A
 Frequencies --   3256.5451              3277.5864              3288.8878
 Red. masses --      1.1180                 1.1155                 1.1159
 Frc consts  --      6.9856                 7.0606                 7.1115
 IR Inten    --     25.4900                11.6370                12.7906

 - Thermochemistry -
 -------------------
 Temperature   298.150 Kelvin.  Pressure   1.00000 Atm.
 Atom     1 has atomic number  6 and mass  12.00000

 Molecular mass:    43.05478 amu.
 Principal axes and moments of inertia in atomic units:
                           1         2         3
     Eigenvalues --    65.06346 297.83351 326.10206
           X            0.99983   0.01820  -0.00000
           Y           -0.01820   0.99983   0.00000
           Z            0.00000  -0.00000   1.00000
 This molecule is an asymmetric top.
 Rotational symmetry number  1.
 Rotational temperatures (Kelvin)      1.33122     0.29081     0.26560
 Rotational constants (GHZ):          27.73817     6.05956     5.53428
    1 imaginary frequencies ignored.
 Zero-point vibrational energy     222289.3 (Joules/Mol)
                                   53.12842 (Kcal/Mol)
 Warning -- explicit consideration of   5 degrees of freedom as
           vibrations may cause significant error
 Vibrational temperatures:    132.15   311.73   501.46   685.50   714.67
          (Kelvin)           1124.75  1189.19  1247.41  1360.23  1478.48
                             1795.81  1908.12  2081.09  2089.00  2144.55
                             2326.75  4494.14  4544.80  4558.84  4648.72
                             4685.44  4715.72  4731.98

 Zero-point correction=                           0.084666 (Hartree/Particle)
 Thermal correction to Energy=                    0.089954
 Thermal correction to Enthalpy=                  0.090898
 Thermal correction to Gibbs Free Energy=         0.057170
 Sum of electronic and zero-point Energies=           -118.331825
 Sum of electronic and thermal Energies=              -118.326537
 Sum of electronic and thermal Enthalpies=            -118.325593
 Sum of electronic and thermal Free Energies=         -118.359321

                     E (Thermal)             CV                S
                      KCal/Mol        Cal/Mol-Kelvin    Cal/Mol-Kelvin
 Total                   56.447             17.112             70.987
 Electronic               0.000              0.000              1.377
 Translational            0.889              2.981             37.206
 Rotational               0.889              2.981             23.362
 Vibrational             54.669             11.151              9.042
 Vibration     1          0.602              1.955              3.620
 Vibration     2          0.645              1.816              1.987
 Vibration     3          0.726              1.578              1.173
 Vibration     4          0.833              1.302              0.720
 Vibration     5          0.852              1.257              0.666

 Optimization completed.
    -- Stationary point found.

 1\1\GINC-NODE52\Freq\UB3LYP\6-31G(d)\C3H7(2)\RPEVERATI\06-Oct-2020\0\\
 #P Freq B3LYP/6-31G* 5D 7F Integral=UltraFineGrid SCF=(NoSymm,XQC,MaxC
 yc=120) IOp(1/33=1) Geom=Check Guess=Read\\TS search on BH76.\\0,2\C,-
 0.5134357564,0.6467763,-0.0002177033\C,-1.4243822072,-0.3574488981,0.0
 001518017\H,-0.2508810661,1.1602589484,-0.9206139146\H,-0.2508515004,1
 .1609093651,0.919806915\H,-1.7825223014,-0.8026518203,0.924705398\H,-1
 .7825514424,-0.8033053271,-0.9240755599\C,1.6750094468,-0.2493030407,0
 .0000572118\H,2.2419170756,0.6770260049,-0.0004317434\H,1.650615888,-0

 Normal termination of Gaussian 16 at Tue Oct  6 16:29:48 2020.
