 Gaussian 16, Revision A.03,

 ----------------------------------------------------------------------
 #P Opt(TS,MaxCyc=50,NoEigenTest,MaxStep=10,CalcFC) B3LYP/6-31G* 5D 7F
 Integral=UltraFineGrid SCF=(NoSymm,XQC,MaxCyc=120) IOp(1/33=1)
 ----------------------------------------------------------------------

 TstMul:  Mul=     2
 TstMul:  ICh=     0
 TstMul:  Mul=     2
 Symbolic Z-matrix:
 Charge =  0 Multiplicity = 2

 SCF Done:  E(UB3LYP) =  -79.0874696286     A.U. after   17 cycles
 SCF Done:  E(UB3LYP) =  -79.0870837393     A.U. after   15 cycles
 SCF Done:  E(UB3LYP) =  -79.0868094498     A.U. after   15 cycles
 SCF Done:  E(UB3LYP) =  -79.0866257452     A.U. after   14 cycles
 SCF Done:  E(UB3LYP) =  -79.0865140532     A.U. after   15 cycles
 SCF Done:  E(UB3LYP) =  -79.0864543052     A.U. after   14 cycles
 SCF Done:  E(UB3LYP) =  -79.0864296957     A.U. after   13 cycles
 SCF Done:  E(UB3LYP) =  -79.0864253154     A.U. after   14 cycles
 SCF Done:  E(UB3LYP) =  -79.0864248001     A.U. after   10 cycles
 SCF Done:  E(UB3LYP) =  -79.0864247831     A.U. after    9 cycles
 Optimization completed.
    -- Stationary point found.
 Normal termination of Gaussian 16 at Tue Oct  6 16:29:36 2020.
 Gaussian 16:  ES64L-G16RevA.03 25-Dec-2016

 ----------------------------------------------------------------------
 #P Freq B3LYP/6-31G* 5D 7F Integral=UltraFineGrid SCF=(NoSymm,XQC,MaxC
 yc=120) IOp(1/33=1) Geom=Check Guess=Read
 ----------------------------------------------------------------------

 TstMul:  Mul=     2
 TstMul:  ICh=     0
 TstMul:  Mul=     2
 Structure from the checkpoint file:  "MN_13_c2h5ts_BH76_B3LYP_631Gs.chk"
 Charge =  0 Multiplicity = 2

                         Standard orientation:
 ---------------------------------------------------------------------
 Center     Atomic      Atomic             Coordinates (Angstroms)
 Number     Number       Type             X           Y           Z
 ---------------------------------------------------------------------
      1          6           0       -0.536361    0.290150    0.000002
      2          6           0        0.748485   -0.079614   -0.000001
      3          1           0       -1.710083   -1.729284   -0.000016
      4          1           0       -1.078049    0.477992    0.923364
      5          1           0       -1.078047    0.478012   -0.923356
      6          1           0        1.296721   -0.244959   -0.924115
      7          1           0        1.296719   -0.244979    0.924111
 ---------------------------------------------------------------------

 SCF Done:  E(UB3LYP) =  -79.0864247831     A.U. after    1 cycles

 The electronic state is 2-A.
 Alpha  occ. eigenvalues --  -10.18550 -10.18465  -0.76174  -0.58451  -0.47021
 Alpha  occ. eigenvalues --   -0.42262  -0.35938  -0.31568  -0.24595
 Alpha virt. eigenvalues --    0.01584   0.11879   0.13696   0.15391   0.24025
 Alpha virt. eigenvalues --    0.32589   0.47616   0.55625   0.56239   0.62110
 Alpha virt. eigenvalues --    0.67133   0.70153   0.83109   0.84457   0.86626

  Beta  occ. eigenvalues --  -10.18601 -10.18250  -0.75906  -0.58257  -0.46945
  Beta  occ. eigenvalues --   -0.42115  -0.35882  -0.27505
  Beta virt. eigenvalues --   -0.07072   0.02724   0.11949   0.13700   0.15470
  Beta virt. eigenvalues --    0.24024   0.32618   0.47625   0.56241   0.56497
  Beta virt. eigenvalues --    0.63092   0.67975   0.71716   0.84471   0.86678

 Mulliken charges and spin densities:
               1          2
     1  C   -0.286011  -0.098695
     2  C   -0.273451   0.170828
     3  H   -0.038992   0.934154
     4  H    0.152495   0.004894
     5  H    0.152495   0.004894
     6  H    0.146732  -0.008038
     7  H    0.146732  -0.008038
 Sum of Mulliken charges =   0.00000   1.00000

 Dipole moment (field-independent basis, Debye):
    X=              0.3144    Y=              0.3803    Z=              0.0000  Tot=              0.4934
 Quadrupole moment (field-independent basis, Debye-Ang):
   XX=            -13.9822   YY=            -16.5490   ZZ=            -13.3213
   XY=             -1.4700   XZ=             -0.0000   YZ=             -0.0000

  Exact polarizability:  35.814   1.662  18.658   0.000  -0.000  20.302
 Approx polarizability:  51.564  -1.356  21.440  -0.000  -0.000  25.172

 ******    1 imaginary frequencies (negative Signs) ******

                      1                      2                      3
                      A                      A                      A
 Frequencies --   -199.1197               204.6415               243.0374
 Red. masses --      1.0908                 1.2069                 1.0354
 Frc consts  --      0.0255                 0.0298                 0.0360
 IR Inten    --     34.0271                 3.7981                 0.2008

                      4                      5                      6
                      A                      A                      A
 Frequencies --    834.6452               949.4976               976.1509
 Red. masses --      1.0424                 1.4724                 1.1463
 Frc consts  --      0.4279                 0.7821                 0.6436
 IR Inten    --      0.8129                 3.0061                88.8902

                      7                      8                      9
                      A                      A                      A
 Frequencies --   1059.9823              1247.6419              1384.0280
 Red. masses --      1.0082                 1.5205                 1.2878
 Frc consts  --      0.6674                 1.3945                 1.4534
 IR Inten    --      0.0197                 0.0002                 1.3445

                     10                     11                     12
                      A                      A                      A
 Frequencies --   1494.3165              1692.4505              3158.5737
 Red. masses --      1.1121                 2.7815                 1.0481
 Frc consts  --      1.4632                 4.6942                 6.1608
 IR Inten    --      6.3344                 5.8890                13.4309

                     13                     14                     15
                      A                      A                      A
 Frequencies --   3171.5395              3230.9056              3256.4341
 Red. masses --      1.0706                 1.1154                 1.1178
 Frc consts  --      6.3449                 6.8604                 6.9838
 IR Inten    --      1.8941                 0.2978                25.5520

 - Thermochemistry -
 -------------------
 Temperature   298.150 Kelvin.  Pressure   1.00000 Atm.
 Atom     1 has atomic number  6 and mass  12.00000

 Molecular mass:    29.03913 amu.
 Principal axes and moments of inertia in atomic units:
                           1         2         3
     Eigenvalues --    28.36358  79.86260  83.65824
           X            0.99566   0.09302   0.00000
           Y           -0.09302   0.99566  -0.00000
           Z           -0.00000   0.00000   1.00000
 This molecule is an asymmetric top.
 Rotational symmetry number  1.
 Rotational temperatures (Kelvin)      3.05370     1.08454     1.03533
 Rotational constants (GHZ):          63.62881    22.59808    21.57279
    1 imaginary frequencies ignored.
 Zero-point vibrational energy     136995.4 (Joules/Mol)
                                   32.74269 (Kcal/Mol)
 Warning -- explicit consideration of   2 degrees of freedom as
           vibrations may cause significant error
 Vibrational temperatures:    294.43   349.68  1200.87  1366.12  1404.46
          (Kelvin)           1525.08  1795.08  1991.31  2149.99  2435.06
                             4544.48  4563.14  4648.55  4685.28

 Zero-point correction=                           0.052179 (Hartree/Particle)
 Thermal correction to Energy=                    0.056273
 Thermal correction to Enthalpy=                  0.057218
 Thermal correction to Gibbs Free Energy=         0.027902
 Sum of electronic and zero-point Energies=            -79.034246
 Sum of electronic and thermal Energies=               -79.030151
 Sum of electronic and thermal Enthalpies=             -79.029207
 Sum of electronic and thermal Free Energies=          -79.058523

                     E (Thermal)             CV                S
                      KCal/Mol        Cal/Mol-Kelvin    Cal/Mol-Kelvin
 Total                   35.312             11.722             61.701
 Electronic               0.000              0.000              1.377
 Translational            0.889              2.981             36.032
 Rotational               0.889              2.981             19.877
 Vibrational             33.535              5.761              4.414
 Vibration     1          0.640              1.833              2.091
 Vibration     2          0.659              1.774              1.781

 Optimization completed.
    -- Stationary point found.

 1\1\GINC-NODE60\Freq\UB3LYP\6-31G(d)\C2H5(2)\RPEVERATI\06-Oct-2020\0\\
 #P Freq B3LYP/6-31G* 5D 7F Integral=UltraFineGrid SCF=(NoSymm,XQC,MaxC
 yc=120) IOp(1/33=1) Geom=Check Guess=Read\\TS search on BH76.\\0,2\C,-
 0.532632967,0.0001284908,-0.2987429561\C,0.7656555591,0.0000141554,0.0
 20633435\H,-1.6267085746,-0.0005185086,1.7649273955\H,-1.0812247837,0.
 923546584,-0.4650309543\H,-1.0812417926,-0.9231727162,-0.4656228553\H,
 1.3199140693,-0.9241497643,0.1641869577\H,1.3199311066,0.9240756417,0.
 1647793558\\Version=ES64L-G16RevA.03\State=2-A\HF=-79.0864248\S2=0.756

 Normal termination of Gaussian 16 at Tue Oct  6 16:30:05 2020.
