 Gaussian 16, Revision A.03,
 Gaussian 16:  ES64L-G16RevA.03 25-Dec-2016

 ----------------------------------------------------------------------
 #P Opt(MaxCyc=100) B3LYP/6-31G* 5D 7F Integral=UltraFineGrid SCF=(NoSy
 mm,XQC,MaxCyc=120) IOp(1/33=1)
 ----------------------------------------------------------------------

 TstMul:  Mul=     1
 TstMul:  ICh=     0
 TstMul:  Mul=     1
 Symbolic Z-matrix:
 Charge =  0 Multiplicity = 1

 SCF Done:  E(RB3LYP) =  -195.305525231     A.U. after   13 cycles
 SCF Done:  E(RB3LYP) =  -195.305840146     A.U. after   11 cycles
 SCF Done:  E(RB3LYP) =  -195.305850977     A.U. after    9 cycles
 SCF Done:  E(RB3LYP) =  -195.305851655     A.U. after    7 cycles
 Optimization completed.
    -- Stationary point found.

                         Standard orientation:
 ---------------------------------------------------------------------
 Center     Atomic      Atomic             Coordinates (Angstroms)
 Number     Number       Type             X           Y           Z
 ---------------------------------------------------------------------
      1          6           0       -2.072354   -0.607643    0.000001
      2          6           0       -1.233992    0.638275    0.000049
      3          6           0        0.109305    0.729227    0.000034
      4          6           0        1.065427   -0.370536   -0.000035
      5          6           0        2.396628   -0.200747   -0.000044
      6          1           0       -2.729783   -0.633721    0.879953
      7          1           0       -2.729815   -0.633630   -0.879929
      8          1           0       -1.477780   -1.524955   -0.000057
      9          1           0       -1.797418    1.571365    0.000104
     10          1           0        0.550510    1.726289    0.000076
     11          1           0        0.668911   -1.384320   -0.000081
     12          1           0        3.081315   -1.043585   -0.000096
     13          1           0        2.843983    0.791100    0.000000
 ---------------------------------------------------------------------

 The electronic state is 1-A.
 Alpha  occ. eigenvalues --  -10.18322 -10.18202 -10.17709 -10.17549 -10.17173
 Alpha  occ. eigenvalues --   -0.80422  -0.75111  -0.68073  -0.58908  -0.52850
 Alpha  occ. eigenvalues --   -0.47478  -0.44376  -0.41145  -0.40210  -0.37866
 Alpha  occ. eigenvalues --   -0.36746  -0.33037  -0.30899  -0.21802
 Alpha virt. eigenvalues --   -0.01641   0.09090   0.10485   0.11086   0.13475
 Alpha virt. eigenvalues --    0.16333   0.17399   0.17690   0.19645   0.23302
 Alpha virt. eigenvalues --    0.25291   0.33470   0.38040   0.43907   0.47778

 Mulliken charges:
               1
     1  C   -0.487117
     2  C   -0.109666
     3  C   -0.113514
     4  C   -0.054597
     5  C   -0.354094
     6  H    0.159052
     7  H    0.159052
     8  H    0.156152
     9  H    0.125519
    10  H    0.118408
    11  H    0.122802
    12  H    0.139790
    13  H    0.138214
 Sum of Mulliken charges =  -0.00000

 Dipole moment (field-independent basis, Debye):
    X=             -0.5043    Y=             -0.1344    Z=              0.0000  Tot=              0.5220
 Quadrupole moment (field-independent basis, Debye-Ang):
   XX=            -28.9259   YY=            -29.4870   ZZ=            -34.1694
   XY=              0.0634   XZ=             -0.0001   YZ=              0.0002

 Normal termination of Gaussian 16 at Tue Oct  6 15:59:26 2020.
