 Gaussian 16, Revision A.03,
 Gaussian 16:  ES64L-G16RevA.03 25-Dec-2016

 ----------------------------------------------------------------------
 #P Opt(MaxCyc=100) B3LYP/6-31G* 5D 7F Integral=UltraFineGrid SCF=(NoSy
 mm,XQC,MaxCyc=120) IOp(1/33=1)
 ----------------------------------------------------------------------

 TstMul:  Mul=     1
 TstMul:  ICh=     0
 TstMul:  Mul=     1
 Symbolic Z-matrix:
 Charge =  0 Multiplicity = 1

 SCF Done:  E(RB3LYP) =  -78.5857154944     A.U. after    9 cycles
 SCF Done:  E(RB3LYP) =  -78.5858223705     A.U. after    6 cycles
 SCF Done:  E(RB3LYP) =  -78.5858250556     A.U. after    6 cycles
 Optimization completed.
    -- Stationary point found.

                         Standard orientation:
 ---------------------------------------------------------------------
 Center     Atomic      Atomic             Coordinates (Angstroms)
 Number     Number       Type             X           Y           Z
 ---------------------------------------------------------------------
      1          6           0        0.000000    0.000000    0.665730
      2          6           0        0.000000    0.000000   -0.665730
      3          1           0       -0.000000    0.924037    1.239252
      4          1           0       -0.000000   -0.924037    1.239252
      5          1           0        0.000000    0.924037   -1.239252
      6          1           0       -0.000000   -0.924037   -1.239252
 ---------------------------------------------------------------------

 The electronic state is 1-AG.
 Alpha  occ. eigenvalues --  -10.17730 -10.17651  -0.75450  -0.57725  -0.46471
 Alpha  occ. eigenvalues --   -0.41613  -0.35334  -0.26650
 Alpha virt. eigenvalues --    0.01870   0.12233   0.14034   0.15771   0.24403
 Alpha virt. eigenvalues --    0.33215   0.48090   0.54878   0.56884   0.63747
 Alpha virt. eigenvalues --    0.66160   0.70154   0.84778   0.87244   0.93256

 Mulliken charges:
               1
     1  C   -0.283237
     2  C   -0.283237
     3  H    0.141618
     4  H    0.141618
     5  H    0.141618
     6  H    0.141618
 Sum of Mulliken charges =   0.00000

 Dipole moment (field-independent basis, Debye):
    X=             -0.0000    Y=              0.0000    Z=              0.0000  Tot=              0.0000
 Quadrupole moment (field-independent basis, Debye-Ang):
   XX=            -15.0308   YY=            -12.1133   ZZ=            -12.0015
   XY=              0.0000   XZ=             -0.0000   YZ=             -0.0000

 Normal termination of Gaussian 16 at Tue Oct  6 15:57:58 2020.
