 Gaussian 16, Revision A.03,
 Gaussian 16:  ES64L-G16RevA.03 25-Dec-2016

 ----------------------------------------------------------------------
 #P Opt(MaxCyc=100) B3LYP/6-31G* 5D 7F Integral=UltraFineGrid SCF=(NoSy
 mm,XQC,MaxCyc=120) IOp(1/33=1)
 ----------------------------------------------------------------------

 TstMul:  Mul=     1
 TstMul:  ICh=     0
 TstMul:  Mul=     1
 Symbolic Z-matrix:
 Charge =  0 Multiplicity = 1

 SCF Done:  E(RB3LYP) =  -139.731718455     A.U. after    9 cycles
 SCF Done:  E(RB3LYP) =  -139.731935763     A.U. after    9 cycles
 SCF Done:  E(RB3LYP) =  -139.731942483     A.U. after    7 cycles
 SCF Done:  E(RB3LYP) =  -139.731943160     A.U. after    7 cycles
 Optimization completed.
    -- Stationary point found.

                         Standard orientation:
 ---------------------------------------------------------------------
 Center     Atomic      Atomic             Coordinates (Angstroms)
 Number     Number       Type             X           Y           Z
 ---------------------------------------------------------------------
      1          6           0        0.000000    0.000000   -0.630060
      2          9           0        0.000000    0.000000    0.752595
      3          1           0        0.000000    1.032979   -0.997664
      4          1           0        0.894586   -0.516490   -0.997664
      5          1           0       -0.894586   -0.516490   -0.997664
 ---------------------------------------------------------------------

 The electronic state is 1-A1.
 Alpha  occ. eigenvalues --  -24.65944 -10.24737  -1.17228  -0.69496  -0.47508
 Alpha  occ. eigenvalues --   -0.47179  -0.47179  -0.33198  -0.33198
 Alpha virt. eigenvalues --    0.10605   0.13419   0.16475   0.16475   0.51895
 Alpha virt. eigenvalues --    0.54856   0.54856   0.84240   0.84240   0.87267
 Alpha virt. eigenvalues --    0.98172   1.25269   1.26301   1.26301   1.52286

 Mulliken charges:
               1
     1  C   -0.086634
     2  F   -0.336873
     3  H    0.141169
     4  H    0.141169
     5  H    0.141169
 Sum of Mulliken charges =  -0.00000

 Dipole moment (field-independent basis, Debye):
    X=              0.0000    Y=             -0.0000    Z=             -1.7138  Tot=              1.7138
 Quadrupole moment (field-independent basis, Debye-Ang):
   XX=            -11.6888   YY=            -11.6888   ZZ=            -11.9800
   XY=              0.0000   XZ=             -0.0000   YZ=             -0.0000

 Normal termination of Gaussian 16 at Tue Oct  6 15:59:54 2020.
