 Gaussian 16, Revision A.03,

 ----------------------------------------------------------------------
 #P Opt(TS,MaxCyc=50,NoEigenTest,MaxStep=10,CalcFC) B3LYP/6-31G* 5D 7F
 Integral=UltraFineGrid SCF=(NoSymm,XQC,MaxCyc=120) IOp(1/33=1)
 ----------------------------------------------------------------------

 TstMul:  Mul=     1
 TstMul:  ICh=    -1
 TstMul:  Mul=     1
 Symbolic Z-matrix:
 Charge = -1 Multiplicity = 1

 SCF Done:  E(RB3LYP) =  -960.361608720     A.U. after   12 cycles
 SCF Done:  E(RB3LYP) =  -960.362018652     A.U. after   10 cycles
 SCF Done:  E(RB3LYP) =  -960.362021677     A.U. after    7 cycles
 Optimization completed.
    -- Stationary point found.
 Normal termination of Gaussian 16 at Tue Oct  6 16:28:56 2020.
 Gaussian 16:  ES64L-G16RevA.03 25-Dec-2016

 ----------------------------------------------------------------------
 #P Freq B3LYP/6-31G* 5D 7F Integral=UltraFineGrid SCF=(NoSymm,XQC,MaxC
 yc=120) IOp(1/33=1) Geom=Check Guess=Read
 ----------------------------------------------------------------------

 TstMul:  Mul=     1
 TstMul:  ICh=    -1
 TstMul:  Mul=     1
 Structure from the checkpoint file:  "MN_28_clch3clts_BH76_B3LYP_631Gs.chk"
 Charge = -1 Multiplicity = 1

                         Standard orientation:
 ---------------------------------------------------------------------
 Center     Atomic      Atomic             Coordinates (Angstroms)
 Number     Number       Type             X           Y           Z
 ---------------------------------------------------------------------
      1         17           0        2.363043   -0.000005   -0.000031
      2          6           0        0.000001    0.000018    0.000113
      3          1           0        0.000001    0.896256   -0.591781
      4          1           0       -0.000002   -0.960704   -0.480089
      5          1           0        0.000001    0.064505    1.072231
      6         17           0       -2.363043   -0.000005   -0.000030
 ---------------------------------------------------------------------

 SCF Done:  E(RB3LYP) =  -960.362021677     A.U. after    1 cycles

 The electronic state is 1-A.
 Alpha  occ. eigenvalues -- -101.27879-101.27879 -10.08563  -9.20813  -9.20812
 Alpha  occ. eigenvalues --   -6.96788  -6.96786  -6.96369  -6.96369  -6.96368
 Alpha  occ. eigenvalues --   -6.96368  -0.58715  -0.55484  -0.50681  -0.29058
 Alpha  occ. eigenvalues --   -0.29058  -0.15707  -0.09109  -0.09109  -0.08442
 Alpha  occ. eigenvalues --   -0.08442  -0.07534
 Alpha virt. eigenvalues --    0.13417   0.25337   0.32011   0.32012   0.57674
 Alpha virt. eigenvalues --    0.58078   0.63684   0.63685   0.64520   0.64520
 Alpha virt. eigenvalues --    0.69495   0.72609   0.72610   0.74458   0.88601

 Mulliken charges:
               1
     1  Cl  -0.644669
     2  C   -0.360301
     3  H    0.216551
     4  H    0.216553
     5  H    0.216535
     6  Cl  -0.644670
 Sum of Mulliken charges =  -1.00000

 Dipole moment (field-independent basis, Debye):
    X=              0.0000    Y=              0.0001    Z=              0.0003  Tot=              0.0003
 Quadrupole moment (field-independent basis, Debye-Ang):
   XX=            -72.6894   YY=            -35.4321   ZZ=            -35.4322
   XY=              0.0000   XZ=              0.0000   YZ=             -0.0000

  Exact polarizability:  99.552   0.000  22.333   0.000   0.000  22.333
 Approx polarizability: 152.808   0.000  28.743   0.000  -0.000  28.743

 ******    1 imaginary frequencies (negative Signs) ******

                      1                      2                      3
                      A                      A                      A
 Frequencies --   -327.9904               195.1809               195.3100
 Red. masses --     13.2524                 4.3465                 4.3466
 Frc consts  --      0.8400                 0.0976                 0.0977
 IR Inten    --    961.0391                14.7183                14.7178

                      4                      5                      6
                      A                      A                      A
 Frequencies --    211.4898               925.4823               925.5677
 Red. masses --     34.9638                 1.0122                 1.0122
 Frc consts  --      0.9214                 0.5108                 0.5109
 IR Inten    --      0.0000                 0.0000                 0.0000

                      7                      8                      9
                      A                      A                      A
 Frequencies --   1026.6258              1424.2722              1424.2953
 Red. masses --      1.0437                 1.1042                 1.1041
 Frc consts  --      0.6481                 1.3197                 1.3197
 IR Inten    --     91.8295                 5.0967                 5.0972

                     10                     11                     12
                      A                      A                      A
 Frequencies --   3233.4558              3428.8119              3428.8597
 Red. masses --      1.0078                 1.1235                 1.1235
 Frc consts  --      6.2083                 7.7827                 7.7829
 IR Inten    --      0.0000                 0.4426                 0.4433

 - Thermochemistry -
 -------------------
 Temperature   298.150 Kelvin.  Pressure   1.00000 Atm.
 Atom     1 has atomic number 17 and mass  34.96885

 Molecular mass:    84.96118 amu.
 Principal axes and moments of inertia in atomic units:
                           1         2         3
     Eigenvalues --    12.455301400.836591400.83665
           X            1.00000   0.00000   0.00000
           Y           -0.00000   1.00000  -0.00098
           Z           -0.00000   0.00098   1.00000
 This molecule is an asymmetric top.
 Rotational symmetry number  1.
 Rotational temperatures (Kelvin)      6.95398     0.06183     0.06183
 Rotational constants (GHZ):         144.89742     1.28833     1.28833
    1 imaginary frequencies ignored.
 Zero-point vibrational energy      98209.5 (Joules/Mol)
                                   23.47264 (Kcal/Mol)
 Warning -- explicit consideration of   3 degrees of freedom as
           vibrations may cause significant error
 Vibrational temperatures:    280.82   281.01   304.29  1331.56  1331.69
          (Kelvin)           1477.09  2049.21  2049.24  4652.22  4933.30
                             4933.36

 Zero-point correction=                           0.037406 (Hartree/Particle)
 Thermal correction to Energy=                    0.042063
 Thermal correction to Enthalpy=                  0.043007
 Thermal correction to Gibbs Free Energy=         0.009419
 Sum of electronic and zero-point Energies=           -960.324616
 Sum of electronic and thermal Energies=              -960.319959
 Sum of electronic and thermal Enthalpies=            -960.319015
 Sum of electronic and thermal Free Energies=         -960.352603

                     E (Thermal)             CV                S
                      KCal/Mol        Cal/Mol-Kelvin    Cal/Mol-Kelvin
 Total                   26.395             12.954             70.692
 Electronic               0.000              0.000              0.000
 Translational            0.889              2.981             39.232
 Rotational               0.889              2.981             24.706
 Vibrational             24.617              6.992              6.754
 Vibration     1          0.636              1.847              2.178
 Vibration     2          0.636              1.846              2.177
 Vibration     3          0.643              1.823              2.031

 Optimization completed.
    -- Stationary point found.
 Normal termination of Gaussian 16 at Tue Oct  6 16:29:23 2020.
