 Gaussian 16, Revision A.03,
 Gaussian 16:  ES64L-G16RevA.03 25-Dec-2016

 ----------------------------------------------------------------------
 #P Opt(MaxCyc=100) B3LYP/6-31G* 5D 7F Integral=UltraFineGrid SCF=(NoSy
 mm,XQC,MaxCyc=120) IOp(1/33=1)
 ----------------------------------------------------------------------

 TstMul:  Mul=     2
 TstMul:  ICh=     0
 TstMul:  Mul=     2
 Symbolic Z-matrix:
 Charge =  0 Multiplicity = 2

 SCF Done:  E(UB3LYP) =  -39.8374556484     A.U. after   10 cycles
 SCF Done:  E(UB3LYP) =  -39.8375170782     A.U. after    7 cycles
 Optimization completed.
    -- Stationary point found.

                         Standard orientation:
 ---------------------------------------------------------------------
 Center     Atomic      Atomic             Coordinates (Angstroms)
 Number     Number       Type             X           Y           Z
 ---------------------------------------------------------------------
      1          6           0        0.000000    0.000000    0.000000
      2          1           0        0.000000    1.083107    0.000000
      3          1           0        0.937998   -0.541553    0.000000
      4          1           0       -0.937998   -0.541553    0.000000
 ---------------------------------------------------------------------

 The electronic state is 2-A2".
 Alpha  occ. eigenvalues --  -10.18328  -0.68109  -0.41637  -0.41637  -0.22428
 Alpha virt. eigenvalues --    0.11462   0.18195   0.18195   0.53708   0.54519
 Alpha virt. eigenvalues --    0.54519   0.68799   0.91421   0.91421   0.96525
 Alpha virt. eigenvalues --    1.64988   1.64988   2.01060   2.18609   2.18609
  Beta  occ. eigenvalues --  -10.16897  -0.64041  -0.40676  -0.40676
  Beta virt. eigenvalues --   -0.04797   0.13075   0.18745   0.18745   0.55332
  Beta virt. eigenvalues --    0.55332   0.61562   0.71482   0.91906   0.91906
  Beta virt. eigenvalues --    0.99529   1.72148   1.72148   2.09694   2.19734

 Mulliken charges and spin densities:
               1          2
     1  C   -0.485332   1.155571
     2  H    0.161777  -0.051857
     3  H    0.161777  -0.051857
     4  H    0.161777  -0.051857
 Sum of Mulliken charges =  -0.00000   1.00000

 Dipole moment (field-independent basis, Debye):
    X=             -0.0000    Y=              0.0000    Z=             -0.0000  Tot=              0.0000
 Quadrupole moment (field-independent basis, Debye-Ang):
   XX=             -7.0083   YY=             -7.0083   ZZ=             -8.6432
   XY=             -0.0000   XZ=             -0.0000   YZ=              0.0000

 1\1\GINC-NODE56\FOpt\UB3LYP\6-31G(d)\C1H3(2)\RPEVERATI\06-Oct-2020\0\\
 #P Opt(MaxCyc=100) B3LYP/6-31G* 5D 7F Integral=UltraFineGrid SCF=(NoSy
 mm,XQC,MaxCyc=120) IOp(1/33=1)\\TS search on BH76.\\0,2\C,0.,0.,0.\H,0
 .5415532692,0.9379977772,0.\H,0.5415532692,-0.9379977772,0.\H,-1.08310
 65383,0.,0.\\Version=ES64L-G16RevA.03\State=2-A2"\HF=-39.8375171\S2=0.
 753764\S2-1=0.\S2A=0.750007\RMSD=4.623e-09\RMSF=1.050e-04\Dipole=0.,0.
 ,0.\Quadrupole=0.4051935,0.4051935,-0.810387,0.,0.,0.\PG=D03H [O(C1),3
 C2(H1)]\\@

 Normal termination of Gaussian 16 at Tue Oct  6 15:59:17 2020.
