 Gaussian 16, Revision A.03,
 Gaussian 16:  ES64L-G16RevA.03 25-Dec-2016

 ----------------------------------------------------------------------
 #P Opt(MaxCyc=100) B3LYP/6-31G* 5D 7F Integral=UltraFineGrid SCF=(NoSy
 mm,XQC,MaxCyc=120) IOp(1/33=1)
 ----------------------------------------------------------------------

 TstMul:  Mul=     1
 TstMul:  ICh=     0
 TstMul:  Mul=     1
 Symbolic Z-matrix:
 Charge =  0 Multiplicity = 1

 SCF Done:  E(RB3LYP) =  -559.937650122     A.U. after   11 cycles
 SCF Done:  E(RB3LYP) =  -559.938205668     A.U. after   11 cycles
 SCF Done:  E(RB3LYP) =  -559.938266896     A.U. after    8 cycles
 Optimization completed.
    -- Stationary point found.

                         Standard orientation:
 ---------------------------------------------------------------------
 Center     Atomic      Atomic             Coordinates (Angstroms)
 Number     Number       Type             X           Y           Z
 ---------------------------------------------------------------------
      1          9           0        0.000000    0.000000   -1.088116
      2         17           0        0.000000    0.000000    0.576061
 ---------------------------------------------------------------------

 The electronic state is 1-SG.
 Alpha  occ. eigenvalues -- -101.61182 -24.73791  -9.53689  -7.30624  -7.28771
 Alpha  occ. eigenvalues --   -7.28771  -1.21838  -0.83295  -0.52293  -0.46700
 Alpha  occ. eigenvalues --   -0.46700  -0.32836  -0.32836
 Alpha virt. eigenvalues --   -0.12101   0.32605   0.38501   0.41898   0.41898
 Alpha virt. eigenvalues --    0.74321   0.74321   0.81943   0.81943   0.90446
 Alpha virt. eigenvalues --    1.23733   1.24310   1.24310   1.72924   1.82426

 Mulliken charges:
               1
     1  F   -0.297526
     2  Cl   0.297526
 Sum of Mulliken charges =  -0.00000

 Dipole moment (field-independent basis, Debye):
    X=              0.0000    Y=              0.0000    Z=              0.9813  Tot=              0.9813
 Quadrupole moment (field-independent basis, Debye-Ang):
   XX=            -17.1104   YY=            -17.1104   ZZ=            -15.4784
   XY=             -0.0000   XZ=              0.0000   YZ=              0.0000

 Normal termination of Gaussian 16 at Tue Oct  6 15:59:43 2020.
