 Gaussian 16, Revision A.03,
 Gaussian 16:  ES64L-G16RevA.03 25-Dec-2016

 ----------------------------------------------------------------------
 #P Opt(MaxCyc=100) B3LYP/6-31G* 5D 7F Integral=UltraFineGrid SCF=(NoSy
 mm,XQC,MaxCyc=120) IOp(1/33=1)
 ----------------------------------------------------------------------

 TstMul:  Mul=     1
 TstMul:  ICh=     0
 TstMul:  Mul=     1
 Symbolic Z-matrix:
 Charge =  0 Multiplicity = 1

 SCF Done:  E(RB3LYP) =  -115.711878077     A.U. after   11 cycles
 SCF Done:  E(RB3LYP) =  -115.712199179     A.U. after    8 cycles
 SCF Done:  E(RB3LYP) =  -115.712204125     A.U. after    7 cycles
 Optimization completed.
    -- Stationary point found.

                         Standard orientation:
 ---------------------------------------------------------------------
 Center     Atomic      Atomic             Coordinates (Angstroms)
 Number     Number       Type             X           Y           Z
 ---------------------------------------------------------------------
      1          6           0       -0.046897    0.660880    0.000000
      2          8           0       -0.046897   -0.757326    0.000000
      3          1           0       -1.094222    0.975663    0.000000
      4          1           0        0.875616   -1.053130    0.000000
      5          1           0        0.437581    1.085398    0.893341
      6          1           0        0.437581    1.085398   -0.893341
 ---------------------------------------------------------------------

 The electronic state is 1-A'.
 Alpha  occ. eigenvalues --  -19.13297 -10.21687  -1.00990  -0.67795  -0.50195
 Alpha  occ. eigenvalues --   -0.43378  -0.41897  -0.32939  -0.26395
 Alpha virt. eigenvalues --    0.07693   0.13178   0.16694   0.17533   0.20668
 Alpha virt. eigenvalues --    0.53520   0.56894   0.57777   0.78711   0.84909
 Alpha virt. eigenvalues --    0.87257   0.90721   0.97775   1.00019   1.03264

 Mulliken charges:
               1
     1  C   -0.191706
     2  O   -0.620170
     3  H    0.159047
     4  H    0.396928
     5  H    0.127950
     6  H    0.127950
 Sum of Mulliken charges =  -0.00000

 Dipole moment (field-independent basis, Debye):
    X=              1.4345    Y=              0.8852    Z=             -0.0000  Tot=              1.6856
 Quadrupole moment (field-independent basis, Debye-Ang):
   XX=            -11.5369   YY=            -13.0034   ZZ=            -13.5812
   XY=             -2.1172   XZ=             -0.0000   YZ=             -0.0000

 Normal termination of Gaussian 16 at Tue Oct  6 15:59:31 2020.
