 Gaussian 16, Revision A.03,
 Gaussian 16:  ES64L-G16RevA.03 25-Dec-2016

 ----------------------------------------------------------------------
 #P Opt(MaxCyc=100) B3LYP/6-31G* 5D 7F Integral=UltraFineGrid SCF=(NoSy
 mm,XQC,MaxCyc=120) IOp(1/33=1)
 ----------------------------------------------------------------------

 TstMul:  Mul=     1
 TstMul:  ICh=    -1
 TstMul:  Mul=     1
 Symbolic Z-matrix:
 Charge = -1 Multiplicity = 1

 SCF Done:  E(RB3LYP) =  -960.372022672     A.U. after   12 cycles
 SCF Done:  E(RB3LYP) =  -960.372512748     A.U. after    9 cycles
 SCF Done:  E(RB3LYP) =  -960.372610484     A.U. after    9 cycles
 SCF Done:  E(RB3LYP) =  -960.372696433     A.U. after    9 cycles
 SCF Done:  E(RB3LYP) =  -960.372725600     A.U. after   10 cycles
 SCF Done:  E(RB3LYP) =  -960.372726550     A.U. after    7 cycles
 Optimization completed.
    -- Stationary point found.

                         Standard orientation:
 ---------------------------------------------------------------------
 Center     Atomic      Atomic             Coordinates (Angstroms)
 Number     Number       Type             X           Y           Z
 ---------------------------------------------------------------------
      1         17           0        0.000000    0.000000   -2.373100
      2          6           0        0.000000    0.000000   -0.502996
      3          1           0       -0.000000    1.032123   -0.169302
      4          1           0       -0.893845   -0.516062   -0.169302
      5          1           0        0.893845   -0.516062   -0.169302
      6         17           0        0.000000    0.000000    2.580505
 ---------------------------------------------------------------------

 The electronic state is 1-A1.
 Alpha  occ. eigenvalues -- -101.37338-101.20352 -10.07927  -9.30571  -9.13091
 Alpha  occ. eigenvalues --   -7.06794  -7.05953  -7.05953  -6.88858  -6.88789
 Alpha  occ. eigenvalues --   -6.88789  -0.69281  -0.52791  -0.47269  -0.29120
 Alpha  occ. eigenvalues --   -0.29120  -0.25583  -0.16136  -0.16136  -0.02249
 Alpha  occ. eigenvalues --   -0.02033  -0.02033
 Alpha virt. eigenvalues --    0.16392   0.26663   0.30779   0.30779   0.52920
 Alpha virt. eigenvalues --    0.57501   0.58721   0.58721   0.62494   0.66535
 Alpha virt. eigenvalues --    0.66535   0.71300   0.72537   0.72537   0.94552

 Mulliken charges:
               1
     1  Cl  -0.249949
     2  C   -0.457968
     3  H    0.209497
     4  H    0.209497
     5  H    0.209497
     6  Cl  -0.920573
 Sum of Mulliken charges =  -1.00000

 Dipole moment (field-independent basis, Debye):
    X=             -0.0000    Y=             -0.0000    Z=             -7.6221  Tot=              7.6221
 Quadrupole moment (field-independent basis, Debye-Ang):
   XX=            -35.4907   YY=            -35.4907   ZZ=            -74.5564
   XY=             -0.0000   XZ=              0.0000   YZ=             -0.0000

 Normal termination of Gaussian 16 at Tue Oct  6 16:00:06 2020.
