 Gaussian 16, Revision A.03,
 Gaussian 16:  ES64L-G16RevA.03 25-Dec-2016

 ----------------------------------------------------------------------
 #P Opt(MaxCyc=100) B3LYP/6-31G* 5D 7F Integral=UltraFineGrid SCF=(NoSy
 mm,XQC,MaxCyc=120) IOp(1/33=1)
 ----------------------------------------------------------------------

 TstMul:  Mul=     1
 TstMul:  ICh=    -1
 TstMul:  Mul=     1
 Symbolic Z-matrix:
 Charge = -1 Multiplicity = 1

 SCF Done:  E(RB3LYP) =  -599.995637773     A.U. after   11 cycles
 SCF Done:  E(RB3LYP) =  -599.995837454     A.U. after    9 cycles
 SCF Done:  E(RB3LYP) =  -599.995851266     A.U. after    7 cycles
 SCF Done:  E(RB3LYP) =  -599.995857447     A.U. after    7 cycles
 Optimization completed.
    -- Stationary point found.

                         Standard orientation:
 ---------------------------------------------------------------------
 Center     Atomic      Atomic             Coordinates (Angstroms)
 Number     Number       Type             X           Y           Z
 ---------------------------------------------------------------------
      1          9           0        0.000000    0.000000   -2.654726
      2          6           0        0.000000    0.000000   -1.243781
      3          1           0       -0.000000    1.026374   -0.871851
      4          1           0       -0.888866   -0.513187   -0.871851
      5          1           0        0.888866   -0.513187   -0.871851
      6         17           0        0.000000    0.000000    1.998281
 ---------------------------------------------------------------------

 The electronic state is 1-A1.
 Alpha  occ. eigenvalues -- -101.18996 -24.51120 -10.08138  -9.11712  -6.87459
 Alpha  occ. eigenvalues --   -6.87425  -6.87425  -1.01743  -0.53294  -0.45961
 Alpha  occ. eigenvalues --   -0.31798  -0.31135  -0.31135  -0.18206  -0.18206
 Alpha  occ. eigenvalues --   -0.00948  -0.00749  -0.00749
 Alpha virt. eigenvalues --    0.26507   0.30028   0.33075   0.33075   0.61801
 Alpha virt. eigenvalues --    0.69287   0.69308   0.69308   0.73319   0.73319
 Alpha virt. eigenvalues --    0.82099   1.01638   1.01638   1.10262   1.14620

 Mulliken charges:
               1
     1  F   -0.393201
     2  C   -0.098323
     3  H    0.148976
     4  H    0.148976
     5  H    0.148976
     6  Cl  -0.955406
 Sum of Mulliken charges =  -1.00000

 Dipole moment (field-independent basis, Debye):
    X=             -0.0000    Y=             -0.0000    Z=             -6.5644  Tot=              6.5644
 Quadrupole moment (field-independent basis, Debye-Ang):
   XX=            -27.2781   YY=            -27.2781   ZZ=            -54.6517
   XY=             -0.0000   XZ=             -0.0000   YZ=              0.0000

 Normal termination of Gaussian 16 at Tue Oct  6 16:00:07 2020.
