 Gaussian 16, Revision A.03,

 ----------------------------------------------------------------------
 #P Opt(TS,MaxCyc=50,NoEigenTest,MaxStep=10,CalcFC) B3LYP/6-31G* 5D 7F
 Integral=UltraFineGrid SCF=(NoSymm,XQC,MaxCyc=120) IOp(1/33=1)
 ----------------------------------------------------------------------

 TstMul:  Mul=     1
 TstMul:  ICh=    -1
 TstMul:  Mul=     1
 Symbolic Z-matrix:
 Charge = -1 Multiplicity = 1

 SCF Done:  E(RB3LYP) =  -239.518989832     A.U. after   12 cycles
 SCF Done:  E(RB3LYP) =  -239.519184937     A.U. after   10 cycles
 Optimization completed.
    -- Stationary point found.
 Normal termination of Gaussian 16 at Tue Oct  6 16:29:38 2020.
 Gaussian 16:  ES64L-G16RevA.03 25-Dec-2016

 ----------------------------------------------------------------------
 #P Freq B3LYP/6-31G* 5D 7F Integral=UltraFineGrid SCF=(NoSymm,XQC,MaxC
 yc=120) IOp(1/33=1) Geom=Check Guess=Read
 ----------------------------------------------------------------------

 TstMul:  Mul=     1
 TstMul:  ICh=    -1
 TstMul:  Mul=     1
 Structure from the checkpoint file:  "MN_39_fch3fts_BH76_B3LYP_631Gs.chk"
 Charge = -1 Multiplicity = 1

                         Standard orientation:
 ---------------------------------------------------------------------
 Center     Atomic      Atomic             Coordinates (Angstroms)
 Number     Number       Type             X           Y           Z
 ---------------------------------------------------------------------
      1          9           0        1.809696   -0.000000   -0.000000
      2          6           0        0.000005    0.000004   -0.000001
      3          1           0       -0.000009   -0.273602    1.042450
      4          1           0       -0.000017    1.039596   -0.284280
      5          1           0       -0.000003   -0.766001   -0.758161
      6          9           0       -1.809696   -0.000001   -0.000000
 ---------------------------------------------------------------------

 SCF Done:  E(RB3LYP) =  -239.519184937     A.U. after    1 cycles

 The electronic state is 1-A.
 Alpha  occ. eigenvalues --  -24.29157 -24.29153 -10.01026  -0.76768  -0.76142
 Alpha  occ. eigenvalues --   -0.44505  -0.21588  -0.21587  -0.11410  -0.03095
 Alpha  occ. eigenvalues --   -0.03095  -0.01455  -0.01455  -0.00507
 Alpha virt. eigenvalues --    0.31942   0.32130   0.37743   0.37743   0.78012
 Alpha virt. eigenvalues --    0.78013   0.85486   1.03353   1.11356   1.11357
 Alpha virt. eigenvalues --    1.34353   1.43507   1.43507   1.57635   1.57635

 Mulliken charges:
               1
     1  F   -0.642443
     2  C   -0.049615
     3  H    0.111504
     4  H    0.111503
     5  H    0.111503
     6  F   -0.642451
 Sum of Mulliken charges =  -1.00000

 Dipole moment (field-independent basis, Debye):
    X=              0.0001    Y=              0.0000    Z=              0.0000  Tot=              0.0001
 Quadrupole moment (field-independent basis, Debye-Ang):
   XX=            -37.8919   YY=            -17.5799   ZZ=            -17.5800
   XY=             -0.0000   XZ=             -0.0000   YZ=             -0.0000

  Exact polarizability:  29.980  -0.000  14.634  -0.000  -0.000  14.634
 Approx polarizability:  47.557  -0.000  17.889  -0.000   0.000  17.889

 ******    1 imaginary frequencies (negative Signs) ******

                      1                      2                      3
                      A                      A                      A
 Frequencies --   -478.6371               331.9743               332.0827
 Red. masses --     10.2666                 4.3436                 4.3443
 Frc consts  --      1.3858                 0.2820                 0.2823
 IR Inten    --    716.5046                17.3758                17.3753

                      4                      5                      6
                      A                      A                      A
 Frequencies --    366.1212              1016.8759              1016.8850
 Red. masses --     18.9647                 1.0213                 1.0213
 Frc consts  --      1.4978                 0.6222                 0.6222
 IR Inten    --      0.0000                 0.0000                 0.0000

                      7                      8                      9
                      A                      A                      A
 Frequencies --   1142.0072              1382.7199              1382.8194
 Red. masses --      1.0898                 1.1225                 1.1224
 Frc consts  --      0.8374                 1.2644                 1.2646
 IR Inten    --      0.0002                 1.4452                 1.4449

                     10                     11                     12
                      A                      A                      A
 Frequencies --   3136.3791              3320.6490              3320.6731
 Red. masses --      1.0079                 1.1285                 1.1285
 Frc consts  --      5.8416                 7.3314                 7.3315
 IR Inten    --      0.0000                55.2461                55.2321

 - Thermochemistry -
 -------------------
 Temperature   298.150 Kelvin.  Pressure   1.00000 Atm.
 Atom     1 has atomic number  9 and mass  18.99840

 Molecular mass:    53.02028 amu.
 Principal axes and moments of inertia in atomic units:
                           1         2         3
     Eigenvalues --    12.54147 450.65211 450.65230
           X            1.00000  -0.00000  -0.00000
           Y            0.00000   1.00000   0.00000
           Z            0.00000  -0.00000   1.00000
 This molecule is an asymmetric top.
 Rotational symmetry number  1.
 Rotational temperatures (Kelvin)      6.90620     0.19220     0.19220
 Rotational constants (GHZ):         143.90188     4.00473     4.00473
    1 imaginary frequencies ignored.
 Zero-point vibrational energy     100182.4 (Joules/Mol)
                                   23.94416 (Kcal/Mol)
 Warning -- explicit consideration of   3 degrees of freedom as
           vibrations may cause significant error
 Vibrational temperatures:    477.64   477.79   526.77  1463.06  1463.07
          (Kelvin)           1643.09  1989.43  1989.57  4512.55  4777.67
                             4777.71

 Zero-point correction=                           0.038157 (Hartree/Particle)
 Thermal correction to Energy=                    0.042203
 Thermal correction to Enthalpy=                  0.043147
 Thermal correction to Gibbs Free Energy=         0.012669
 Sum of electronic and zero-point Energies=           -239.481027
 Sum of electronic and thermal Energies=              -239.476982
 Sum of electronic and thermal Enthalpies=            -239.476038
 Sum of electronic and thermal Free Energies=         -239.506516

                     E (Thermal)             CV                S
                      KCal/Mol        Cal/Mol-Kelvin    Cal/Mol-Kelvin
 Total                   26.483             11.915             64.148
 Electronic               0.000              0.000              0.000
 Translational            0.889              2.981             37.827
 Rotational               0.889              2.981             22.459
 Vibrational             24.705              5.954              3.862
 Vibration     1          0.714              1.612              1.250
 Vibration     2          0.714              1.611              1.250
 Vibration     3          0.739              1.542              1.096

 Optimization completed.
    -- Stationary point found.
 Normal termination of Gaussian 16 at Tue Oct  6 16:30:06 2020.
