 Gaussian 16, Revision A.03,
 Gaussian 16:  ES64L-G16RevA.03 25-Dec-2016

 ----------------------------------------------------------------------
 #P Opt(MaxCyc=100) B3LYP/6-31G* 5D 7F Integral=UltraFineGrid SCF=(NoSy
 mm,XQC,MaxCyc=120) IOp(1/33=1)
 ----------------------------------------------------------------------

 TstMul:  Mul=     1
 TstMul:  ICh=    -1
 TstMul:  Mul=     1
 Symbolic Z-matrix:
 Charge = -1 Multiplicity = 1

 SCF Done:  E(RB3LYP) =  -599.914493669     A.U. after   14 cycles
 SCF Done:  E(RB3LYP) =  -599.917304466     A.U. after   12 cycles
 SCF Done:  E(RB3LYP) =  -599.921128968     A.U. after   13 cycles
 SCF Done:  E(RB3LYP) =  -599.922366787     A.U. after   14 cycles
 SCF Done:  E(RB3LYP) =  -599.927292719     A.U. after   11 cycles
 SCF Done:  E(RB3LYP) =  -599.949074315     A.U. after   13 cycles
 SCF Done:  E(RB3LYP) =  -599.974777139     A.U. after   13 cycles
 SCF Done:  E(RB3LYP) =  -599.985466578     A.U. after   12 cycles
 SCF Done:  E(RB3LYP) =  -599.990292633     A.U. after   12 cycles
 SCF Done:  E(RB3LYP) =  -599.992723129     A.U. after   11 cycles
 SCF Done:  E(RB3LYP) =  -599.994443915     A.U. after   10 cycles
 SCF Done:  E(RB3LYP) =  -599.995537812     A.U. after   10 cycles
 SCF Done:  E(RB3LYP) =  -599.995821379     A.U. after    9 cycles
 SCF Done:  E(RB3LYP) =  -599.995856360     A.U. after    9 cycles
 SCF Done:  E(RB3LYP) =  -599.995857583     A.U. after    7 cycles
 SCF Done:  E(RB3LYP) =  -599.995857612     A.U. after    6 cycles
 Optimization completed.
    -- Stationary point found.

                         Standard orientation:
 ---------------------------------------------------------------------
 Center     Atomic      Atomic             Coordinates (Angstroms)
 Number     Number       Type             X           Y           Z
 ---------------------------------------------------------------------
      1         17           0        0.000000    0.000000    1.997012
      2          6           0        0.000000    0.000000   -1.242703
      3          1           0        0.000000    1.026347   -0.870868
      4          1           0        0.888842   -0.513173   -0.870868
      5          1           0       -0.888842   -0.513173   -0.870868
      6          9           0        0.000000    0.000000   -2.653376
 ---------------------------------------------------------------------

 The electronic state is 1-A1.
 Alpha  occ. eigenvalues -- -101.18996 -24.51111 -10.08123  -9.11713  -6.87459
 Alpha  occ. eigenvalues --   -6.87425  -6.87425  -1.01744  -0.53283  -0.45962
 Alpha  occ. eigenvalues --   -0.31793  -0.31131  -0.31131  -0.18194  -0.18194
 Alpha  occ. eigenvalues --   -0.00949  -0.00750  -0.00750
 Alpha virt. eigenvalues --    0.26520   0.30058   0.33087   0.33087   0.61817
 Alpha virt. eigenvalues --    0.69309   0.69313   0.69313   0.73326   0.73326
 Alpha virt. eigenvalues --    0.82109   1.01651   1.01651   1.10284   1.14602

 Mulliken charges:
               1
     1  Cl  -0.955308
     2  C   -0.098229
     3  H    0.148908
     4  H    0.148908
     5  H    0.148908
     6  F   -0.393189
 Sum of Mulliken charges =  -1.00000

 Dipole moment (field-independent basis, Debye):
    X=              0.0000    Y=             -0.0000    Z=             -6.5587  Tot=              6.5587
 Quadrupole moment (field-independent basis, Debye-Ang):
   XX=            -27.2780   YY=            -27.2780   ZZ=            -54.6210
   XY=             -0.0000   XZ=             -0.0000   YZ=              0.0000

 Normal termination of Gaussian 16 at Tue Oct  6 16:03:06 2020.
