 Gaussian 16, Revision A.03,
 Gaussian 16:  ES64L-G16RevA.03 25-Dec-2016

 ----------------------------------------------------------------------
 #P Opt(MaxCyc=100) B3LYP/6-31G* 5D 7F Integral=UltraFineGrid SCF=(NoSy
 mm,XQC,MaxCyc=120) IOp(1/33=1)
 ----------------------------------------------------------------------

 TstMul:  Mul=     1
 TstMul:  ICh=    -1
 TstMul:  Mul=     1
 Symbolic Z-matrix:
 Charge = -1 Multiplicity = 1

 SCF Done:  E(RB3LYP) =  -239.530316529     A.U. after   13 cycles
 SCF Done:  E(RB3LYP) =  -239.531380407     A.U. after   10 cycles
 SCF Done:  E(RB3LYP) =  -239.532321138     A.U. after   11 cycles
 SCF Done:  E(RB3LYP) =  -239.532545742     A.U. after   11 cycles
 SCF Done:  E(RB3LYP) =  -239.532592316     A.U. after    9 cycles
 SCF Done:  E(RB3LYP) =  -239.532604767     A.U. after    9 cycles
 SCF Done:  E(RB3LYP) =  -239.532606024     A.U. after    8 cycles
 Optimization completed.
    -- Stationary point found.

                         Standard orientation:
 ---------------------------------------------------------------------
 Center     Atomic      Atomic             Coordinates (Angstroms)
 Number     Number       Type             X           Y           Z
 ---------------------------------------------------------------------
      1          9           0        0.000000    0.000000   -1.803988
      2          6           0        0.000000    0.000000   -0.354957
      3          1           0       -0.000000    1.020693    0.018062
      4          1           0       -0.883946   -0.510347    0.018062
      5          1           0        0.883946   -0.510347    0.018062
      6          9           0        0.000000    0.000000    2.034605
 ---------------------------------------------------------------------

 The electronic state is 1-A1.
 Alpha  occ. eigenvalues --  -24.44846 -24.17842 -10.01995  -0.94780  -0.64454
 Alpha  occ. eigenvalues --   -0.47078  -0.25175  -0.24762  -0.24762  -0.12793
 Alpha  occ. eigenvalues --   -0.12793   0.07105   0.07524   0.07524
 Alpha virt. eigenvalues --    0.31672   0.35725   0.38393   0.38393   0.75356
 Alpha virt. eigenvalues --    0.75356   0.77280   1.07058   1.07058   1.12108
 Alpha virt. eigenvalues --    1.23935   1.44539   1.44852   1.44852   1.61096

 Mulliken charges:
               1
     1  F   -0.434178
     2  C   -0.120434
     3  H    0.121262
     4  H    0.121262
     5  H    0.121262
     6  F   -0.809174
 Sum of Mulliken charges =  -1.00000

 Dipole moment (field-independent basis, Debye):
    X=             -0.0000    Y=             -0.0000    Z=             -5.1296  Tot=              5.1296
 Quadrupole moment (field-independent basis, Debye-Ang):
   XX=            -17.7986   YY=            -17.7986   ZZ=            -40.1164
   XY=             -0.0000   XZ=              0.0000   YZ=              0.0000

 Normal termination of Gaussian 16 at Tue Oct  6 16:00:41 2020.
