 Gaussian 16, Revision A.03,

 ----------------------------------------------------------------------
 #P Opt(TS,MaxCyc=50,NoEigenTest,MaxStep=10,CalcFC) B3LYP/6-31G* 5D 7F
 Integral=UltraFineGrid SCF=(NoSymm,XQC,MaxCyc=120) IOp(1/33=1)
 ----------------------------------------------------------------------

 TstMul:  Mul=     2
 TstMul:  ICh=     0
 TstMul:  Mul=     2
 Symbolic Z-matrix:
 Charge =  0 Multiplicity = 2

 SCF Done:  E(UB3LYP) =  -461.269998608     A.U. after   10 cycles
 SCF Done:  E(UB3LYP) =  -461.270229855     A.U. after    9 cycles
 SCF Done:  E(UB3LYP) =  -461.270230640     A.U. after    7 cycles
 Optimization completed.
    -- Stationary point found.

 1\1\GINC-NODE34\FTS\UB3LYP\6-31G(d)\Cl1H2(2)\RPEVERATI\06-Oct-2020\0\\
 #P Opt(TS,MaxCyc=50,NoEigenTest,MaxStep=10,CalcFC) B3LYP/6-31G* 5D 7F
 Integral=UltraFineGrid SCF=(NoSymm,XQC,MaxCyc=120) IOp(1/33=1)\\TS sea
 rch on BH76.\\0,2\H,0.,0.,1.5085795136\Cl,0.,0.,0.\H,0.,0.,-1.50857951
 36\\Version=ES64L-G16RevA.03\State=2-SGG\HF=-461.2702306\S2=0.765182\S
 2-1=0.\S2A=0.75001\RMSD=8.849e-10\RMSF=8.230e-06\Dipole=0.,0.,0.\Quadr
 upole=-0.8317791,-0.8317791,1.6635582,0.,0.,0.\PG=D*H [O(Cl1),C*(H1.H1
 )]\\@

 Normal termination of Gaussian 16 at Tue Oct  6 16:30:01 2020.
 Gaussian 16:  ES64L-G16RevA.03 25-Dec-2016

 ----------------------------------------------------------------------
 #P Freq B3LYP/6-31G* 5D 7F Integral=UltraFineGrid SCF=(NoSymm,XQC,MaxC
 yc=120) IOp(1/33=1) Geom=Check Guess=Read
 ----------------------------------------------------------------------

 TstMul:  Mul=     2
 TstMul:  ICh=     0
 TstMul:  Mul=     2
 Structure from the checkpoint file:  "MN_45_hclhts_BH76_B3LYP_631Gs.chk"
 Charge =  0 Multiplicity = 2

                         Standard orientation:
 ---------------------------------------------------------------------
 Center     Atomic      Atomic             Coordinates (Angstroms)
 Number     Number       Type             X           Y           Z
 ---------------------------------------------------------------------
      1          1           0        0.000000    0.000000    1.508580
      2         17           0        0.000000    0.000000    0.000000
      3          1           0        0.000000    0.000000   -1.508580
 ---------------------------------------------------------------------

 SCF Done:  E(UB3LYP) =  -461.270230640     A.U. after    1 cycles

 The electronic state is 2-SGG.
 Alpha  occ. eigenvalues -- -101.55203  -9.48326  -7.24683  -7.23573  -7.23573
 Alpha  occ. eigenvalues --   -0.84984  -0.53433  -0.34226  -0.34226  -0.25766
 Alpha virt. eigenvalues --    0.01468   0.39215   0.42608   0.42608   0.61850
 Alpha virt. eigenvalues --    0.63082   0.70094   0.82626   0.82626   0.85206
 Alpha virt. eigenvalues --    0.85206   1.06974
  Beta  occ. eigenvalues -- -101.55146  -9.48202  -7.24861  -7.23458  -7.23458
  Beta  occ. eigenvalues --   -0.84097  -0.49321  -0.33649  -0.33649
  Beta virt. eigenvalues --   -0.11574   0.07217   0.39195   0.42971   0.42971
  Beta virt. eigenvalues --    0.62029   0.68138   0.79269   0.82022   0.82022
  Beta virt. eigenvalues --    0.86138   0.86138   1.11274

 Mulliken charges and spin densities:
               1          2
     1  H    0.121282   0.555847
     2  Cl  -0.242564  -0.111694
     3  H    0.121282   0.555847
 Sum of Mulliken charges =  -0.00000   1.00000

 Dipole moment (field-independent basis, Debye):
    X=              0.0000    Y=             -0.0000    Z=             -0.0000  Tot=              0.0000
 Quadrupole moment (field-independent basis, Debye-Ang):
   XX=            -15.1788   YY=            -15.1788   ZZ=            -11.8225
   XY=             -0.0000   XZ=             -0.0000   YZ=              0.0000

  Exact polarizability:   6.311  -0.000   6.311   0.000  -0.000  37.985
 Approx polarizability:   7.806  -0.000   7.806   0.000  -0.000  59.338

 ******    1 imaginary frequencies (negative Signs) ******

                      1                      2                      3
                     SGU                    PIU                    PIU
 Frequencies --  -1273.8319               204.0871               204.0871
 Red. masses --      1.0641                 1.0641                 1.0641
 Frc consts  --      1.0174                 0.0261                 0.0261
 IR Inten    --    982.8230                41.8919                41.8919

                      4
                     SGG
 Frequencies --   1771.4610
 Red. masses --      1.0078
 Frc consts  --      1.8634
 IR Inten    --      0.0000

 - Thermochemistry -
 -------------------
 Temperature   298.150 Kelvin.  Pressure   1.00000 Atm.
 Atom     1 has atomic number  1 and mass   1.00783

 Molecular mass:    36.98450 amu.
 Principal axes and moments of inertia in atomic units:
                           1         2         3
     Eigenvalues --     0.00000  16.38133  16.38133
           X           -0.00000   1.00000   0.00000
           Y            0.00000   0.00000   1.00000
           Z            1.00000   0.00000   0.00000
 This molecule is a prolate symmetric top.
 Rotational symmetry number  2.
 Rotational temperature (Kelvin)      5.28735
 Rotational constant (GHZ):         110.170583
    1 imaginary frequencies ignored.
 Zero-point vibrational energy      13037.1 (Joules/Mol)
                                    3.11594 (Kcal/Mol)
 Warning -- explicit consideration of   2 degrees of freedom as
           vibrations may cause significant error
 Vibrational temperatures:    293.64   293.64  2548.74
          (Kelvin)

 Zero-point correction=                           0.004966 (Hartree/Particle)
 Thermal correction to Energy=                    0.008436
 Thermal correction to Enthalpy=                  0.009380
 Thermal correction to Gibbs Free Energy=        -0.014827
 Sum of electronic and zero-point Energies=           -461.265265
 Sum of electronic and thermal Energies=              -461.261794
 Sum of electronic and thermal Enthalpies=            -461.260850
 Sum of electronic and thermal Free Energies=         -461.285058

                     E (Thermal)             CV                S
                      KCal/Mol        Cal/Mol-Kelvin    Cal/Mol-Kelvin
 Total                    5.294              8.664             50.949
 Electronic               0.000              0.000              1.377
 Translational            0.889              2.981             36.753
 Rotational               0.592              1.987              8.623
 Vibrational              3.813              3.696              4.196
 Vibration     1          0.640              1.834              2.096
 Vibration     2          0.640              1.834              2.096

 Optimization completed.
    -- Stationary point found.
 Normal termination of Gaussian 16 at Tue Oct  6 16:30:21 2020.
