 Gaussian 16, Revision A.03,
 Gaussian 16:  ES64L-G16RevA.03 25-Dec-2016

 ----------------------------------------------------------------------
 #P Opt(MaxCyc=100) B3LYP/6-31G* 5D 7F Integral=UltraFineGrid SCF=(NoSy
 mm,XQC,MaxCyc=120) IOp(1/33=1)
 ----------------------------------------------------------------------

 TstMul:  Mul=     1
 TstMul:  ICh=     0
 TstMul:  Mul=     1
 Symbolic Z-matrix:
 Charge =  0 Multiplicity = 1

 SCF Done:  E(RB3LYP) =  -76.4067725599     A.U. after    9 cycles
 SCF Done:  E(RB3LYP) =  -76.4070179728     A.U. after    7 cycles
 SCF Done:  E(RB3LYP) =  -76.4070241133     A.U. after    7 cycles
 Optimization completed.
    -- Stationary point found.

                         Standard orientation:
 ---------------------------------------------------------------------
 Center     Atomic      Atomic             Coordinates (Angstroms)
 Number     Number       Type             X           Y           Z
 ---------------------------------------------------------------------
      1          8           0        0.000000   -0.000000    0.119516
      2          1           0        0.000000    0.762377   -0.478063
      3          1           0       -0.000000   -0.762377   -0.478063
 ---------------------------------------------------------------------

 The electronic state is 1-A1.
 Alpha  occ. eigenvalues --  -19.12968  -0.99678  -0.51670  -0.37059  -0.29021
 Alpha virt. eigenvalues --    0.06525   0.14885   0.77361   0.86125   0.89174
 Alpha virt. eigenvalues --    0.93465   1.06690   1.38383   1.73096   1.74692
 Alpha virt. eigenvalues --    1.78081   2.28828   2.57817

 Mulliken charges:
               1
     1  O   -0.794125
     2  H    0.397063
     3  H    0.397063
 Sum of Mulliken charges =  -0.00000

 Dipole moment (field-independent basis, Debye):
    X=             -0.0000    Y=              0.0000    Z=             -2.0879  Tot=              2.0879
 Quadrupole moment (field-independent basis, Debye-Ang):
   XX=             -7.2001   YY=             -4.2536   ZZ=             -5.9648
   XY=              0.0000   XZ=              0.0000   YZ=              0.0000

 Normal termination of Gaussian 16 at Tue Oct  6 16:00:04 2020.
