 Gaussian 16, Revision A.03,
 Gaussian 16:  ES64L-G16RevA.03 25-Dec-2016

 ----------------------------------------------------------------------
 #P Opt(MaxCyc=100) B3LYP/6-31G* 5D 7F Integral=UltraFineGrid SCF=(NoSy
 mm,XQC,MaxCyc=120) IOp(1/33=1)
 ----------------------------------------------------------------------

 TstMul:  Mul=     1
 TstMul:  ICh=     0
 TstMul:  Mul=     1
 Symbolic Z-matrix:
 Charge =  0 Multiplicity = 1

 SCF Done:  E(RB3LYP) =  -93.4198343989     A.U. after   10 cycles
 SCF Done:  E(RB3LYP) =  -93.4198845828     A.U. after    8 cycles
 Optimization completed.
    -- Stationary point found.

                         Standard orientation:
 ---------------------------------------------------------------------
 Center     Atomic      Atomic             Coordinates (Angstroms)
 Number     Number       Type             X           Y           Z
 ---------------------------------------------------------------------
      1          6           0        0.000000    0.000000   -0.501999
      2          7           0        0.000000    0.000000    0.654931
      3          1           0        0.000000    0.000000   -1.572527
 ---------------------------------------------------------------------

 The electronic state is 1-SG.
 Alpha  occ. eigenvalues --  -14.35931 -10.24013  -0.91936  -0.60873  -0.37964
 Alpha  occ. eigenvalues --   -0.35895  -0.35895
 Alpha virt. eigenvalues --    0.02074   0.02074   0.08119   0.27937   0.51993
 Alpha virt. eigenvalues --    0.51993   0.64479   0.69472   0.77155   0.77155
 Alpha virt. eigenvalues --    0.81893   1.09268   1.47866   1.50642   1.50642

 Mulliken charges:
               1
     1  C    0.018707
     2  N   -0.264020
     3  H    0.245313
 Sum of Mulliken charges =   0.00000

 Dipole moment (field-independent basis, Debye):
    X=              0.0000    Y=             -0.0000    Z=             -2.9012  Tot=              2.9012
 Quadrupole moment (field-independent basis, Debye-Ang):
   XX=            -11.3788   YY=            -11.3788   ZZ=             -9.5394
   XY=             -0.0000   XZ=              0.0000   YZ=              0.0000

 Normal termination of Gaussian 16 at Tue Oct  6 16:00:07 2020.
