 Gaussian 16, Revision A.03,
 Gaussian 16:  ES64L-G16RevA.03 25-Dec-2016

 ----------------------------------------------------------------------
 #P Opt(MaxCyc=100) B3LYP/6-31G* 5D 7F Integral=UltraFineGrid SCF=(NoSy
 mm,XQC,MaxCyc=120) IOp(1/33=1)
 ----------------------------------------------------------------------

 TstMul:  Mul=     1
 TstMul:  ICh=     0
 TstMul:  Mul=     1
 Symbolic Z-matrix:
 Charge =  0 Multiplicity = 1

 SCF Done:  E(RB3LYP) =  -399.382307166     A.U. after    9 cycles
 SCF Done:  E(RB3LYP) =  -399.382485624     A.U. after    9 cycles
 SCF Done:  E(RB3LYP) =  -399.382486978     A.U. after    6 cycles
 Optimization completed.
    -- Stationary point found.

                         Standard orientation:
 ---------------------------------------------------------------------
 Center     Atomic      Atomic             Coordinates (Angstroms)
 Number     Number       Type             X           Y           Z
 ---------------------------------------------------------------------
      1         16           0       -0.000000   -0.000000    0.103440
      2          1           0        0.000000    0.977004   -0.827516
      3          1           0       -0.000000   -0.977004   -0.827516
 ---------------------------------------------------------------------

 The electronic state is 1-A1.
 Alpha  occ. eigenvalues --  -88.86423  -7.94555  -5.90940  -5.90617  -5.89871
 Alpha  occ. eigenvalues --   -0.74842  -0.45232  -0.36807  -0.26155
 Alpha virt. eigenvalues --    0.01958   0.05563   0.31512   0.33256   0.34608
 Alpha virt. eigenvalues --    0.36495   0.67490   0.73353   0.75398   0.75933
 Alpha virt. eigenvalues --    0.76645   1.01631   1.18999

 Mulliken charges:
               1
     1  S   -0.235564
     2  H    0.117782
     3  H    0.117782
 Sum of Mulliken charges =  -0.00000

 Dipole moment (field-independent basis, Debye):
    X=             -0.0000    Y=              0.0000    Z=             -1.4246  Tot=              1.4246
 Quadrupole moment (field-independent basis, Debye-Ang):
   XX=            -16.5852   YY=            -12.1926   ZZ=            -13.5486
   XY=              0.0000   XZ=              0.0000   YZ=             -0.0000

 Normal termination of Gaussian 16 at Tue Oct  6 16:00:15 2020.
