 Gaussian 16, Revision A.03,

 ----------------------------------------------------------------------
 #P Opt(TS,MaxCyc=50,NoEigenTest,MaxStep=10,CalcFC) B3LYP/6-31G* 5D 7F
 Integral=UltraFineGrid SCF=(NoSymm,XQC,MaxCyc=120) IOp(1/33=1)
 ----------------------------------------------------------------------

 TstMul:  Mul=     1
 TstMul:  ICh=     0
 TstMul:  Mul=     1
 Symbolic Z-matrix:
 Charge =  0 Multiplicity = 1

 SCF Done:  E(RB3LYP) =  -93.3400224492     A.U. after   12 cycles
 SCF Done:  E(RB3LYP) =  -93.3399903407     A.U. after    9 cycles
 Optimization completed.
    -- Stationary point found.
 Normal termination of Gaussian 16 at Tue Oct  6 16:30:23 2020.
 Gaussian 16:  ES64L-G16RevA.03 25-Dec-2016

 ----------------------------------------------------------------------
 #P Freq B3LYP/6-31G* 5D 7F Integral=UltraFineGrid SCF=(NoSymm,XQC,MaxC
 yc=120) IOp(1/33=1) Geom=Check Guess=Read
 ----------------------------------------------------------------------

 TstMul:  Mul=     1
 TstMul:  ICh=     0
 TstMul:  Mul=     1
 Structure from the checkpoint file:  "MN_49_hcnts_BH76_B3LYP_631Gs.chk"
 Charge =  0 Multiplicity = 1

                         Standard orientation:
 ---------------------------------------------------------------------
 Center     Atomic      Atomic             Coordinates (Angstroms)
 Number     Number       Type             X           Y           Z
 ---------------------------------------------------------------------
      1          6           0        0.080466    0.623949    0.000000
      2          7           0        0.080466   -0.567593    0.000000
      3          1           0       -1.046055    0.229459    0.000000
 ---------------------------------------------------------------------

 SCF Done:  E(RB3LYP) =  -93.3399903407     A.U. after    1 cycles

 The electronic state is 1-A'.
 Alpha  occ. eigenvalues --  -14.40620 -10.24633  -0.98903  -0.52376  -0.45149
 Alpha  occ. eigenvalues --   -0.38353  -0.33387
 Alpha virt. eigenvalues --   -0.05716   0.00890   0.06193   0.31791   0.52556
 Alpha virt. eigenvalues --    0.52726   0.56815   0.66923   0.70679   0.73897
 Alpha virt. eigenvalues --    0.77180   0.83258   1.25645   1.47194   1.49191

 Mulliken charges:
               1
     1  C   -0.043701
     2  N   -0.219781
     3  H    0.263482
 Sum of Mulliken charges =  -0.00000

 Dipole moment (field-independent basis, Debye):
    X=             -1.2571    Y=              0.1309    Z=              0.0000  Tot=              1.2639
 Quadrupole moment (field-independent basis, Debye-Ang):
   XX=             -9.4614   YY=            -14.0909   ZZ=            -11.7793
   XY=             -0.2842   XZ=              0.0000   YZ=              0.0000

  Exact polarizability:  12.951   0.287  17.428   0.000  -0.000   8.567
 Approx polarizability:  19.432   1.173  35.061  -0.000  -0.000  11.780

 ******    1 imaginary frequencies (negative Signs) ******

                      1                      2                      3
                     A'                     A'                     A'
 Frequencies --  -1147.9600              2065.8821              2602.5995
 Red. masses --      1.1654                12.1313                 1.0581
 Frc consts  --      0.9048                30.5048                 4.2227
 IR Inten    --     64.9732                 9.8454               108.5938

 - Thermochemistry -
 -------------------
 Temperature   298.150 Kelvin.  Pressure   1.00000 Atm.
 Atom     1 has atomic number  6 and mass  12.00000

 Molecular mass:    27.01090 amu.
 Principal axes and moments of inertia in atomic units:
                           1         2         3
     Eigenvalues --     4.36437  33.00820  37.37257
           X           -0.03370   0.99943   0.00000
           Y            0.99943   0.03370   0.00000
           Z            0.00000   0.00000   1.00000
 This molecule is an asymmetric top.
 Rotational symmetry number  1.
 Rotational temperatures (Kelvin)     19.84568     2.62401     2.31758
 Rotational constants (GHZ):         413.51683    54.67554    48.29053
    1 imaginary frequencies ignored.
 Zero-point vibrational energy      27923.7 (Joules/Mol)
                                    6.67393 (Kcal/Mol)
 Vibrational temperatures:   2972.34  3744.56
          (Kelvin)

 Zero-point correction=                           0.010636 (Hartree/Particle)
 Thermal correction to Energy=                    0.013469
 Thermal correction to Enthalpy=                  0.014413
 Thermal correction to Gibbs Free Energy=        -0.010368
 Sum of electronic and zero-point Energies=            -93.329355
 Sum of electronic and thermal Energies=               -93.326522
 Sum of electronic and thermal Enthalpies=             -93.325578
 Sum of electronic and thermal Free Energies=          -93.350359

                     E (Thermal)             CV                S
                      KCal/Mol        Cal/Mol-Kelvin    Cal/Mol-Kelvin
 Total                    8.452              5.972             52.157
 Electronic               0.000              0.000              0.000
 Translational            0.889              2.981             35.816
 Rotational               0.889              2.981             16.339
 Vibrational              6.674              0.010              0.001

 Optimization completed.
    -- Stationary point found.
 Normal termination of Gaussian 16 at Tue Oct  6 16:30:42 2020.
