 Gaussian 16, Revision A.03,

 ----------------------------------------------------------------------
 #P Opt(TS,MaxCyc=50,NoEigenTest,MaxStep=10,CalcFC) B3LYP/6-31G* 5D 7F
 Integral=UltraFineGrid SCF=(NoSymm,XQC,MaxCyc=120) IOp(1/33=1)
 ----------------------------------------------------------------------

 TstMul:  Mul=     2
 TstMul:  ICh=     0
 TstMul:  Mul=     2
 Symbolic Z-matrix:
 Charge =  0 Multiplicity = 2

 SCF Done:  E(UB3LYP) =  -140.189044480     A.U. after   14 cycles
 SCF Done:  E(UB3LYP) =  -140.189578327     A.U. after   11 cycles
 SCF Done:  E(UB3LYP) =  -140.189580574     A.U. after    8 cycles
 Optimization completed.
    -- Stationary point found.
 Normal termination of Gaussian 16 at Tue Oct  6 16:30:55 2020.
 Gaussian 16:  ES64L-G16RevA.03 25-Dec-2016

 ----------------------------------------------------------------------
 #P Freq B3LYP/6-31G* 5D 7F Integral=UltraFineGrid SCF=(NoSymm,XQC,MaxC
 yc=120) IOp(1/33=1) Geom=Check Guess=Read
 ----------------------------------------------------------------------

 TstMul:  Mul=     2
 TstMul:  ICh=     0
 TstMul:  Mul=     2
 Structure from the checkpoint file:  "MN_53_hfch3ts_BH76_B3LYP_631Gs.chk"
 Charge =  0 Multiplicity = 2

                         Standard orientation:
 ---------------------------------------------------------------------
 Center     Atomic      Atomic             Coordinates (Angstroms)
 Number     Number       Type             X           Y           Z
 ---------------------------------------------------------------------
      1          1           0       -0.000000    2.044249    0.000000
      2          9           0       -0.000001    0.774983    0.000000
      3          6           0       -0.000001   -0.918958   -0.000000
      4          1           0        1.056221   -1.168456   -0.000000
      5          1           0       -0.528105   -1.168447    0.914719
      6          1           0       -0.528105   -1.168447   -0.914719
 ---------------------------------------------------------------------

 SCF Done:  E(UB3LYP) =  -140.189580574     A.U. after    1 cycles

 The electronic state is 2-A'.
 Alpha  occ. eigenvalues --  -24.66514 -10.22765  -1.12633  -0.70709  -0.48895
 Alpha  occ. eigenvalues --   -0.44549  -0.44549  -0.35401  -0.35401  -0.17656
 Alpha virt. eigenvalues --    0.02321   0.10978   0.16584   0.16584   0.49078
 Alpha virt. eigenvalues --    0.54438   0.54438   0.68908   0.82918   0.87491
 Alpha virt. eigenvalues --    0.87491   1.00998   1.21471   1.21471   1.54158

  Beta  occ. eigenvalues --  -24.66421 -10.21919  -1.12371  -0.68772  -0.47110
  Beta  occ. eigenvalues --   -0.43979  -0.43979  -0.35167  -0.35167
  Beta virt. eigenvalues --   -0.04337   0.07589   0.11554   0.17039   0.17039
  Beta virt. eigenvalues --    0.52585   0.54800   0.54800   0.77338   0.84079
  Beta virt. eigenvalues --    0.88080   0.88080   1.02327   1.21938   1.21938

 Mulliken charges and spin densities:
               1          2
     1  H    0.102181   0.647744
     2  F   -0.338309  -0.112332
     3  C   -0.279810   0.526635
     4  H    0.171979  -0.020682
     5  H    0.171980  -0.020682
     6  H    0.171980  -0.020682
 Sum of Mulliken charges =  -0.00000   1.00000

 Dipole moment (field-independent basis, Debye):
    X=              0.0000    Y=             -1.4430    Z=             -0.0000  Tot=              1.4430
 Quadrupole moment (field-independent basis, Debye-Ang):
   XX=            -12.7835   YY=            -12.0303   ZZ=            -12.7834
   XY=             -0.0000   XZ=              0.0000   YZ=              0.0000

  Exact polarizability:  12.860  -0.000  51.891  -0.000  -0.000  12.861
 Approx polarizability:  15.421  -0.000  72.638  -0.000   0.000  15.422

 ******    1 imaginary frequencies (negative Signs) ******

                      1                      2                      3
                     A'                     A'                     A"
 Frequencies --  -1473.7788               271.3357               271.3418
 Red. masses --      1.8461                 1.1532                 1.1532
 Frc consts  --      2.3625                 0.0500                 0.0500
 IR Inten    --   2027.3371                 8.3351                 8.3351

                      4                      5                      6
                     A"                     A'                     A'
 Frequencies --    807.2530               807.2728               948.4546
 Red. masses --      1.1374                 1.1374                 1.6125
 Frc consts  --      0.4367                 0.4367                 0.8546
 IR Inten    --      0.4160                 0.4162               209.0052

                      7                      8                      9
                     A'                     A'                     A"
 Frequencies --   1203.6756              1475.8198              1475.8392
 Red. masses --      1.2562                 1.0860                 1.0860
 Frc consts  --      1.0723                 1.3936                 1.3936
 IR Inten    --     50.9691                 2.8983                 2.8987

                     10                     11                     12
                     A'                     A"                     A'
 Frequencies --   3127.5986              3271.8298              3271.8330
 Red. masses --      1.0168                 1.1152                 1.1152
 Frc consts  --      5.8602                 7.0337                 7.0338
 IR Inten    --      1.3117                12.3928                12.3930

 - Thermochemistry -
 -------------------
 Temperature   298.150 Kelvin.  Pressure   1.00000 Atm.
 Atom     1 has atomic number  1 and mass   1.00783

 Molecular mass:    35.02970 amu.
 Principal axes and moments of inertia in atomic units:
                           1         2         3
     Eigenvalues --    12.04521 112.23533 112.23543
           X           -0.00000   0.00000   1.00000
           Y            1.00000   0.00000   0.00000
           Z           -0.00000   1.00000   0.00000
 This molecule is an asymmetric top.
 Rotational symmetry number  1.
 Rotational temperatures (Kelvin)      7.19074     0.77172     0.77172
 Rotational constants (GHZ):         149.83064    16.07997    16.07996
    1 imaginary frequencies ignored.
 Zero-point vibrational energy     101277.4 (Joules/Mol)
                                   24.20587 (Kcal/Mol)
 Warning -- explicit consideration of   2 degrees of freedom as
           vibrations may cause significant error
 Vibrational temperatures:    390.39   390.40  1161.46  1161.49  1364.61
          (Kelvin)           1731.82  2123.38  2123.40  4499.92  4707.43
                             4707.44

 Zero-point correction=                           0.038575 (Hartree/Particle)
 Thermal correction to Energy=                    0.042546
 Thermal correction to Enthalpy=                  0.043491
 Thermal correction to Gibbs Free Energy=         0.014325
 Sum of electronic and zero-point Energies=           -140.151006
 Sum of electronic and thermal Energies=              -140.147034
 Sum of electronic and thermal Enthalpies=            -140.146090
 Sum of electronic and thermal Free Energies=         -140.175256

                     E (Thermal)             CV                S
                      KCal/Mol        Cal/Mol-Kelvin    Cal/Mol-Kelvin
 Total                   26.698             11.494             61.385
 Electronic               0.000              0.000              1.377
 Translational            0.889              2.981             36.591
 Rotational               0.889              2.981             19.656
 Vibrational             24.921              5.533              3.760
 Vibration     1          0.675              1.726              1.588
 Vibration     2          0.675              1.726              1.588

 Optimization completed.
    -- Stationary point found.
 Normal termination of Gaussian 16 at Tue Oct  6 16:31:20 2020.
