 Gaussian 16, Revision A.03,

 ----------------------------------------------------------------------
 #P Opt(TS,MaxCyc=50,NoEigenTest,MaxStep=10,CalcFC) B3LYP/6-31G* 5D 7F
 Integral=UltraFineGrid SCF=(NoSymm,XQC,MaxCyc=120) IOp(1/33=1)
 ----------------------------------------------------------------------

 TstMul:  Mul=     2
 TstMul:  ICh=     0
 TstMul:  Mul=     2
 Symbolic Z-matrix:
 Charge =  0 Multiplicity = 2

 SCF Done:  E(UB3LYP) =  -200.003129412     A.U. after   17 cycles
 SCF Done:  E(UB3LYP) =  -200.001294106     A.U. after   16 cycles
 SCF Done:  E(UB3LYP) =  -199.999919219     A.U. after   15 cycles
 SCF Done:  E(UB3LYP) =  -199.998931836     A.U. after   15 cycles
 SCF Done:  E(UB3LYP) =  -199.998246939     A.U. after   15 cycles
 SCF Done:  E(UB3LYP) =  -199.997781248     A.U. after   15 cycles
 SCF Done:  E(UB3LYP) =  -199.997464908     A.U. after   15 cycles
 SCF Done:  E(UB3LYP) =  -199.997246571     A.U. after   15 cycles
 SCF Done:  E(UB3LYP) =  -199.997091250     A.U. after   15 cycles
 SCF Done:  E(UB3LYP) =  -199.996975148     A.U. after   15 cycles
 SCF Done:  E(UB3LYP) =  -199.995820311     A.U. after    9 cycles
 SCF Done:  E(UB3LYP) =  -199.995803301     A.U. after    9 cycles
 SCF Done:  E(UB3LYP) =  -199.995789072     A.U. after    9 cycles
 SCF Done:  E(UB3LYP) =  -199.995777004     A.U. after   10 cycles
 SCF Done:  E(UB3LYP) =  -199.995766463     A.U. after   10 cycles
 SCF Done:  E(UB3LYP) =  -199.995757312     A.U. after   10 cycles
 SCF Done:  E(UB3LYP) =  -199.995749668     A.U. after   10 cycles
 SCF Done:  E(UB3LYP) =  -199.995743581     A.U. after   10 cycles
 SCF Done:  E(UB3LYP) =  -199.995738698     A.U. after   10 cycles
 Optimization completed.
    -- Stationary point found.
 Normal termination of Gaussian 16 at Tue Oct  6 16:37:36 2020.
 Gaussian 16:  ES64L-G16RevA.03 25-Dec-2016

 ----------------------------------------------------------------------
 #P Freq B3LYP/6-31G* 5D 7F Integral=UltraFineGrid SCF=(NoSymm,XQC,MaxC
 yc=120) IOp(1/33=1) Geom=Check Guess=Read
 ----------------------------------------------------------------------

 TstMul:  Mul=     2
 TstMul:  ICh=     0
 TstMul:  Mul=     2
 Structure from the checkpoint file:  "MN_52_hf2ts_BH76_B3LYP_631Gs.chk"
 Charge =  0 Multiplicity = 2

                         Standard orientation:
 ---------------------------------------------------------------------
 Center     Atomic      Atomic             Coordinates (Angstroms)
 Number     Number       Type             X           Y           Z
 ---------------------------------------------------------------------
      1          1           0        0.000000    0.000000   -4.260824
      2          9           0        0.000000    0.000000   -0.466208
      3          9           0        0.000000    0.000000    0.939633
 ---------------------------------------------------------------------

 SCF Done:  E(UB3LYP) =  -199.995738698     A.U. after    1 cycles

 The electronic state is 2-SG.
 Alpha  occ. eigenvalues --  -24.79106 -24.79102  -1.33536  -1.09157  -0.58725
 Alpha  occ. eigenvalues --   -0.52320  -0.52320  -0.39275  -0.39275  -0.31760
 Alpha virt. eigenvalues --   -0.12935   0.70873   1.06173   1.06173   1.08292
 Alpha virt. eigenvalues --    1.21878   1.24065   1.24065   1.26507   1.53949
 Alpha virt. eigenvalues --    1.53949   1.69343   1.69343   1.74484   1.93238

  Beta  occ. eigenvalues --  -24.79105 -24.79101  -1.33535  -1.09156  -0.58725
  Beta  occ. eigenvalues --   -0.52319  -0.52319  -0.39275  -0.39275
  Beta virt. eigenvalues --   -0.12942  -0.01521   1.02015   1.06173   1.06173
  Beta virt. eigenvalues --    1.08585   1.21922   1.24064   1.24064   1.26509
  Beta virt. eigenvalues --    1.53949   1.53949   1.69343   1.69343   1.74484

 Mulliken charges and spin densities:
               1          2
     1  H    0.000108   0.999855
     2  F   -0.000057  -0.000134
     3  F   -0.000051   0.000279
 Sum of Mulliken charges =   0.00000   1.00000

 Dipole moment (field-independent basis, Debye):
    X=              0.0000    Y=              0.0000    Z=             -0.0026  Tot=              0.0026
 Quadrupole moment (field-independent basis, Debye-Ang):
   XX=            -10.5339   YY=            -10.5339   ZZ=             -9.6082
   XY=             -0.0000   XZ=              0.0000   YZ=             -0.0000

  Exact polarizability:   2.729   0.000   2.729  -0.000   0.000   9.894
 Approx polarizability:   3.296  -0.000   3.296  -0.000  -0.000  18.872

 ******    1 imaginary frequencies (negative Signs) ******

                      1                      2                      3
                     SG                     PI                     PI
 Frequencies --    -49.2483                12.0527                12.0527
 Red. masses --      1.0331                 2.0103                 2.0103
 Frc consts  --      0.0015                 0.0002                 0.0002
 IR Inten    --      0.0046                 0.0000                 0.0000

                      4
                     SG
 Frequencies --   1055.0371
 Red. masses --     18.9982
 Frc consts  --     12.4594
 IR Inten    --      0.0020

 - Thermochemistry -
 -------------------
 Temperature   298.150 Kelvin.  Pressure   1.00000 Atm.
 Atom     1 has atomic number  1 and mass   1.00783

 Molecular mass:    39.00463 amu.
 Principal axes and moments of inertia in atomic units:
                           1         2         3
     Eigenvalues --     0.00000 137.96261 137.96261
           X            0.00000   0.00000   1.00000
           Y            0.00000   1.00000   0.00000
           Z            1.00000   0.00000   0.00000
 This molecule is a prolate symmetric top.
 Rotational symmetry number  1.
 Rotational temperature (Kelvin)      0.62781
 Rotational constant (GHZ):          13.081379
    1 imaginary frequencies ignored.
 Zero-point vibrational energy       6454.7 (Joules/Mol)
                                    1.54271 (Kcal/Mol)
 Warning -- explicit consideration of   2 degrees of freedom as
           vibrations may cause significant error
 Vibrational temperatures:     17.34    17.34  1517.96
          (Kelvin)

 Zero-point correction=                           0.002458 (Hartree/Particle)
 Thermal correction to Energy=                    0.006683
 Thermal correction to Enthalpy=                  0.007627
 Thermal correction to Gibbs Free Energy=        -0.024625
 Sum of electronic and zero-point Energies=           -199.993280
 Sum of electronic and thermal Energies=              -199.989056
 Sum of electronic and thermal Enthalpies=            -199.988112
 Sum of electronic and thermal Free Energies=         -200.020363

                     E (Thermal)             CV                S
                      KCal/Mol        Cal/Mol-Kelvin    Cal/Mol-Kelvin
 Total                    4.193              9.262             67.879
 Electronic               0.000              0.000              1.377
 Translational            0.889              2.981             36.912
 Rotational               0.592              1.987             14.235
 Vibrational              2.712              4.294             15.355
 Vibration     1          0.593              1.987              7.640
 Vibration     2          0.593              1.987              7.640

                           ! Non-Optimized Parameters !

 1\1\GINC-NODE62\Freq\UB3LYP\6-31G(d)\F2H1(2)\RPEVERATI\06-Oct-2020\0\\
 #P Freq B3LYP/6-31G* 5D 7F Integral=UltraFineGrid SCF=(NoSymm,XQC,MaxC
 yc=120) IOp(1/33=1) Geom=Check Guess=Read\\TS search on BH76.\\0,2\H,0
 .,0.,-3.65947603\F,0.,0.,0.1351396976\F,0.,0.,1.5409801464\\Version=ES
 64L-G16RevA.03\State=2-SG\HF=-199.9957387\S2=0.75\S2-1=0.\S2A=0.75\RMS
 D=2.529e-11\RMSF=3.105e-05\ZeroPoint=0.0024585\Thermal=0.0066827\Dipol
 e=0.,0.,-0.0010073\DipoleDeriv=0.0001242,0.,0.,0.,0.0001242,0.,0.,0.,-
 0.0021464,-0.000084,0.,0.,0.,-0.000084,0.,0.,0.,0.005438,-0.0000402,0.

 Normal termination of Gaussian 16 at Tue Oct  6 16:37:54 2020.
