 Gaussian 16, Revision A.03,

 ----------------------------------------------------------------------
 #P Opt(TS,MaxCyc=50,NoEigenTest,MaxStep=10,CalcFC) B3LYP/6-31G* 5D 7F
 Integral=UltraFineGrid SCF=(NoSymm,XQC,MaxCyc=120) IOp(1/33=1)
 ----------------------------------------------------------------------

 TstMul:  Mul=     2
 TstMul:  ICh=     0
 TstMul:  Mul=     2
 Symbolic Z-matrix:
 Charge =  0 Multiplicity = 2

 SCF Done:  E(UB3LYP) =  -110.009205035     A.U. after   16 cycles
 SCF Done:  E(UB3LYP) =  -110.008713486     A.U. after   15 cycles
 SCF Done:  E(UB3LYP) =  -110.008608810     A.U. after   14 cycles
 SCF Done:  E(UB3LYP) =  -110.008607202     A.U. after   11 cycles
 Optimization completed.
    -- Stationary point found.
 Normal termination of Gaussian 16 at Tue Oct  6 16:31:09 2020.
 Gaussian 16:  ES64L-G16RevA.03 25-Dec-2016

 ----------------------------------------------------------------------
 #P Freq B3LYP/6-31G* 5D 7F Integral=UltraFineGrid SCF=(NoSymm,XQC,MaxC
 yc=120) IOp(1/33=1) Geom=Check Guess=Read
 ----------------------------------------------------------------------

 TstMul:  Mul=     2
 TstMul:  ICh=     0
 TstMul:  Mul=     2
 Structure from the checkpoint file:  "MN_59_hn2ts_BH76_B3LYP_631Gs.chk"
 Charge =  0 Multiplicity = 2

                         Standard orientation:
 ---------------------------------------------------------------------
 Center     Atomic      Atomic             Coordinates (Angstroms)
 Number     Number       Type             X           Y           Z
 ---------------------------------------------------------------------
      1          7           0        0.089048   -0.648385    0.000000
      2          7           0        0.089048    0.476048    0.000000
      3          1           0       -1.246674    1.206359    0.000000
 ---------------------------------------------------------------------

 SCF Done:  E(UB3LYP) =  -110.008607202     A.U. after    1 cycles

 The electronic state is 2-A'.
 Alpha  occ. eigenvalues --  -14.44967 -14.43558  -1.11478  -0.59128  -0.48907
 Alpha  occ. eigenvalues --   -0.45745  -0.43910  -0.24630
 Alpha virt. eigenvalues --   -0.03590  -0.00651   0.40505   0.58684   0.60702
 Alpha virt. eigenvalues --    0.61709   0.64388   0.74363   0.77046   0.78631
 Alpha virt. eigenvalues --    0.92551   1.28898   1.45146   1.47152   1.52964

  Beta  occ. eigenvalues --  -14.44876 -14.42845  -1.10762  -0.56909  -0.46167
  Beta  occ. eigenvalues --   -0.45322  -0.42276
  Beta virt. eigenvalues --   -0.09451  -0.02965   0.03362   0.41014   0.59632
  Beta virt. eigenvalues --    0.60868   0.64307   0.69451   0.74731   0.78059
  Beta virt. eigenvalues --    0.82163   0.95320   1.29798   1.45947   1.48361

 Mulliken charges and spin densities:
               1          2
     1  N    0.003663   0.318455
     2  N   -0.072539  -0.043451
     3  H    0.068876   0.724996
 Sum of Mulliken charges =  -0.00000   1.00000

 Dipole moment (field-independent basis, Debye):
    X=             -0.2865    Y=              0.2932    Z=              0.0000  Tot=              0.4099
 Quadrupole moment (field-independent basis, Debye-Ang):
   XX=            -11.4077   YY=            -12.7045   ZZ=            -11.2342
   XY=             -0.1793   XZ=              0.0000   YZ=              0.0000

  Exact polarizability:  15.444  -7.314  19.789  -0.000   0.000   6.045
 Approx polarizability:  20.343 -10.330  37.555  -0.000   0.000   8.390

 ******    1 imaginary frequencies (negative Signs) ******

                      1                      2                      3
                     A'                     A'                     A'
 Frequencies --  -1167.7764               682.2906              2228.9979
 Red. masses --      1.0986                 1.3652                 9.5644
 Frc consts  --      0.8827                 0.3744                27.9980
 IR Inten    --    320.5885                 3.1796                73.5228

 - Thermochemistry -
 -------------------
 Temperature   298.150 Kelvin.  Pressure   1.00000 Atm.
 Atom     1 has atomic number  7 and mass  14.00307

 Molecular mass:    29.01397 amu.
 Principal axes and moments of inertia in atomic units:
                           1         2         3
     Eigenvalues --     5.08550  38.52890  43.61441
           X           -0.18240   0.98322   0.00000
           Y            0.98322   0.18240   0.00000
           Z            0.00000   0.00000   1.00000
 This molecule is an asymmetric top.
 Rotational symmetry number  1.
 Rotational temperatures (Kelvin)     17.03154     2.24802     1.98590
 Rotational constants (GHZ):         354.87961    46.84123    41.37947
    1 imaginary frequencies ignored.
 Zero-point vibrational energy      17413.4 (Joules/Mol)
                                    4.16190 (Kcal/Mol)
 Vibrational temperatures:    981.66  3207.03
          (Kelvin)

 Zero-point correction=                           0.006632 (Hartree/Particle)
 Thermal correction to Energy=                    0.009585
 Thermal correction to Enthalpy=                  0.010529
 Thermal correction to Gibbs Free Energy=        -0.015381
 Sum of electronic and zero-point Energies=           -110.001975
 Sum of electronic and thermal Energies=              -109.999022
 Sum of electronic and thermal Enthalpies=            -109.998078
 Sum of electronic and thermal Free Energies=         -110.023988

                     E (Thermal)             CV                S
                      KCal/Mol        Cal/Mol-Kelvin    Cal/Mol-Kelvin
 Total                    6.015              6.830             54.533
 Electronic               0.000              0.000              1.377
 Translational            0.889              2.981             36.030
 Rotational               0.889              2.981             16.798
 Vibrational              4.237              0.868              0.328

 Optimization completed.
    -- Stationary point found.

 1\1\GINC-NODE33\Freq\UB3LYP\6-31G(d)\H1N2(2)\RPEVERATI\06-Oct-2020\0\\
 #P Freq B3LYP/6-31G* 5D 7F Integral=UltraFineGrid SCF=(NoSymm,XQC,MaxC
 yc=120) IOp(1/33=1) Geom=Check Guess=Read\\TS search on BH76.\\0,2\N,0
 .1084161632,-0.6663042799,0.\N,0.1067980779,0.4581284574,0.\H,-1.22997
 39856,1.1865165331,0.\\Version=ES64L-G16RevA.03\State=2-A'\HF=-110.008
 6072\S2=0.761864\S2-1=0.\S2A=0.750016\RMSD=8.674e-10\RMSF=3.679e-05\Ze
 roPoint=0.0066324\Thermal=0.0095852\Dipole=-0.1128931,0.1151748,0.\Dip
 oleDeriv=-0.000102,0.0028919,0.,0.729534,-0.4930954,0.,0.,0.,-0.025273

 Normal termination of Gaussian 16 at Tue Oct  6 16:31:28 2020.
