 Gaussian 16, Revision A.03,

 ----------------------------------------------------------------------
 #P Opt(TS,MaxCyc=50,NoEigenTest,MaxStep=10,CalcFC) B3LYP/6-31G* 5D 7F
 Integral=UltraFineGrid SCF=(NoSymm,XQC,MaxCyc=120) IOp(1/33=1)
 ----------------------------------------------------------------------

 TstMul:  Mul=     2
 TstMul:  ICh=     0
 TstMul:  Mul=     2
 Symbolic Z-matrix:
 Charge =  0 Multiplicity = 2

 SCF Done:  E(UB3LYP) =  -100.867197824     A.U. after   10 cycles
 SCF Done:  E(UB3LYP) =  -100.868800073     A.U. after   10 cycles
 SCF Done:  E(UB3LYP) =  -100.868913772     A.U. after    9 cycles
 SCF Done:  E(UB3LYP) =  -100.868915553     A.U. after    7 cycles
 Optimization completed.
    -- Stationary point found.
 Normal termination of Gaussian 16 at Tue Oct  6 16:31:12 2020.
 Gaussian 16:  ES64L-G16RevA.03 25-Dec-2016

 ----------------------------------------------------------------------
 #P Freq B3LYP/6-31G* 5D 7F Integral=UltraFineGrid SCF=(NoSymm,XQC,MaxC
 yc=120) IOp(1/33=1) Geom=Check Guess=Read
 ----------------------------------------------------------------------

 TstMul:  Mul=     2
 TstMul:  ICh=     0
 TstMul:  Mul=     2
 Structure from the checkpoint file:  "MN_54_hfhts_BH76_B3LYP_631Gs.chk"
 Charge =  0 Multiplicity = 2

                         Standard orientation:
 ---------------------------------------------------------------------
 Center     Atomic      Atomic             Coordinates (Angstroms)
 Number     Number       Type             X           Y           Z
 ---------------------------------------------------------------------
      1          1           0        0.000000    0.000000    1.188278
      2          9           0        0.000000    0.000000    0.000000
      3          1           0        0.000000    0.000000   -1.188278
 ---------------------------------------------------------------------

 SCF Done:  E(UB3LYP) =  -100.868915553     A.U. after    1 cycles

 The electronic state is 2-SGG.
 Alpha  occ. eigenvalues --  -24.70302  -1.17120  -0.58144  -0.40598  -0.40598
 Alpha  occ. eigenvalues --   -0.19471
 Alpha virt. eigenvalues --    0.00942   0.58876   0.74042   1.14835   1.14835
 Alpha virt. eigenvalues --    1.59102   1.66336   1.77521   1.77521   1.84752
 Alpha virt. eigenvalues --    1.84752   2.31903
  Beta  occ. eigenvalues --  -24.70097  -1.16567  -0.55692  -0.40223  -0.40223
  Beta virt. eigenvalues --   -0.05375   0.06881   0.66439   0.82233   1.15223
  Beta virt. eigenvalues --    1.15223   1.59672   1.68548   1.77095   1.77095
  Beta virt. eigenvalues --    1.84836   1.84836   2.34635

 Mulliken charges and spin densities:
               1          2
     1  H    0.188809   0.558508
     2  F   -0.377617  -0.117016
     3  H    0.188809   0.558508
 Sum of Mulliken charges =   0.00000   1.00000

 Dipole moment (field-independent basis, Debye):
    X=              0.0000    Y=              0.0000    Z=              0.0000  Tot=              0.0000
 Quadrupole moment (field-independent basis, Debye-Ang):
   XX=             -6.9728   YY=             -6.9728   ZZ=             -4.7589
   XY=             -0.0000   XZ=             -0.0000   YZ=              0.0000

  Exact polarizability:   1.928  -0.000   1.928   0.000  -0.000  36.214
 Approx polarizability:   2.226  -0.000   2.226  -0.000  -0.000  53.300

 ******    1 imaginary frequencies (negative Signs) ******

                      1                      2                      3
                     SGU                    PIU                    PIU
 Frequencies --  -2331.5381               257.2772               257.2772
 Red. masses --      1.1085                 1.1085                 1.1085
 Frc consts  --      3.5504                 0.0432                 0.0432
 IR Inten    --   4426.0753                44.6230                44.6230

                      4
                     SGG
 Frequencies --   2099.7539
 Red. masses --      1.0078
 Frc consts  --      2.6180
 IR Inten    --      0.0000

 - Thermochemistry -
 -------------------
 Temperature   298.150 Kelvin.  Pressure   1.00000 Atm.
 Atom     1 has atomic number  1 and mass   1.00783

 Molecular mass:    21.01405 amu.
 Principal axes and moments of inertia in atomic units:
                           1         2         3
     Eigenvalues --     0.00000  10.16364  10.16364
           X           -0.00000   0.70711   0.70711
           Y           -0.00000   0.70711  -0.70711
           Z            1.00000   0.00000   0.00000
 This molecule is a prolate symmetric top.
 Rotational symmetry number  2.
 Rotational temperature (Kelvin)      8.52194
 Rotational constant (GHZ):         177.568419
    1 imaginary frequencies ignored.
 Zero-point vibrational energy      15637.0 (Joules/Mol)
                                    3.73734 (Kcal/Mol)
 Warning -- explicit consideration of   2 degrees of freedom as
           vibrations may cause significant error
 Vibrational temperatures:    370.16   370.16  3021.08
          (Kelvin)

 Zero-point correction=                           0.005956 (Hartree/Particle)
 Thermal correction to Energy=                    0.009269
 Thermal correction to Enthalpy=                  0.010214
 Thermal correction to Gibbs Free Energy=        -0.012346
 Sum of electronic and zero-point Energies=           -100.862960
 Sum of electronic and thermal Energies=              -100.859646
 Sum of electronic and thermal Enthalpies=            -100.858702
 Sum of electronic and thermal Free Energies=         -100.881262

                     E (Thermal)             CV                S
                      KCal/Mol        Cal/Mol-Kelvin    Cal/Mol-Kelvin
 Total                    5.817              8.477             47.481
 Electronic               0.000              0.000              1.377
 Translational            0.889              2.981             35.068
 Rotational               0.592              1.987              7.674
 Vibrational              4.335              3.509              3.361
 Vibration     1          0.667              1.750              1.680
 Vibration     2          0.667              1.750              1.680

 Optimization completed.
    -- Stationary point found.

 1\1\GINC-NODE54\Freq\UB3LYP\6-31G(d)\F1H2(2)\RPEVERATI\06-Oct-2020\0\\
 #P Freq B3LYP/6-31G* 5D 7F Integral=UltraFineGrid SCF=(NoSymm,XQC,MaxC
 yc=120) IOp(1/33=1) Geom=Check Guess=Read\\TS search on BH76.\\0,2\H,0
 .,0.,1.1882782994\F,0.,0.,0.\H,0.,0.,-1.1882782994\\Version=ES64L-G16R
 evA.03\State=2-SGG\HF=-100.8689156\S2=0.761479\S2-1=0.\S2A=0.750002\RM
 SD=5.416e-33\RMSF=9.151e-06\ZeroPoint=0.0059558\Thermal=0.0092694\Dipo
 le=0.,0.,0.\DipoleDeriv=0.1444059,0.,0.,0.,0.1444059,0.,0.,0.,-1.43818
 58,-0.2888118,0.,0.,0.,-0.2888118,0.,0.,0.,2.8763715,0.1444059,0.,0.,0

 Normal termination of Gaussian 16 at Tue Oct  6 16:31:34 2020.
