 Gaussian 16, Revision A.03,
 Gaussian 16:  ES64L-G16RevA.03 25-Dec-2016

 ----------------------------------------------------------------------
 #P Opt(MaxCyc=100) B3LYP/6-31G* 5D 7F Integral=UltraFineGrid SCF=(NoSy
 mm,XQC,MaxCyc=120) IOp(1/33=1)
 ----------------------------------------------------------------------

 TstMul:  Mul=     2
 TstMul:  ICh=     0
 TstMul:  Mul=     2
 Symbolic Z-matrix:
 Charge =  0 Multiplicity = 2

 SCF Done:  E(UB3LYP) =  -113.847646102     A.U. after   14 cycles
 SCF Done:  E(UB3LYP) =  -113.847827346     A.U. after   11 cycles
 SCF Done:  E(UB3LYP) =  -113.847830122     A.U. after   10 cycles
 Optimization completed.
    -- Stationary point found.

                         Standard orientation:
 ---------------------------------------------------------------------
 Center     Atomic      Atomic             Coordinates (Angstroms)
 Number     Number       Type             X           Y           Z
 ---------------------------------------------------------------------
      1          1           0       -0.876752    1.213998    0.000000
      2          6           0        0.062625    0.589127    0.000000
      3          8           0        0.062625   -0.593595    0.000000
 ---------------------------------------------------------------------

 The electronic state is 2-A'.
 Alpha  occ. eigenvalues --  -19.21362 -10.28802  -1.10651  -0.61654  -0.49741
 Alpha  occ. eigenvalues --   -0.43435  -0.42955  -0.21628
 Alpha virt. eigenvalues --   -0.04296   0.12533   0.23711   0.50873   0.51826
 Alpha virt. eigenvalues --    0.64378   0.70461   0.80471   0.86989   0.93724
 Alpha virt. eigenvalues --    0.97655   1.49143   1.50802   1.51203   1.51436

  Beta  occ. eigenvalues --  -19.20503 -10.27837  -1.09011  -0.58894  -0.47359
  Beta  occ. eigenvalues --   -0.42145  -0.38134
  Beta virt. eigenvalues --   -0.07315  -0.02554   0.14678   0.24769   0.51792
  Beta virt. eigenvalues --    0.56106   0.66131   0.72397   0.82633   0.88423
  Beta virt. eigenvalues --    0.94143   1.00287   1.50702   1.52215   1.53548

 Mulliken charges and spin densities:
               1          2
     1  H    0.148262   0.168741
     2  C    0.086417   0.568836
     3  O   -0.234678   0.262423
 Sum of Mulliken charges =  -0.00000   1.00000

 Dipole moment (field-independent basis, Debye):
    X=             -0.8908    Y=              1.2736    Z=              0.0000  Tot=              1.5542
 Quadrupole moment (field-independent basis, Debye-Ang):
   XX=            -11.0979   YY=            -11.3187   ZZ=            -10.5988
   XY=             -0.9637   XZ=              0.0000   YZ=              0.0000

 Normal termination of Gaussian 16 at Tue Oct  6 16:00:23 2020.
