 Gaussian 16, Revision A.03,

 ----------------------------------------------------------------------
 #P Opt(TS,MaxCyc=50,NoEigenTest,MaxStep=10,CalcFC) B3LYP/6-31G* 5D 7F
 Integral=UltraFineGrid SCF=(NoSymm,XQC,MaxCyc=120) IOp(1/33=1)
 ----------------------------------------------------------------------

 TstMul:  Mul=     2
 TstMul:  ICh=     0
 TstMul:  Mul=     2
 Symbolic Z-matrix:
 Charge =  0 Multiplicity = 2

 SCF Done:  E(UB3LYP) =  -113.808871699     A.U. after   15 cycles
 SCF Done:  E(UB3LYP) =  -113.808183064     A.U. after   14 cycles
 SCF Done:  E(UB3LYP) =  -113.807676722     A.U. after   14 cycles
 SCF Done:  E(UB3LYP) =  -113.807322728     A.U. after   13 cycles
 SCF Done:  E(UB3LYP) =  -113.807094133     A.U. after   13 cycles
 SCF Done:  E(UB3LYP) =  -113.806964029     A.U. after   13 cycles
 SCF Done:  E(UB3LYP) =  -113.806907441     A.U. after   13 cycles
 SCF Done:  E(UB3LYP) =  -113.806900177     A.U. after   12 cycles
 SCF Done:  E(UB3LYP) =  -113.806899663     A.U. after    9 cycles
 Optimization completed.
    -- Stationary point found.
 Normal termination of Gaussian 16 at Tue Oct  6 16:31:47 2020.
 Gaussian 16:  ES64L-G16RevA.03 25-Dec-2016

 ----------------------------------------------------------------------
 #P Freq B3LYP/6-31G* 5D 7F Integral=UltraFineGrid SCF=(NoSymm,XQC,MaxC
 yc=120) IOp(1/33=1) Geom=Check Guess=Read
 ----------------------------------------------------------------------

 TstMul:  Mul=     2
 TstMul:  ICh=     0
 TstMul:  Mul=     2
 Structure from the checkpoint file:  "MN_51_hcots_BH76_B3LYP_631Gs.chk"
 Charge =  0 Multiplicity = 2

                         Standard orientation:
 ---------------------------------------------------------------------
 Center     Atomic      Atomic             Coordinates (Angstroms)
 Number     Number       Type             X           Y           Z
 ---------------------------------------------------------------------
      1          1           0       -1.811156    1.536661    0.000000
      2          6           0        0.129368    0.541408    0.000000
      3          8           0        0.129368   -0.598138    0.000000
 ---------------------------------------------------------------------

 SCF Done:  E(UB3LYP) =  -113.806899663     A.U. after    1 cycles

 The electronic state is 2-A'.
 Alpha  occ. eigenvalues --  -19.25333 -10.30640  -1.15795  -0.57138  -0.47221
 Alpha  occ. eigenvalues --   -0.46758  -0.39656  -0.29016
 Alpha virt. eigenvalues --   -0.02575  -0.01064   0.25854   0.50840   0.52849
 Alpha virt. eigenvalues --    0.63380   0.73551   0.77265   0.83396   0.91613
 Alpha virt. eigenvalues --    0.93152   1.47746   1.48307   1.50602   1.53640

  Beta  occ. eigenvalues --  -19.25221 -10.30496  -1.15595  -0.56889  -0.46649
  Beta  occ. eigenvalues --   -0.46567  -0.37688
  Beta virt. eigenvalues --   -0.09760  -0.02338   0.01494   0.25823   0.50883
  Beta virt. eigenvalues --    0.53474   0.64321   0.74658   0.83256   0.91018
  Beta virt. eigenvalues --    0.91654   0.94667   1.47930   1.48570   1.50716

 Mulliken charges and spin densities:
               1          2
     1  H   -0.004033   0.926318
     2  C    0.160987   0.037868
     3  O   -0.156955   0.035814
 Sum of Mulliken charges =  -0.00000   1.00000

 Dipole moment (field-independent basis, Debye):
    X=              0.0252    Y=             -0.0319    Z=              0.0000  Tot=              0.0406
 Quadrupole moment (field-independent basis, Debye-Ang):
   XX=            -11.2888   YY=            -13.1341   ZZ=            -11.1183
   XY=              0.0333   XZ=              0.0000   YZ=              0.0000

  Exact polarizability:  15.236  -4.103  15.115   0.000   0.000   7.910
 Approx polarizability:  18.863  -4.166  25.877   0.000   0.000  10.931

 ******    1 imaginary frequencies (negative Signs) ******

                      1                      2                      3
                     A'                     A'                     A'
 Frequencies --   -342.5977               234.1933              2186.8008
 Red. masses --      1.0773                 1.5972                13.3801
 Frc consts  --      0.0745                 0.0516                37.6987
 IR Inten    --      0.8777                 0.8102               102.7944

 - Thermochemistry -
 -------------------
 Temperature   298.150 Kelvin.  Pressure   1.00000 Atm.
 Atom     1 has atomic number  1 and mass   1.00783

 Molecular mass:    29.00274 amu.
 Principal axes and moments of inertia in atomic units:
                           1         2         3
     Eigenvalues --     9.23000  45.06149  54.29148
           X           -0.32786   0.94473   0.00000
           Y            0.94473   0.32786   0.00000
           Z            0.00000   0.00000   1.00000
 This molecule is an asymmetric top.
 Rotational symmetry number  1.
 Rotational temperatures (Kelvin)      9.38396     1.92213     1.59535
 Rotational constants (GHZ):         195.53000    40.05064    33.24170
    1 imaginary frequencies ignored.
 Zero-point vibrational energy      14480.8 (Joules/Mol)
                                    3.46098 (Kcal/Mol)
 Warning -- explicit consideration of   1 degrees of freedom as
           vibrations may cause significant error
 Vibrational temperatures:    336.95  3146.32
          (Kelvin)

 Zero-point correction=                           0.005515 (Hartree/Particle)
 Thermal correction to Energy=                    0.008857
 Thermal correction to Enthalpy=                  0.009802
 Thermal correction to Gibbs Free Energy=        -0.017289
 Sum of electronic and zero-point Energies=           -113.801384
 Sum of electronic and thermal Energies=              -113.798042
 Sum of electronic and thermal Enthalpies=            -113.797098
 Sum of electronic and thermal Free Energies=         -113.824189

                     E (Thermal)             CV                S
                      KCal/Mol        Cal/Mol-Kelvin    Cal/Mol-Kelvin
 Total                    5.558              7.756             57.017
 Electronic               0.000              0.000              1.377
 Translational            0.889              2.981             36.028
 Rotational               0.889              2.981             17.764
 Vibrational              3.781              1.794              1.847
 Vibration     1          0.654              1.789              1.847

 Optimization completed.
    -- Stationary point found.
 Normal termination of Gaussian 16 at Tue Oct  6 16:32:08 2020.
