 Gaussian 16, Revision A.03,

 ----------------------------------------------------------------------
 #P Opt(TS,MaxCyc=50,NoEigenTest,MaxStep=10,CalcFC) B3LYP/6-31G* 5D 7F
 Integral=UltraFineGrid SCF=(NoSymm,XQC,MaxCyc=120) IOp(1/33=1)
 ----------------------------------------------------------------------

 TstMul:  Mul=     2
 TstMul:  ICh=     0
 TstMul:  Mul=     2
 Symbolic Z-matrix:
 Charge =  0 Multiplicity = 2

 SCF Done:  E(UB3LYP) =  -185.135871844     A.U. after   19 cycles
 SCF Done:  E(UB3LYP) =  -185.136480754     A.U. after   17 cycles
 SCF Done:  E(UB3LYP) =  -185.136506864     A.U. after   15 cycles
 SCF Done:  E(UB3LYP) =  -185.136507296     A.U. after    9 cycles
 Optimization completed.
    -- Stationary point found.
 Normal termination of Gaussian 16 at Tue Oct  6 16:31:50 2020.
 Gaussian 16:  ES64L-G16RevA.03 25-Dec-2016

 ----------------------------------------------------------------------
 #P Freq B3LYP/6-31G* 5D 7F Integral=UltraFineGrid SCF=(NoSymm,XQC,MaxC
 yc=120) IOp(1/33=1) Geom=Check Guess=Read
 ----------------------------------------------------------------------

 TstMul:  Mul=     2
 TstMul:  ICh=     0
 TstMul:  Mul=     2
 Structure from the checkpoint file:  "MN_68_n2ohts_BH76_B3LYP_631Gs.chk"
 Charge =  0 Multiplicity = 2

                         Standard orientation:
 ---------------------------------------------------------------------
 Center     Atomic      Atomic             Coordinates (Angstroms)
 Number     Number       Type             X           Y           Z
 ---------------------------------------------------------------------
      1          1           0       -0.360784   -2.015393   -0.000000
      2          8           0       -0.863352   -0.623576   -0.000000
      3          7           0       -0.000000    0.257941    0.000000
      4          7           0        1.038229    0.742630    0.000000
 ---------------------------------------------------------------------

 SCF Done:  E(UB3LYP) =  -185.136507296     A.U. after    1 cycles

 The electronic state is 2-A'.
 Alpha  occ. eigenvalues --  -19.27030 -14.54607 -14.43962  -1.22451  -1.07198
 Alpha  occ. eigenvalues --   -0.64522  -0.55373  -0.54635  -0.48511  -0.38541
 Alpha  occ. eigenvalues --   -0.35084  -0.22419
 Alpha virt. eigenvalues --   -0.05373  -0.03138   0.15066   0.44387   0.57841
 Alpha virt. eigenvalues --    0.59911   0.60105   0.68723   0.71092   0.74006
 Alpha virt. eigenvalues --    0.74212   0.76265   0.92641   0.94038   1.10962

  Beta  occ. eigenvalues --  -19.26973 -14.54432 -14.43347  -1.21900  -1.06457
  Beta  occ. eigenvalues --   -0.63510  -0.54361  -0.54267  -0.47184  -0.36292
  Beta  occ. eigenvalues --   -0.34772
  Beta virt. eigenvalues --   -0.09426  -0.02567  -0.00095   0.15680   0.44862
  Beta virt. eigenvalues --    0.60135   0.60291   0.61239   0.71247   0.74085
  Beta virt. eigenvalues --    0.74344   0.76108   0.78394   0.92667   0.94545

 Mulliken charges and spin densities:
               1          2
     1  H    0.048053   0.727591
     2  O   -0.376039  -0.098419
     3  N    0.421646   0.067751
     4  N   -0.093660   0.303078
 Sum of Mulliken charges =  -0.00000   1.00000

 Dipole moment (field-independent basis, Debye):
    X=             -0.1406    Y=             -0.0881    Z=              0.0000  Tot=              0.1659
 Quadrupole moment (field-independent basis, Debye-Ang):
   XX=            -18.8843   YY=            -17.4313   ZZ=            -16.3525
   XY=             -1.5441   XZ=              0.0000   YZ=             -0.0000

  Exact polarizability:  21.969  12.155  39.555   0.000   0.000   7.509
 Approx polarizability:  53.793  35.108  73.235  -0.000   0.000  10.340

 ******    1 imaginary frequencies (negative Signs) ******

                      1                      2                      3
                     A'                     A'                     A"
 Frequencies --  -1336.2325               469.4327               571.6080
 Red. masses --      1.4619                 1.3456                 4.6075
 Frc consts  --      1.5379                 0.1747                 0.8870
 IR Inten    --    720.6013                11.9983                 6.6833

                      4                      5                      6
                     A'                     A'                     A'
 Frequencies --    813.3476              1215.9393              2173.4221
 Red. masses --      2.5468                 5.8757                14.0169
 Frc consts  --      0.9926                 5.1184                39.0113
 IR Inten    --      0.8458                40.2985               276.1217

 - Thermochemistry -
 -------------------
 Temperature   298.150 Kelvin.  Pressure   1.00000 Atm.
 Atom     1 has atomic number  1 and mass   1.00783

 Molecular mass:    45.00889 amu.
 Principal axes and moments of inertia in atomic units:
                           1         2         3
     Eigenvalues --     8.80993 155.54041 164.35034
           X            0.77498  -0.63199   0.00000
           Y            0.63199   0.77498   0.00000
           Z            0.00000   0.00000   1.00000
 This molecule is an asymmetric top.
 Rotational symmetry number  1.
 Rotational temperatures (Kelvin)      9.83140     0.55686     0.52701
 Rotational constants (GHZ):         204.85304    11.60304    10.98106
    1 imaginary frequencies ignored.
 Zero-point vibrational energy      31364.6 (Joules/Mol)
                                    7.49632 (Kcal/Mol)
 Warning -- explicit consideration of   2 degrees of freedom as
           vibrations may cause significant error
 Vibrational temperatures:    675.41   822.42  1170.23  1749.47  3127.07
          (Kelvin)

 Zero-point correction=                           0.011946 (Hartree/Particle)
 Thermal correction to Energy=                    0.015293
 Thermal correction to Enthalpy=                  0.016238
 Thermal correction to Gibbs Free Energy=        -0.012385
 Sum of electronic and zero-point Energies=           -185.124561
 Sum of electronic and thermal Energies=              -185.121214
 Sum of electronic and thermal Enthalpies=            -185.120270
 Sum of electronic and thermal Free Energies=         -185.148892

                     E (Thermal)             CV                S
                      KCal/Mol        Cal/Mol-Kelvin    Cal/Mol-Kelvin
 Total                    9.597              9.202             60.241
 Electronic               0.000              0.000              1.377
 Translational            0.889              2.981             37.338
 Rotational               0.889              2.981             20.049
 Vibrational              7.819              3.240              1.476
 Vibration     1          0.827              1.318              0.739
 Vibration     2          0.928              1.093              0.501

 Optimization completed.
    -- Stationary point found.
 Normal termination of Gaussian 16 at Tue Oct  6 16:32:15 2020.
