 Gaussian 16, Revision A.03,
 Gaussian 16:  ES64L-G16RevA.03 25-Dec-2016

 ----------------------------------------------------------------------
 #P Opt(MaxCyc=100) B3LYP/6-31G* 5D 7F Integral=UltraFineGrid SCF=(NoSy
 mm,XQC,MaxCyc=120) IOp(1/33=1)
 ----------------------------------------------------------------------

 TstMul:  Mul=     1
 TstMul:  ICh=    -1
 TstMul:  Mul=     1
 Symbolic Z-matrix:
 Charge = -1 Multiplicity = 1

 SCF Done:  E(RB3LYP) =  -215.480042922     A.U. after   14 cycles
 SCF Done:  E(RB3LYP) =  -215.482841006     A.U. after   13 cycles
 SCF Done:  E(RB3LYP) =  -215.484721566     A.U. after   13 cycles
 SCF Done:  E(RB3LYP) =  -215.485915832     A.U. after   13 cycles
 SCF Done:  E(RB3LYP) =  -215.486593086     A.U. after   13 cycles
 SCF Done:  E(RB3LYP) =  -215.486827100     A.U. after   12 cycles
 SCF Done:  E(RB3LYP) =  -215.486893357     A.U. after   12 cycles
 SCF Done:  E(RB3LYP) =  -215.486961593     A.U. after   11 cycles
 SCF Done:  E(RB3LYP) =  -215.487011860     A.U. after   12 cycles
 SCF Done:  E(RB3LYP) =  -215.487028295     A.U. after   11 cycles
 SCF Done:  E(RB3LYP) =  -215.488670802     A.U. after   12 cycles
 SCF Done:  E(RB3LYP) =  -215.489600722     A.U. after   13 cycles
 SCF Done:  E(RB3LYP) =  -215.485297610     A.U. after   13 cycles
 SCF Done:  E(RB3LYP) =  -215.491543389     A.U. after   12 cycles
 SCF Done:  E(RB3LYP) =  -215.491910942     A.U. after   12 cycles
 SCF Done:  E(RB3LYP) =  -215.492371214     A.U. after   12 cycles
 SCF Done:  E(RB3LYP) =  -215.492458698     A.U. after   11 cycles
 SCF Done:  E(RB3LYP) =  -215.492198330     A.U. after   12 cycles
 SCF Done:  E(RB3LYP) =  -215.492501589     A.U. after   10 cycles
 SCF Done:  E(RB3LYP) =  -215.492502469     A.U. after    8 cycles
 Optimization completed.
    -- Stationary point found.

                         Standard orientation:
 ---------------------------------------------------------------------
 Center     Atomic      Atomic             Coordinates (Angstroms)
 Number     Number       Type             X           Y           Z
 ---------------------------------------------------------------------
      1          9           0        1.629795    0.453067    0.021570
      2          6           0        0.591181   -0.521076   -0.024964
      3          1           0        0.701570   -1.059672   -0.983257
      4          1           0        0.795292   -1.247973    0.781436
      5          1           0       -0.491344   -0.091296    0.079142
      6          8           0       -2.129395    0.129012    0.112517
      7          1           0       -2.185598    0.415697   -0.821810
 ---------------------------------------------------------------------

 The electronic state is 1-A.
 Alpha  occ. eigenvalues --  -24.46126 -18.74763 -10.01866  -0.96356  -0.57172
 Alpha  occ. eigenvalues --   -0.47417  -0.26707  -0.26161  -0.24169  -0.13630
 Alpha  occ. eigenvalues --   -0.12634  -0.06844   0.07856   0.08031
 Alpha virt. eigenvalues --    0.29656   0.32218   0.34562   0.36949   0.51688
 Alpha virt. eigenvalues --    0.72324   0.75147   0.77761   1.03368   1.05532
 Alpha virt. eigenvalues --    1.10024   1.14785   1.20331   1.26332   1.34380

 Mulliken charges:
               1
     1  F   -0.408739
     2  C   -0.172087
     3  H    0.046212
     4  H    0.049159
     5  H    0.254746
     6  O   -0.991915
     7  H    0.222625
 Sum of Mulliken charges =  -1.00000

 Dipole moment (field-independent basis, Debye):
    X=              5.5625    Y=             -0.8604    Z=             -1.2998  Tot=              5.7768
 Quadrupole moment (field-independent basis, Debye-Ang):
   XX=            -41.7457   YY=            -20.7478   ZZ=            -19.2464
   XY=             -0.3981   XZ=              2.8828   YZ=             -0.6466

 Normal termination of Gaussian 16 at Tue Oct  6 16:12:57 2020.
