 Gaussian 16, Revision A.03,
 Gaussian 16:  ES64L-G16RevA.03 25-Dec-2016

 ----------------------------------------------------------------------
 #P Opt(MaxCyc=100) B3LYP/6-31G* 5D 7F Integral=UltraFineGrid SCF=(NoSy
 mm,XQC,MaxCyc=120) IOp(1/33=1)
 ----------------------------------------------------------------------

 TstMul:  Mul=     1
 TstMul:  ICh=    -1
 TstMul:  Mul=     1
 Symbolic Z-matrix:
 Charge = -1 Multiplicity = 1

 SCF Done:  E(RB3LYP) =  -215.554460492     A.U. after   12 cycles
 SCF Done:  E(RB3LYP) =  -215.554951159     A.U. after   11 cycles
 SCF Done:  E(RB3LYP) =  -215.556458039     A.U. after   11 cycles
 SCF Done:  E(RB3LYP) =  -215.556694750     A.U. after   11 cycles
 SCF Done:  E(RB3LYP) =  -215.558707323     A.U. after   12 cycles
 SCF Done:  E(RB3LYP) =  -215.559724354     A.U. after   10 cycles
 SCF Done:  E(RB3LYP) =  -215.559912096     A.U. after   10 cycles
 SCF Done:  E(RB3LYP) =  -215.559929328     A.U. after   10 cycles
 SCF Done:  E(RB3LYP) =  -215.559942582     A.U. after    8 cycles
 SCF Done:  E(RB3LYP) =  -215.559945069     A.U. after    8 cycles
 Optimization completed.
    -- Stationary point found.

                         Standard orientation:
 ---------------------------------------------------------------------
 Center     Atomic      Atomic             Coordinates (Angstroms)
 Number     Number       Type             X           Y           Z
 ---------------------------------------------------------------------
      1          6           0       -1.255978   -0.376654   -0.000056
      2          8           0       -0.480310    0.740358    0.000057
      3          1           0       -2.351112   -0.139817   -0.008066
      4          1           0       -1.112249   -1.062582   -0.880727
      5          1           0       -1.124133   -1.055166    0.888504
      6          1           0        0.689356    0.302428    0.000231
      7          9           0        1.697387   -0.189756   -0.000007
 ---------------------------------------------------------------------

 The electronic state is 1-A.
 Alpha  occ. eigenvalues --  -24.30576 -18.83628 -10.00526  -0.79969  -0.71355
 Alpha  occ. eigenvalues --   -0.42976  -0.23913  -0.20403  -0.18178  -0.12163
 Alpha  occ. eigenvalues --   -0.04660  -0.04626   0.00111   0.00966
 Alpha virt. eigenvalues --    0.29943   0.36024   0.37073   0.40930   0.54456
 Alpha virt. eigenvalues --    0.78336   0.78844   0.81575   0.94248   1.03339
 Alpha virt. eigenvalues --    1.04348   1.10234   1.23002   1.23664   1.24333

 Mulliken charges:
               1
     1  C   -0.078857
     2  O   -0.731077
     3  H    0.011608
     4  H    0.016370
     5  H    0.015631
     6  H    0.472629
     7  F   -0.706304
 Sum of Mulliken charges =  -1.00000

 Dipole moment (field-independent basis, Debye):
    X=             -1.9381    Y=             -0.9672    Z=             -0.0022  Tot=              2.1660
 Quadrupole moment (field-independent basis, Debye-Ang):
   XX=            -30.3206   YY=            -22.7658   ZZ=            -20.6314
   XY=              1.8509   XZ=              0.0037   YZ=              0.0032

 Normal termination of Gaussian 16 at Tue Oct  6 16:02:33 2020.
