 Gaussian 16, Revision A.03,

 ----------------------------------------------------------------------
 #P Opt(TS,MaxCyc=50,NoEigenTest,MaxStep=10,CalcFC) B3LYP/6-31G* 5D 7F
 Integral=UltraFineGrid SCF=(NoSymm,XQC,MaxCyc=120) IOp(1/33=1)
 ----------------------------------------------------------------------

 TstMul:  Mul=     1
 TstMul:  ICh=    -1
 TstMul:  Mul=     1
 Symbolic Z-matrix:
 Charge = -1 Multiplicity = 1

 SCF Done:  E(RB3LYP) =  -215.475859140     A.U. after   12 cycles
 SCF Done:  E(RB3LYP) =  -215.476458828     A.U. after   12 cycles
 SCF Done:  E(RB3LYP) =  -215.476467997     A.U. after    9 cycles
 SCF Done:  E(RB3LYP) =  -215.476468131     A.U. after    8 cycles
 Optimization completed.
    -- Stationary point found.
 Normal termination of Gaussian 16 at Tue Oct  6 16:31:23 2020.
 Gaussian 16:  ES64L-G16RevA.03 25-Dec-2016

 ----------------------------------------------------------------------
 #P Freq B3LYP/6-31G* 5D 7F Integral=UltraFineGrid SCF=(NoSymm,XQC,MaxC
 yc=120) IOp(1/33=1) Geom=Check Guess=Read
 ----------------------------------------------------------------------

 TstMul:  Mul=     1
 TstMul:  ICh=    -1
 TstMul:  Mul=     1
 Structure from the checkpoint file:  "MN_63_hoch3fts_BH76_B3LYP_631Gs.chk"
 Charge = -1 Multiplicity = 1

                         Standard orientation:
 ---------------------------------------------------------------------
 Center     Atomic      Atomic             Coordinates (Angstroms)
 Number     Number       Type             X           Y           Z
 ---------------------------------------------------------------------
      1          9           0        1.847831   -0.020157   -0.000006
      2          6           0        0.075617    0.026437   -0.000000
      3          1           0        0.037445    1.103700    0.003126
      4          1           0        0.023439   -0.500573   -0.939058
      5          1           0        0.023427   -0.505967    0.936022
      6          8           0       -1.886219    0.097979    0.000007
      7          1           0       -2.078735   -0.858197   -0.000084
 ---------------------------------------------------------------------

 SCF Done:  E(RB3LYP) =  -215.476468131     A.U. after    1 cycles

 The electronic state is 1-A.
 Alpha  occ. eigenvalues --  -24.30524 -18.81274 -10.00791  -0.77867  -0.64055
 Alpha  occ. eigenvalues --   -0.44508  -0.21720  -0.21649  -0.13386  -0.09414
 Alpha  occ. eigenvalues --   -0.03482  -0.03319   0.02402   0.02574
 Alpha virt. eigenvalues --    0.29388   0.31171   0.37007   0.37476   0.37768
 Alpha virt. eigenvalues --    0.77579   0.78327   0.89505   1.02566   1.08417
 Alpha virt. eigenvalues --    1.10651   1.12872   1.19789   1.22699   1.34788

 Mulliken charges:
               1
     1  F   -0.618805
     2  C   -0.093072
     3  H    0.123919
     4  H    0.111392
     5  H    0.111259
     6  O   -0.897685
     7  H    0.262994
 Sum of Mulliken charges =  -1.00000

 Dipole moment (field-independent basis, Debye):
    X=              0.3915    Y=             -1.2180    Z=             -0.0001  Tot=              1.2794
 Quadrupole moment (field-independent basis, Debye-Ang):
   XX=            -40.4503   YY=            -18.1592   ZZ=            -19.5929
   XY=              3.0336   XZ=              0.0003   YZ=              0.0003

  Exact polarizability:  39.247   2.347  19.915   0.001  -0.000  15.659
 Approx polarizability:  60.539   0.844  26.086   0.000  -0.000  19.151

 ******    1 imaginary frequencies (negative Signs) ******

                      1                      2                      3
                      A                      A                      A
 Frequencies --   -475.6115               204.9465               302.1528
 Red. masses --     10.3555                 1.0527                 3.2479
 Frc consts  --      1.3802                 0.0261                 0.1747
 IR Inten    --    831.9474                46.3956                16.3625

                      4                      5                      6
                      A                      A                      A
 Frequencies --    324.9898               355.2117               785.3129
 Red. masses --      4.4366                12.8658                 1.1401
 Frc consts  --      0.2761                 0.9564                 0.4143
 IR Inten    --     24.5569                 5.9886                32.7501

                      7                      8                      9
                      A                      A                      A
 Frequencies --   1023.1943              1066.1801              1148.7925
 Red. masses --      1.0213                 1.0454                 1.0655
 Frc consts  --      0.6300                 0.7001                 0.8285
 IR Inten    --      0.1723                 1.1609                 4.8126

                     10                     11                     12
                      A                      A                      A
 Frequencies --   1381.8840              1385.1790              3135.6902
 Red. masses --      1.1259                 1.1163                 1.0085
 Frc consts  --      1.2667                 1.2620                 5.8422
 IR Inten    --      1.1458                 1.6693                 0.2284

                     13                     14                     15
                      A                      A                      A
 Frequencies --   3316.7095              3322.8753              3614.7117
 Red. masses --      1.1289                 1.1268                 1.0676
 Frc consts  --      7.3165                 7.3302                 8.2187
 IR Inten    --     51.8008                42.4103                79.2252

 - Thermochemistry -
 -------------------
 Temperature   298.150 Kelvin.  Pressure   1.00000 Atm.
 Atom     1 has atomic number  9 and mass  18.99840

 Molecular mass:    51.02462 amu.
 Principal axes and moments of inertia in atomic units:
                           1         2         3
     Eigenvalues --    15.65080 456.07922 459.07608
           X            0.99988   0.01524   0.00000
           Y           -0.01524   0.99988  -0.00000
           Z           -0.00000   0.00000   1.00000
 This molecule is an asymmetric top.
 Rotational symmetry number  1.
 Rotational temperatures (Kelvin)      5.53415     0.18991     0.18867
 Rotational constants (GHZ):         115.31300     3.95708     3.93125
    1 imaginary frequencies ignored.
 Zero-point vibrational energy     127808.0 (Joules/Mol)
                                   30.54685 (Kcal/Mol)
 Warning -- explicit consideration of   4 degrees of freedom as
           vibrations may cause significant error
 Vibrational temperatures:    294.87   434.73   467.59   511.07  1129.89
          (Kelvin)           1472.15  1534.00  1652.86  1988.22  1992.96
                             4511.56  4772.01  4780.88  5200.76

 Zero-point correction=                           0.048679 (Hartree/Particle)
 Thermal correction to Energy=                    0.053409
 Thermal correction to Enthalpy=                  0.054353
 Thermal correction to Gibbs Free Energy=         0.022611
 Sum of electronic and zero-point Energies=           -215.427789
 Sum of electronic and thermal Energies=              -215.423059
 Sum of electronic and thermal Enthalpies=            -215.422115
 Sum of electronic and thermal Free Energies=         -215.453858

                     E (Thermal)             CV                S
                      KCal/Mol        Cal/Mol-Kelvin    Cal/Mol-Kelvin
 Total                   33.515             14.457             66.809
 Electronic               0.000              0.000              0.000
 Translational            0.889              2.981             37.712
 Rotational               0.889              2.981             22.709
 Vibrational             31.737              8.495              6.387
 Vibration     1          0.640              1.833              2.088
 Vibration     2          0.694              1.670              1.405
 Vibration     3          0.709              1.625              1.285
 Vibration     4          0.731              1.565              1.143

                           ! Non-Optimized Parameters !
 Normal termination of Gaussian 16 at Tue Oct  6 16:31:51 2020.
