 Gaussian 16, Revision A.03,
 Gaussian 16:  ES64L-G16RevA.03 25-Dec-2016

 ----------------------------------------------------------------------
 #P Opt(MaxCyc=100) B3LYP/6-31G* 5D 7F Integral=UltraFineGrid SCF=(NoSy
 mm,XQC,MaxCyc=120) IOp(1/33=1)
 ----------------------------------------------------------------------

 TstMul:  Mul=     1
 TstMul:  ICh=     0
 TstMul:  Mul=     1
 Symbolic Z-matrix:
 Charge =  0 Multiplicity = 1

 SCF Done:  E(RB3LYP) =  -184.655721582     A.U. after   12 cycles
 SCF Done:  E(RB3LYP) =  -184.656235159     A.U. after    9 cycles
 SCF Done:  E(RB3LYP) =  -184.656242853     A.U. after    8 cycles
 Optimization completed.
    -- Stationary point found.

                         Standard orientation:
 ---------------------------------------------------------------------
 Center     Atomic      Atomic             Coordinates (Angstroms)
 Number     Number       Type             X           Y           Z
 ---------------------------------------------------------------------
      1          7           0        0.000000    0.000000   -1.207218
      2          7           0        0.000000    0.000000   -0.072881
      3          8           0        0.000000    0.000000    1.120087
 ---------------------------------------------------------------------

 The electronic state is 1-SG.
 Alpha  occ. eigenvalues --  -19.25114 -14.56893 -14.43805  -1.24225  -1.08680
 Alpha  occ. eigenvalues --   -0.60304  -0.56100  -0.56100  -0.47642  -0.34154
 Alpha  occ. eigenvalues --   -0.34154
 Alpha virt. eigenvalues --   -0.01860  -0.01860   0.13129   0.41429   0.59272
 Alpha virt. eigenvalues --    0.59272   0.59871   0.73688   0.73994   0.73994
 Alpha virt. eigenvalues --    0.74529   0.95145   0.95145   1.05111   1.33164

 Mulliken charges:
               1
     1  N   -0.099137
     2  N    0.528980
     3  O   -0.429843
 Sum of Mulliken charges =   0.00000

 Dipole moment (field-independent basis, Debye):
    X=              0.0000    Y=             -0.0000    Z=             -0.0186  Tot=              0.0186
 Quadrupole moment (field-independent basis, Debye-Ang):
   XX=            -14.9829   YY=            -14.9829   ZZ=            -18.8755
   XY=              0.0000   XZ=              0.0000   YZ=             -0.0000

 Normal termination of Gaussian 16 at Tue Oct  6 16:00:46 2020.
