 Gaussian 16, Revision A.03,
 Gaussian 16:  ES64L-G16RevA.03 25-Dec-2016

 ----------------------------------------------------------------------
 #P Opt(MaxCyc=100) B3LYP/6-31G* 5D 7F Integral=UltraFineGrid SCF=(NoSy
 mm,XQC,MaxCyc=120) IOp(1/33=1)
 ----------------------------------------------------------------------

 TstMul:  Mul=     1
 TstMul:  ICh=     0
 TstMul:  Mul=     1
 Symbolic Z-matrix:
 Charge =  0 Multiplicity = 1

 SCF Done:  E(RB3LYP) =  -109.520522411     A.U. after    8 cycles
 SCF Done:  E(RB3LYP) =  -109.520716572     A.U. after    6 cycles
 SCF Done:  E(RB3LYP) =  -109.520717887     A.U. after    5 cycles
 Optimization completed.
    -- Stationary point found.

                         Standard orientation:
 ---------------------------------------------------------------------
 Center     Atomic      Atomic             Coordinates (Angstroms)
 Number     Number       Type             X           Y           Z
 ---------------------------------------------------------------------
      1          7           0        0.000000    0.000000    0.552651
      2          7           0        0.000000    0.000000   -0.552651
 ---------------------------------------------------------------------

 The electronic state is 1-SGG.
 Alpha  occ. eigenvalues --  -14.44199 -14.44058  -1.12308  -0.55162  -0.46158
 Alpha  occ. eigenvalues --   -0.46158  -0.42542
 Alpha virt. eigenvalues --   -0.02298  -0.02298   0.41558   0.59954   0.60672
 Alpha virt. eigenvalues --    0.60672   0.72404   0.75221   0.75221   0.81181
 Alpha virt. eigenvalues --    1.28336   1.45075   1.45075   1.54935   1.54935

 Mulliken charges:
               1
     1  N    0.000000
     2  N    0.000000
 Sum of Mulliken charges =   0.00000

 Dipole moment (field-independent basis, Debye):
    X=             -0.0000    Y=             -0.0000    Z=              0.0000  Tot=              0.0000
 Quadrupole moment (field-independent basis, Debye-Ang):
   XX=            -10.0031   YY=            -10.0031   ZZ=            -11.6069
   XY=             -0.0000   XZ=              0.0000   YZ=             -0.0000

 Normal termination of Gaussian 16 at Tue Oct  6 16:00:44 2020.
