 Gaussian 16, Revision A.03,
 Gaussian 16:  ES64L-G16RevA.03 25-Dec-2016

 ----------------------------------------------------------------------
 #P Opt(MaxCyc=100) B3LYP/6-31G* 5D 7F Integral=UltraFineGrid SCF=(NoSy
 mm,XQC,MaxCyc=120) IOp(1/33=1)
 ----------------------------------------------------------------------

 TstMul:  Mul=     1
 TstMul:  ICh=     0
 TstMul:  Mul=     1
 Symbolic Z-matrix:
 Charge =  0 Multiplicity = 1

 SCF Done:  E(RB3LYP) =  -93.3933155227     A.U. after   11 cycles
 SCF Done:  E(RB3LYP) =  -93.3934478023     A.U. after    8 cycles
 SCF Done:  E(RB3LYP) =  -93.3934480287     A.U. after    7 cycles
 Optimization completed.
    -- Stationary point found.

                         Standard orientation:
 ---------------------------------------------------------------------
 Center     Atomic      Atomic             Coordinates (Angstroms)
 Number     Number       Type             X           Y           Z
 ---------------------------------------------------------------------
      1          6           0        0.000000    0.000000   -0.743762
      2          7           0        0.000000    0.000000    0.432797
      3          1           0        0.000000    0.000000    1.432995
 ---------------------------------------------------------------------

 The electronic state is 1-SG.
 Alpha  occ. eigenvalues --  -14.37037 -10.23305  -0.94169  -0.66448  -0.37030
 Alpha  occ. eigenvalues --   -0.37030  -0.31160
 Alpha virt. eigenvalues --    0.02675   0.02675   0.06620   0.34931   0.51120
 Alpha virt. eigenvalues --    0.55297   0.55297   0.64485   0.72950   0.72950
 Alpha virt. eigenvalues --    0.92646   1.18494   1.42958   1.50867   1.50867

 Mulliken charges:
               1
     1  C    0.039922
     2  N   -0.404317
     3  H    0.364395
 Sum of Mulliken charges =  -0.00000

 Dipole moment (field-independent basis, Debye):
    X=              0.0000    Y=             -0.0000    Z=              2.9387  Tot=              2.9387
 Quadrupole moment (field-independent basis, Debye-Ang):
   XX=            -11.5107   YY=            -11.5107   ZZ=             -9.9075
   XY=             -0.0000   XZ=              0.0000   YZ=             -0.0000

 Normal termination of Gaussian 16 at Tue Oct  6 16:00:43 2020.
