 Gaussian 16, Revision A.03,
 Gaussian 16:  ES64L-G16RevA.03 25-Dec-2016

 ----------------------------------------------------------------------
 #P Opt(MaxCyc=100) B3LYP/6-31G* 5D 7F Integral=UltraFineGrid SCF=(NoSy
 mm,XQC,MaxCyc=120) IOp(1/33=1)
 ----------------------------------------------------------------------

 TstMul:  Mul=     2
 TstMul:  ICh=     0
 TstMul:  Mul=     2
 Symbolic Z-matrix:
 Charge =  0 Multiplicity = 2

 SCF Done:  E(UB3LYP) =  -398.736923169     A.U. after   11 cycles
 SCF Done:  E(UB3LYP) =  -398.737027443     A.U. after    8 cycles
 Optimization completed.
    -- Stationary point found.

                         Standard orientation:
 ---------------------------------------------------------------------
 Center     Atomic      Atomic             Coordinates (Angstroms)
 Number     Number       Type             X           Y           Z
 ---------------------------------------------------------------------
      1         16           0        0.000000    0.000000    0.079732
      2          1           0        0.000000    0.000000   -1.275711
 ---------------------------------------------------------------------

 Unable to determine electronic state:  partially filled degenerate orbitals.
 Alpha  occ. eigenvalues --  -88.89110  -7.96867  -5.93906  -5.92936  -5.91986
 Alpha  occ. eigenvalues --   -0.74003  -0.41474  -0.32153  -0.27351
 Alpha virt. eigenvalues --    0.02854   0.27457   0.32679   0.33139   0.35846
 Alpha virt. eigenvalues --    0.69199   0.70800   0.73533   0.74094   0.74854
 Alpha virt. eigenvalues --    1.08899
  Beta  occ. eigenvalues --  -88.88555  -7.96314  -5.92601  -5.92110  -5.91655
  Beta  occ. eigenvalues --   -0.70035  -0.40110  -0.25903
  Beta virt. eigenvalues --   -0.17836   0.03917   0.28839   0.33363   0.36434
  Beta virt. eigenvalues --    0.37047   0.70636   0.75666   0.76460   0.78992
  Beta virt. eigenvalues --    0.79525   1.10002

 Mulliken charges and spin densities:
               1          2
     1  S   -0.105287   1.029057
     2  H    0.105287  -0.029057
 Sum of Mulliken charges =   0.00000   1.00000

 Dipole moment (field-independent basis, Debye):
    X=              0.0000    Y=              0.0000    Z=             -1.0591  Tot=              1.0591
 Quadrupole moment (field-independent basis, Debye-Ang):
   XX=            -12.8110   YY=            -15.6776   ZZ=            -12.0129
   XY=              0.0000   XZ=              0.0000   YZ=              0.0000

 1\1\GINC-NODE33\FOpt\UB3LYP\6-31G(d)\H1S1(2)\RPEVERATI\06-Oct-2020\0\\
 #P Opt(MaxCyc=100) B3LYP/6-31G* 5D 7F Integral=UltraFineGrid SCF=(NoSy
 mm,XQC,MaxCyc=120) IOp(1/33=1)\\TS search on BH76.\\0,2\S,0.,0.,0.0864
 551796\H,0.,0.,-1.2689879131\\Version=ES64L-G16RevA.03\HF=-398.7370274
 \S2=0.75243\S2-1=0.\S2A=0.750002\RMSD=8.776e-09\RMSF=1.508e-04\Dipole=
 0.,0.,-0.4166924\Quadrupole=0.5125941,-1.6185983,1.1060042,0.,0.,0.\PG
 =C*V [C*(H1S1)]\\@

 Normal termination of Gaussian 16 at Tue Oct  6 16:00:27 2020.
