 Gaussian 16, Revision A.03,

 ----------------------------------------------------------------------
 #P Opt(TS,MaxCyc=50,NoEigenTest,MaxStep=10,CalcFC) B3LYP/6-31G* 5D 7F
 Integral=UltraFineGrid SCF=(NoSymm,XQC,MaxCyc=120) IOp(1/33=1)
 ----------------------------------------------------------------------

 TstMul:  Mul=     2
 TstMul:  ICh=     0
 TstMul:  Mul=     2
 Symbolic Z-matrix:
 Charge =  0 Multiplicity = 2

 SCF Done:  E(UB3LYP) =  -76.8919212385     A.U. after   16 cycles
 SCF Done:  E(UB3LYP) =  -76.8921604207     A.U. after   15 cycles
 SCF Done:  E(UB3LYP) =  -76.8921608377     A.U. after    9 cycles
 Optimization completed.
    -- Stationary point found.
 Normal termination of Gaussian 16 at Tue Oct  6 16:32:01 2020.
 Gaussian 16:  ES64L-G16RevA.03 25-Dec-2016

 ----------------------------------------------------------------------
 #P Freq B3LYP/6-31G* 5D 7F Integral=UltraFineGrid SCF=(NoSymm,XQC,MaxC
 yc=120) IOp(1/33=1) Geom=Check Guess=Read
 ----------------------------------------------------------------------

 TstMul:  Mul=     2
 TstMul:  ICh=     0
 TstMul:  Mul=     2
 Structure from the checkpoint file:  "MN_79_RKT02_BH76_B3LYP_631Gs.chk"
 Charge =  0 Multiplicity = 2

                         Standard orientation:
 ---------------------------------------------------------------------
 Center     Atomic      Atomic             Coordinates (Angstroms)
 Number     Number       Type             X           Y           Z
 ---------------------------------------------------------------------
      1          8           0       -0.294127   -0.111515    0.000012
      2          1           0       -0.480559    0.850579   -0.000032
      3          1           0        1.005277   -0.085544   -0.000024
      4          1           0        1.828301    0.127086   -0.000043
 ---------------------------------------------------------------------

 SCF Done:  E(UB3LYP) =  -76.8921608377     A.U. after    1 cycles

 The electronic state is 2-A.
 Alpha  occ. eigenvalues --  -19.18358  -1.00293  -0.52997  -0.44319  -0.31796
 Alpha  occ. eigenvalues --   -0.31780
 Alpha virt. eigenvalues --    0.08045   0.18817   0.63989   0.78435   0.82485
 Alpha virt. eigenvalues --    0.86847   0.99091   1.06647   1.42416   1.70607
 Alpha virt. eigenvalues --    1.74255   1.75570   2.03091   2.41868
  Beta  occ. eigenvalues --  -19.16546  -0.95489  -0.48851  -0.40370  -0.29910
  Beta virt. eigenvalues --   -0.15026   0.08827   0.21683   0.66412   0.79184
  Beta virt. eigenvalues --    0.87906   0.87934   1.01210   1.09751   1.45377
  Beta virt. eigenvalues --    1.74917   1.75131   1.79568   2.06793   2.43753

 Mulliken charges and spin densities:
               1          2
     1  O   -0.554658   0.696969
     2  H    0.401460  -0.019402
     3  H    0.154348  -0.105216
     4  H   -0.001150   0.427649
 Sum of Mulliken charges =  -0.00000   1.00000

 Dipole moment (field-independent basis, Debye):
    X=              0.3711    Y=              1.6547    Z=             -0.0001  Tot=              1.6958
 Quadrupole moment (field-independent basis, Debye-Ang):
   XX=             -6.8355   YY=             -6.5648   ZZ=             -8.4795
   XY=             -0.8380   XZ=              0.0000   YZ=             -0.0001

  Exact polarizability:  22.022   0.639   6.853  -0.000  -0.000   2.589
 Approx polarizability:  28.638   2.164   8.776  -0.001  -0.000   2.751

 ******    1 imaginary frequencies (negative Signs) ******

                      1                      2                      3
                      A                      A                      A
 Frequencies --  -1032.4856               533.5137               685.3751
 Red. masses --      1.1014                 1.0195                 1.0173
 Frc consts  --      0.6918                 0.1710                 0.2816
 IR Inten    --    121.7610                25.8138                26.1880

                      4                      5                      6
                      A                      A                      A
 Frequencies --   1188.1532              2313.2677              3662.3044
 Red. masses --      1.0650                 1.0271                 1.0666
 Frc consts  --      0.8858                 3.2384                 8.4286
 IR Inten    --    137.6832                96.5383                10.5135

 - Thermochemistry -
 -------------------
 Temperature   298.150 Kelvin.  Pressure   1.00000 Atm.
 Atom     1 has atomic number  8 and mass  15.99491

 Molecular mass:    19.01839 amu.
 Principal axes and moments of inertia in atomic units:
                           1         2         3
     Eigenvalues --     3.23461  20.43495  23.66956
           X            0.99950  -0.03150   0.00002
           Y            0.03150   0.99950   0.00005
           Z           -0.00002  -0.00005   1.00000
 This molecule is an asymmetric top.
 Rotational symmetry number  1.
 Rotational temperatures (Kelvin)     26.77726     4.23852     3.65930
 Rotational constants (GHZ):         557.94745    88.31640    76.24736
    1 imaginary frequencies ignored.
 Zero-point vibrational energy      50139.2 (Joules/Mol)
                                   11.98355 (Kcal/Mol)
 Warning -- explicit consideration of   1 degrees of freedom as
           vibrations may cause significant error
 Vibrational temperatures:    767.61   986.10  1709.49  3328.28  5269.24
          (Kelvin)

 Zero-point correction=                           0.019097 (Hartree/Particle)
 Thermal correction to Energy=                    0.022266
 Thermal correction to Enthalpy=                  0.023211
 Thermal correction to Gibbs Free Energy=        -0.001594
 Sum of electronic and zero-point Energies=            -76.873064
 Sum of electronic and thermal Energies=               -76.869894
 Sum of electronic and thermal Enthalpies=             -76.868950
 Sum of electronic and thermal Free Energies=          -76.893755

                     E (Thermal)             CV                S
                      KCal/Mol        Cal/Mol-Kelvin    Cal/Mol-Kelvin
 Total                   13.972              8.211             52.206
 Electronic               0.000              0.000              1.377
 Translational            0.889              2.981             34.771
 Rotational               0.889              2.981             15.111
 Vibrational             12.195              2.250              0.947
 Vibration     1          0.888              1.176              0.579

 Optimization completed.
    -- Stationary point found.

 1\1\GINC-NODE42\Freq\UB3LYP\6-31G(d)\H3O1(2)\RPEVERATI\06-Oct-2020\0\\
 #P Freq B3LYP/6-31G* 5D 7F Integral=UltraFineGrid SCF=(NoSymm,XQC,MaxC
 yc=120) IOp(1/33=1) Geom=Check Guess=Read\\TS search on BH76.\\0,2\O,-
 0.2865686151,-0.1052185018,0.0000476237\H,-0.4583156267,0.8596054984,0
 .0000031271\H,1.0130800386,-0.0990546857,0.0000114759\H,1.8392492702,0
 .1010069178,-0.0000082269\\Version=ES64L-G16RevA.03\State=2-A\HF=-76.8
 921608\S2=0.758565\S2-1=0.\S2A=0.750017\RMSD=2.676e-09\RMSF=1.618e-05\
 ZeroPoint=0.019097\Thermal=0.0222664\Dipole=0.1559237,0.6486932,-0.000

 Normal termination of Gaussian 16 at Tue Oct  6 16:32:19 2020.
