 Gaussian 16, Revision A.03,
 Gaussian 16:  ES64L-G16RevA.03 25-Dec-2016

 ----------------------------------------------------------------------
 #P Opt(MaxCyc=100) B3LYP/6-31G* 5D 7F Integral=UltraFineGrid SCF=(NoSy
 mm,XQC,MaxCyc=120) IOp(1/33=1)
 ----------------------------------------------------------------------

 TstMul:  Mul=     1
 TstMul:  ICh=     0
 TstMul:  Mul=     1
 Symbolic Z-matrix:
 Charge =  0 Multiplicity = 1

 SCF Done:  E(RB3LYP) =  -343.137630841     A.U. after    9 cycles
 SCF Done:  E(RB3LYP) =  -343.137804434     A.U. after    7 cycles
 SCF Done:  E(RB3LYP) =  -343.137806794     A.U. after    6 cycles
 Optimization completed.
    -- Stationary point found.

                         Standard orientation:
 ---------------------------------------------------------------------
 Center     Atomic      Atomic             Coordinates (Angstroms)
 Number     Number       Type             X           Y           Z
 ---------------------------------------------------------------------
      1         15           0        0.000000    0.000000    0.128760
      2          1           0        0.000000    1.196628   -0.643799
      3          1           0        1.036310   -0.598314   -0.643799
      4          1           0       -1.036310   -0.598314   -0.643799
 ---------------------------------------------------------------------

 The electronic state is 1-A1.
 Alpha  occ. eigenvalues --  -77.06087  -6.55074  -4.71171  -4.71171  -4.70740
 Alpha  occ. eigenvalues --   -0.64864  -0.38802  -0.38802  -0.27566
 Alpha virt. eigenvalues --    0.03198   0.03198   0.11604   0.28164   0.28164
 Alpha virt. eigenvalues --    0.30117   0.38518   0.66285   0.66285   0.67802
 Alpha virt. eigenvalues --    0.67802   0.68497   0.93407   1.14485   1.14485

 Mulliken charges:
               1
     1  P   -0.091547
     2  H    0.030516
     3  H    0.030516
     4  H    0.030516
 Sum of Mulliken charges =  -0.00000

 Dipole moment (field-independent basis, Debye):
    X=              0.0000    Y=              0.0000    Z=             -0.9594  Tot=              0.9594
 Quadrupole moment (field-independent basis, Debye-Ang):
   XX=            -14.6048   YY=            -14.6048   ZZ=            -17.0246
   XY=             -0.0000   XZ=             -0.0000   YZ=             -0.0000

 Normal termination of Gaussian 16 at Tue Oct  6 16:01:25 2020.
