 Gaussian 16, Revision A.03,
 Gaussian 16:  ES64L-G16RevA.03 25-Dec-2016

 ----------------------------------------------------------------------
 #P Opt(MaxCyc=100) B3LYP/6-31G* 5D 7F Integral=UltraFineGrid SCF=(NoSy
 mm,XQC,MaxCyc=120) IOp(1/33=1)
 ----------------------------------------------------------------------

 TstMul:  Mul=     1
 TstMul:  ICh=    -1
 TstMul:  Mul=     1
 Symbolic Z-matrix:
 Charge = -1 Multiplicity = 1

 SCF Done:  E(RB3LYP) =  -75.7162562694     A.U. after   10 cycles
 SCF Done:  E(RB3LYP) =  -75.7167855419     A.U. after    9 cycles
 SCF Done:  E(RB3LYP) =  -75.7168019686     A.U. after    7 cycles
 Optimization completed.
    -- Stationary point found.

                         Standard orientation:
 ---------------------------------------------------------------------
 Center     Atomic      Atomic             Coordinates (Angstroms)
 Number     Number       Type             X           Y           Z
 ---------------------------------------------------------------------
      1          8           0        0.000000    0.000000    0.109830
      2          1           0        0.000000    0.000000   -0.878637
 ---------------------------------------------------------------------

 The electronic state is 1-SG.
 Alpha  occ. eigenvalues --  -18.65923  -0.47882   0.01021   0.16411   0.16411
 Alpha virt. eigenvalues --    0.41653   1.19263   1.30395   1.30395   1.34422
 Alpha virt. eigenvalues --    1.67988   2.20848   2.20848   2.26907   2.26907
 Alpha virt. eigenvalues --    2.85536

 Mulliken charges:
               1
     1  O   -1.155354
     2  H    0.155354
 Sum of Mulliken charges =  -1.00000

 Dipole moment (field-independent basis, Debye):
    X=              0.0000    Y=              0.0000    Z=             -1.1959  Tot=              1.1959
 Quadrupole moment (field-independent basis, Debye-Ang):
   XX=             -7.9541   YY=             -7.9541   ZZ=             -6.7936
   XY=              0.0000   XZ=              0.0000   YZ=             -0.0000

 Normal termination of Gaussian 16 at Tue Oct  6 16:01:06 2020.
