 Gaussian 16, Revision A.03,
 Gaussian 16:  ES64L-G16RevA.03 25-Dec-2016

 ----------------------------------------------------------------------
 #P Opt(MaxCyc=100) B3LYP/6-31G* 5D 7F Integral=UltraFineGrid SCF=(NoSy
 mm,XQC,MaxCyc=120) IOp(1/33=1)
 ----------------------------------------------------------------------

 TstMul:  Mul=     2
 TstMul:  ICh=     0
 TstMul:  Mul=     2
 Symbolic Z-matrix:
 Charge =  0 Multiplicity = 2

 SCF Done:  E(UB3LYP) =  -342.501546947     A.U. after   12 cycles
 SCF Done:  E(UB3LYP) =  -342.501692412     A.U. after    9 cycles
 SCF Done:  E(UB3LYP) =  -342.501692609     A.U. after    5 cycles
 Optimization completed.
    -- Stationary point found.

                         Standard orientation:
 ---------------------------------------------------------------------
 Center     Atomic      Atomic             Coordinates (Angstroms)
 Number     Number       Type             X           Y           Z
 ---------------------------------------------------------------------
      1         15           0        0.000000   -0.000000    0.117306
      2          1           0        0.000000    1.025557   -0.879792
      3          1           0       -0.000000   -1.025557   -0.879792
 ---------------------------------------------------------------------

 The electronic state is 2-B1.
 Alpha  occ. eigenvalues --  -77.07707  -6.56446  -4.73009  -4.72403  -4.72092
 Alpha  occ. eigenvalues --   -0.63990  -0.39084  -0.31080  -0.24934
 Alpha virt. eigenvalues --    0.02710   0.07762   0.23932   0.27845   0.29602
 Alpha virt. eigenvalues --    0.30120   0.64290   0.64956   0.65906   0.67273
 Alpha virt. eigenvalues --    0.72971   0.96006   1.12853
  Beta  occ. eigenvalues --  -77.07282  -6.55996  -4.72127  -4.71838  -4.71586
  Beta  occ. eigenvalues --   -0.61047  -0.38542  -0.29617
  Beta virt. eigenvalues --   -0.12367   0.03270   0.09651   0.25874   0.28370
  Beta virt. eigenvalues --    0.30782   0.33327   0.66619   0.67377   0.69343
  Beta virt. eigenvalues --    0.69849   0.77247   0.97304   1.13210

 Mulliken charges and spin densities:
               1          2
     1  P   -0.005630   1.070051
     2  H    0.002815  -0.035025
     3  H    0.002815  -0.035025
 Sum of Mulliken charges =  -0.00000   1.00000

 Dipole moment (field-independent basis, Debye):
    X=              0.0000    Y=             -0.0000    Z=             -0.8700  Tot=              0.8700
 Quadrupole moment (field-independent basis, Debye-Ang):
   XX=            -14.9077   YY=            -13.9408   ZZ=            -15.4465
   XY=             -0.0000   XZ=             -0.0000   YZ=              0.0000

 1\1\GINC-NODE34\FOpt\UB3LYP\6-31G(d)\H2P1(2)\RPEVERATI\06-Oct-2020\0\\
 #P Opt(MaxCyc=100) B3LYP/6-31G* 5D 7F Integral=UltraFineGrid SCF=(NoSy
 mm,XQC,MaxCyc=120) IOp(1/33=1)\\TS search on BH76.\\0,2\P,0.,0.,0.1249
 989108\H,0.,1.0255574504,-0.8720982537\H,0.,-1.0255574504,-0.872098253
 7\\Version=ES64L-G16RevA.03\State=2-B1\HF=-342.5016926\S2=0.753628\S2-
 1=0.\S2A=0.750004\RMSD=6.440e-09\RMSF=8.066e-06\Dipole=0.,0.,-0.342267
 7\Quadrupole=-0.1060919,0.6128029,-0.506711,0.,0.,0.\PG=C02V [C2(P1),S
 GV(H2)]\\@

 Normal termination of Gaussian 16 at Tue Oct  6 16:01:21 2020.
