 Gaussian 16, Revision A.03,

 ----------------------------------------------------------------------
 #P Opt(TS,MaxCyc=50,NoEigenTest,MaxStep=10,CalcFC) B3LYP/6-31G* 5D 7F
 Integral=UltraFineGrid SCF=(NoSymm,XQC,MaxCyc=120) IOp(1/33=1)
 ----------------------------------------------------------------------

 TstMul:  Mul=     2
 TstMul:  ICh=     0
 TstMul:  Mul=     2
 Symbolic Z-matrix:
 Charge =  0 Multiplicity = 2

 SCF Done:  E(UB3LYP) =  -132.273704308     A.U. after   16 cycles
 SCF Done:  E(UB3LYP) =  -132.274327944     A.U. after   18 cycles
 SCF Done:  E(UB3LYP) =  -132.274357283     A.U. after   13 cycles
 SCF Done:  E(UB3LYP) =  -132.274357294     A.U. after   12 cycles
 Optimization completed.
    -- Stationary point found.
 Normal termination of Gaussian 16 at Tue Oct  6 16:32:52 2020.
 Gaussian 16:  ES64L-G16RevA.03 25-Dec-2016

 ----------------------------------------------------------------------
 #P Freq B3LYP/6-31G* 5D 7F Integral=UltraFineGrid SCF=(NoSymm,XQC,MaxC
 yc=120) IOp(1/33=1) Geom=Check Guess=Read
 ----------------------------------------------------------------------

 TstMul:  Mul=     2
 TstMul:  ICh=     0
 TstMul:  Mul=     2
 Structure from the checkpoint file:  "MN_83_RKT07_BH76_B3LYP_631Gs.chk"
 Charge =  0 Multiplicity = 2

                         Standard orientation:
 ---------------------------------------------------------------------
 Center     Atomic      Atomic             Coordinates (Angstroms)
 Number     Number       Type             X           Y           Z
 ---------------------------------------------------------------------
      1          7           0       -1.150075   -0.014633   -0.113053
      2          8           0        1.169069   -0.104880    0.013505
      3          1           0       -1.327590   -0.692049    0.633617
      4          1           0       -1.327726    0.906024    0.298200
      5          1           0       -0.006987   -0.115329   -0.393983
      6          1           0        1.360276    0.842825    0.145499
 ---------------------------------------------------------------------

 SCF Done:  E(UB3LYP) =  -132.274357294     A.U. after    1 cycles

 The electronic state is 2-A.
 Alpha  occ. eigenvalues --  -19.14299 -14.35480  -0.97907  -0.87136  -0.51839
 Alpha  occ. eigenvalues --   -0.49076  -0.41321  -0.33988  -0.29185  -0.28180
 Alpha virt. eigenvalues --    0.05840   0.11347   0.14366   0.27954   0.62031
 Alpha virt. eigenvalues --    0.63970   0.68726   0.80621   0.82899   0.83338
 Alpha virt. eigenvalues --    0.87397   0.94681   0.97184   1.09651   1.24347

  Beta  occ. eigenvalues --  -19.12935 -14.34284  -0.94495  -0.83959  -0.49653
  Beta  occ. eigenvalues --   -0.48001  -0.39460  -0.28539  -0.27446
  Beta virt. eigenvalues --   -0.13196   0.06533   0.11933   0.14728   0.29020
  Beta virt. eigenvalues --    0.63672   0.64675   0.72396   0.81310   0.83650
  Beta virt. eigenvalues --    0.85140   0.88027   0.95715   0.99286   1.11441

 Mulliken charges and spin densities:
               1          2
     1  N   -0.780498   0.593026
     2  O   -0.687817   0.506678
     3  H    0.331359  -0.020327
     4  H    0.316246  -0.020885
     5  H    0.437687  -0.044415
     6  H    0.383022  -0.014077
 Sum of Mulliken charges =  -0.00000   1.00000

 Dipole moment (field-independent basis, Debye):
    X=             -1.1862    Y=              1.8416    Z=              1.4357  Tot=              2.6191
 Quadrupole moment (field-independent basis, Debye-Ang):
   XX=            -14.0579   YY=            -10.7252   ZZ=            -13.9891
   XY=              1.9037   XZ=             -2.2264   YZ=             -0.0080

  Exact polarizability:  44.880   1.103  15.034   0.427   0.154   9.918
 Approx polarizability:  66.270  -0.962  19.298   3.033   0.169  12.121

 ******    1 imaginary frequencies (negative Signs) ******

                      1                      2                      3
                      A                      A                      A
 Frequencies --  -1371.1269               238.4004               432.9156
 Red. masses --      1.0426                 1.0648                 2.0967
 Frc consts  --      1.1548                 0.0357                 0.2315
 IR Inten    --    405.8059                77.5437                24.1730

                      4                      5                      6
                      A                      A                      A
 Frequencies --    529.6875               818.0010               897.2409
 Red. masses --      1.0305                 1.6526                 1.1504
 Frc consts  --      0.1704                 0.6515                 0.5456
 IR Inten    --     36.1405               137.2913                98.6045

                      7                      8                      9
                      A                      A                      A
 Frequencies --   1485.0655              1634.3983              1699.4575
 Red. masses --      1.1317                 1.0691                 1.0271
 Frc consts  --      1.4706                 1.6826                 1.7477
 IR Inten    --    186.2304                46.2622                17.8762

                     10                     11                     12
                      A                      A                      A
 Frequencies --   3443.3641              3542.3253              3700.5022
 Red. masses --      1.0501                 1.0908                 1.0663
 Frc consts  --      7.3357                 8.0643                 8.6034
 IR Inten    --      5.0957                 1.2318                22.5064

 - Thermochemistry -
 -------------------
 Temperature   298.150 Kelvin.  Pressure   1.00000 Atm.
 Atom     1 has atomic number  7 and mass  14.00307

 Molecular mass:    34.02929 amu.
 Principal axes and moments of inertia in atomic units:
                           1         2         3
     Eigenvalues --    10.68753 166.43793 171.30007
           X            0.99955   0.01880  -0.02347
           Y           -0.01882   0.99982  -0.00066
           Z            0.02345   0.00110   0.99972
 This molecule is an asymmetric top.
 Rotational symmetry number  1.
 Rotational temperatures (Kelvin)      8.10421     0.52040     0.50563
 Rotational constants (GHZ):         168.86427    10.84333    10.53555
    1 imaginary frequencies ignored.
 Zero-point vibrational energy     110184.2 (Joules/Mol)
                                   26.33465 (Kcal/Mol)
 Warning -- explicit consideration of   3 degrees of freedom as
           vibrations may cause significant error
 Vibrational temperatures:    343.01   622.87   762.10  1176.92  1290.93
          (Kelvin)           2136.68  2351.53  2445.14  4954.23  5096.62
                             5324.20

 Zero-point correction=                           0.041967 (Hartree/Particle)
 Thermal correction to Energy=                    0.045922
 Thermal correction to Enthalpy=                  0.046866
 Thermal correction to Gibbs Free Energy=         0.017483
 Sum of electronic and zero-point Energies=           -132.232390
 Sum of electronic and thermal Energies=              -132.228435
 Sum of electronic and thermal Enthalpies=            -132.227491
 Sum of electronic and thermal Free Energies=         -132.256874

                     E (Thermal)             CV                S
                      KCal/Mol        Cal/Mol-Kelvin    Cal/Mol-Kelvin
 Total                   28.817             11.614             61.842
 Electronic               0.000              0.000              1.377
 Translational            0.889              2.981             36.505
 Rotational               0.889              2.981             20.349
 Vibrational             27.039              5.652              3.610
 Vibration     1          0.656              1.782              1.815
 Vibration     2          0.794              1.399              0.849
 Vibration     3          0.885              1.184              0.588

                           ! Non-Optimized Parameters !
 Normal termination of Gaussian 16 at Tue Oct  6 16:33:17 2020.
