 Gaussian 16, Revision A.03,

 ----------------------------------------------------------------------
 #P Opt(TS,MaxCyc=50,NoEigenTest,MaxStep=10,CalcFC) B3LYP/6-31G* 5D 7F
 Integral=UltraFineGrid SCF=(NoSymm,XQC,MaxCyc=120) IOp(1/33=1)
 ----------------------------------------------------------------------

 TstMul:  Mul=     3
 TstMul:  ICh=     0
 TstMul:  Mul=     3
 Symbolic Z-matrix:
 Charge =  0 Multiplicity = 3

 SCF Done:  E(UB3LYP) =  -115.559840628     A.U. after   12 cycles
 SCF Done:  E(UB3LYP) =  -115.559317337     A.U. after   13 cycles
 SCF Done:  E(UB3LYP) =  -115.559168446     A.U. after   13 cycles
 SCF Done:  E(UB3LYP) =  -115.559182093     A.U. after    9 cycles
 Optimization completed.
    -- Stationary point found.
 Normal termination of Gaussian 16 at Thu Oct  8 17:45:42 2020.
 Gaussian 16:  ES64L-G16RevA.03 25-Dec-2016

 ----------------------------------------------------------------------
 #P Freq B3LYP/6-31G* 5D 7F Integral=UltraFineGrid SCF=(NoSymm,XQC,MaxC
 yc=120) IOp(1/33=1) Geom=Check Guess=Read
 ----------------------------------------------------------------------

 TstMul:  Mul=     3
 TstMul:  ICh=     0
 TstMul:  Mul=     3
 Structure from the checkpoint file:  "MN_87_RKT11_BH76_B3LYP_631Gs.chk"
 Charge =  0 Multiplicity = 3

                         Standard orientation:
 ---------------------------------------------------------------------
 Center     Atomic      Atomic             Coordinates (Angstroms)
 Number     Number       Type             X           Y           Z
 ---------------------------------------------------------------------
      1          6           0        0.000431   -1.164619    0.000000
      2          1           0       -1.065588   -1.387554    0.000000
      3          1           0        0.524239   -1.417070    0.920133
      4          1           0        0.524239   -1.417070   -0.920133
      5          1           0        0.011072    0.228735   -0.000000
      6          8           0        0.000431    1.372584   -0.000000
 ---------------------------------------------------------------------

 SCF Done:  E(UB3LYP) =  -115.559182093     A.U. after    1 cycles

 The electronic state is 3-A'.
 Alpha  occ. eigenvalues --  -19.20174 -10.21040  -0.97433  -0.72107  -0.47442
 Alpha  occ. eigenvalues --   -0.43810  -0.43742  -0.38953  -0.31566  -0.27273
 Alpha virt. eigenvalues --    0.09802   0.15402   0.15494   0.24493   0.49981
 Alpha virt. eigenvalues --    0.50381   0.52851   0.70335   0.85091   0.87520
 Alpha virt. eigenvalues --    0.87586   0.87643   0.89891   0.94417   1.14689

  Beta  occ. eigenvalues --  -19.16594 -10.19960  -0.87219  -0.68955  -0.42958
  Beta  occ. eigenvalues --   -0.42920  -0.40424  -0.27857
  Beta virt. eigenvalues --   -0.13066  -0.12095   0.10666   0.16063   0.16127
  Beta virt. eigenvalues --    0.28022   0.50988   0.51019   0.57659   0.71635
  Beta virt. eigenvalues --    0.88179   0.88278   0.89441   0.92011   0.95308

 Mulliken charges and spin densities:
               1          2
     1  C   -0.612447   0.722958
     2  H    0.193863  -0.021036
     3  H    0.194396  -0.022003
     4  H    0.194396  -0.022003
     5  H    0.391756  -0.071550
     6  O   -0.361964   1.413633
 Sum of Mulliken charges =  -0.00000   2.00000

 Dipole moment (field-independent basis, Debye):
    X=              0.0005    Y=             -2.1854    Z=              0.0000  Tot=              2.1854
 Quadrupole moment (field-independent basis, Debye-Ang):
   XX=            -12.3484   YY=            -15.3249   ZZ=            -13.4722
   XY=              0.0003   XZ=              0.0000   YZ=             -0.0000

  Exact polarizability:  14.278  -0.072  30.779  -0.000   0.000  14.008
 Approx polarizability:  17.253  -0.097  39.151   0.000   0.000  16.566

 ******    1 imaginary frequencies (negative Signs) ******

                      1                      2                      3
                     A'                     A"                     A'
 Frequencies --  -1317.4999               328.1672               407.2394
 Red. masses --      1.1249                 1.0564                 1.0715
 Frc consts  --      1.1504                 0.0670                 0.1047
 IR Inten    --    283.0779                 7.9728                 3.5996

                      4                      5                      6
                     A'                     A"                     A'
 Frequencies --    581.5505               941.2948              1127.3686
 Red. masses --      3.6957                 1.0664                 1.0608
 Frc consts  --      0.7364                 0.5567                 0.7944
 IR Inten    --      0.1416                40.0551                46.5053

                      7                      8                      9
                     A'                     A'                     A"
 Frequencies --   1217.8448              1452.2580              1460.4069
 Red. masses --      1.2564                 1.0799                 1.0844
 Frc consts  --      1.0979                 1.3420                 1.3626
 IR Inten    --     15.0776                 3.8833                 4.1238

                     10                     11                     12
                     A'                     A'                     A"
 Frequencies --   3100.5768              3243.0128              3250.6998
 Red. masses --      1.0169                 1.1120                 1.1133
 Frc consts  --      5.7600                 6.8907                 6.9313
 IR Inten    --      0.0051                 5.4411                 5.2358

 - Thermochemistry -
 -------------------
 Temperature   298.150 Kelvin.  Pressure   1.00000 Atm.
 Atom     1 has atomic number  6 and mass  12.00000

 Molecular mass:    32.02621 amu.
 Principal axes and moments of inertia in atomic units:
                           1         2         3
     Eigenvalues --    12.15942 191.62724 191.65615
           X           -0.00004   0.00000   1.00000
           Y            1.00000   0.00000   0.00004
           Z            0.00000   1.00000   0.00000
 This molecule is an asymmetric top.
 Rotational symmetry number  1.
 Rotational temperatures (Kelvin)      7.12319     0.45199     0.45192
 Rotational constants (GHZ):         148.42326     9.41798     9.41656
    1 imaginary frequencies ignored.
 Zero-point vibrational energy     102343.0 (Joules/Mol)
                                   24.46057 (Kcal/Mol)
 Warning -- explicit consideration of   3 degrees of freedom as
           vibrations may cause significant error
 Vibrational temperatures:    472.16   585.93   836.72  1354.31  1622.03
          (Kelvin)           1752.21  2089.48  2101.20  4461.04  4665.97
                             4677.03

 Zero-point correction=                           0.038980 (Hartree/Particle)
 Thermal correction to Energy=                    0.042768
 Thermal correction to Enthalpy=                  0.043712
 Thermal correction to Gibbs Free Energy=         0.014175
 Sum of electronic and zero-point Energies=           -115.520202
 Sum of electronic and thermal Energies=              -115.516414
 Sum of electronic and thermal Enthalpies=            -115.515470
 Sum of electronic and thermal Free Energies=         -115.545007

                     E (Thermal)             CV                S
                      KCal/Mol        Cal/Mol-Kelvin    Cal/Mol-Kelvin
 Total                   26.837             11.178             62.165
 Electronic               0.000              0.000              2.183
 Translational            0.889              2.981             36.324
 Rotational               0.889              2.981             20.729
 Vibrational             25.060              5.217              2.929
 Vibration     1          0.711              1.619              1.269
 Vibration     2          0.772              1.454              0.936
 Vibration     3          0.938              1.071              0.482

                           ! Non-Optimized Parameters !
 Normal termination of Gaussian 16 at Thu Oct  8 17:45:54 2020.
