 Gaussian 16, Revision A.03,

 ----------------------------------------------------------------------
 #P Opt(TS,MaxCyc=50,NoEigenTest,MaxStep=10,CalcFC) B3LYP/6-31G* 5D 7F
 Integral=UltraFineGrid SCF=(NoSymm,XQC,MaxCyc=120) IOp(1/33=1)
 ----------------------------------------------------------------------

 TstMul:  Mul=     2
 TstMul:  ICh=     0
 TstMul:  Mul=     2
 Symbolic Z-matrix:
 Charge =  0 Multiplicity = 2

 SCF Done:  E(UB3LYP) =  -155.548390655     A.U. after   17 cycles
 SCF Done:  E(UB3LYP) =  -155.548697283     A.U. after   15 cycles
 SCF Done:  E(UB3LYP) =  -155.548791723     A.U. after   19 cycles
 SCF Done:  E(UB3LYP) =  -155.548795281     A.U. after   16 cycles
 SCF Done:  E(UB3LYP) =  -155.548722278     A.U. after   18 cycles
 SCF Done:  E(UB3LYP) =  -155.548733622     A.U. after   17 cycles
 SCF Done:  E(UB3LYP) =  -155.548761234     A.U. after   16 cycles
 SCF Done:  E(UB3LYP) =  -155.548793745     A.U. after   19 cycles
 SCF Done:  E(UB3LYP) =  -155.548795986     A.U. after   13 cycles
 SCF Done:  E(UB3LYP) =  -155.548796067     A.U. after   11 cycles
 Optimization completed.
    -- Stationary point found.
 Normal termination of Gaussian 16 at Tue Oct  6 16:35:11 2020.
 Gaussian 16:  ES64L-G16RevA.03 25-Dec-2016

 ----------------------------------------------------------------------
 #P Freq B3LYP/6-31G* 5D 7F Integral=UltraFineGrid SCF=(NoSymm,XQC,MaxC
 yc=120) IOp(1/33=1) Geom=Check Guess=Read
 ----------------------------------------------------------------------

 TstMul:  Mul=     2
 TstMul:  ICh=     0
 TstMul:  Mul=     2
 Structure from the checkpoint file:  "MN_85_RKT09_BH76_B3LYP_631Gs.chk"
 Charge =  0 Multiplicity = 2

                         Standard orientation:
 ---------------------------------------------------------------------
 Center     Atomic      Atomic             Coordinates (Angstroms)
 Number     Number       Type             X           Y           Z
 ---------------------------------------------------------------------
      1          6           0        1.450971   -0.454771    0.022586
      2          6           0        0.472876    0.700438   -0.020077
      3          8           0       -1.861229   -0.271813   -0.093186
      4          1           0        1.252259   -1.116379    0.872419
      5          1           0        1.401646   -1.054674   -0.892059
      6          1           0        2.481566   -0.085146    0.123048
      7          1           0        0.442649    1.297071    0.896664
      8          1           0        0.570387    1.348137   -0.896423
      9          1           0       -0.658167    0.226716   -0.145898
     10          1           0       -2.143591    0.084780    0.772683
 ---------------------------------------------------------------------

 SCF Done:  E(UB3LYP) =  -155.548796067     A.U. after    1 cycles

 The electronic state is 2-A.
 Alpha  occ. eigenvalues --  -19.14922 -10.19450 -10.17849  -0.97277  -0.76873
 Alpha  occ. eigenvalues --   -0.63002  -0.48561  -0.45302  -0.42222  -0.39627
 Alpha  occ. eigenvalues --   -0.38102  -0.35995  -0.28890  -0.26078
 Alpha virt. eigenvalues --    0.08344   0.11551   0.14431   0.14978   0.16747
 Alpha virt. eigenvalues --    0.18447   0.22991   0.29304   0.49506   0.52555
 Alpha virt. eigenvalues --    0.54254   0.60141   0.62717   0.66025   0.80773

  Beta  occ. eigenvalues --  -19.13253 -10.18697 -10.17863  -0.92955  -0.75789
  Beta  occ. eigenvalues --   -0.61761  -0.45839  -0.44792  -0.40977  -0.38324
  Beta  occ. eigenvalues --   -0.35780  -0.34699  -0.27181
  Beta virt. eigenvalues --   -0.11878   0.08856   0.11916   0.14873   0.15254
  Beta virt. eigenvalues --    0.16992   0.18774   0.23551   0.31403   0.49843
  Beta virt. eigenvalues --    0.52757   0.54961   0.62662   0.63057   0.66560

 Mulliken charges and spin densities:
               1          2
     1  C   -0.430123  -0.017100
     2  C   -0.458171   0.457539
     3  O   -0.624280   0.627631
     4  H    0.159211   0.004430
     5  H    0.164614   0.003296
     6  H    0.156084   0.026823
     7  H    0.157533  -0.012627
     8  H    0.170590  -0.007696
     9  H    0.320884  -0.066237
    10  H    0.383657  -0.016060
 Sum of Mulliken charges =  -0.00000   1.00000

 Dipole moment (field-independent basis, Debye):
    X=              1.2749    Y=              1.0215    Z=              1.3410  Tot=              2.1135
 Quadrupole moment (field-independent basis, Debye-Ang):
   XX=            -21.4172   YY=            -20.9145   ZZ=            -19.2918
   XY=             -1.4632   XZ=             -3.3662   YZ=              0.1928

  Exact polarizability:  49.576   4.433  27.457  -1.698   0.799  26.915
 Approx polarizability:  61.241   8.937  34.970  -0.901   1.870  35.501

 ******    1 imaginary frequencies (negative Signs) ******

                      1                      2                      3
                      A                      A                      A
 Frequencies --  -1033.3975                60.3660               115.8297
 Red. masses --      1.1674                 1.0690                 2.8401
 Frc consts  --      0.7345                 0.0023                 0.0225
 IR Inten    --    720.6403                91.9438                 9.8861

                      4                      5                      6
                      A                      A                      A
 Frequencies --    175.8252               400.4842               683.2020
 Red. masses --      1.1131                 1.1095                 2.0870
 Frc consts  --      0.0203                 0.1048                 0.5739
 IR Inten    --      3.3930                 5.7963                73.2013

                      7                      8                      9
                      A                      A                      A
 Frequencies --    796.1672               836.5300               956.0252
 Red. masses --      1.2091                 1.0637                 1.2129
 Frc consts  --      0.4516                 0.4386                 0.6531
 IR Inten    --     50.9755                32.5962               178.7095

                     10                     11                     12
                      A                      A                      A
 Frequencies --   1034.1743              1143.0015              1245.6986
 Red. masses --      2.6261                 1.3556                 1.3903
 Frc consts  --      1.6548                 1.0435                 1.2711
 IR Inten    --      3.8838                12.1958                 0.8172

                     13                     14                     15
                      A                      A                      A
 Frequencies --   1295.0113              1433.1634              1470.6134
 Red. masses --      1.2117                 1.2079                 1.0306
 Frc consts  --      1.1973                 1.4618                 1.3132
 IR Inten    --      4.9903                 2.0097                27.5110

                     16                     17                     18
                      A                      A                      A
 Frequencies --   1496.7235              1515.2778              1524.9321
 Red. masses --      1.1299                 1.0416                 1.0504
 Frc consts  --      1.4913                 1.4090                 1.4391
 IR Inten    --      5.8490                 8.0914                 4.0507

                     19                     20                     21
                      A                      A                      A
 Frequencies --   3033.8471              3084.3252              3101.9504
 Red. masses --      1.0443                 1.0580                 1.0873
 Frc consts  --      5.6632                 5.9299                 6.1641
 IR Inten    --     15.1617                 9.7520                29.2088

                     22                     23                     24
                      A                      A                      A
 Frequencies --   3124.8153              3157.1723              3675.8289
 Red. masses --      1.1036                 1.1080                 1.0666
 Frc consts  --      6.3488                 6.5069                 8.4912
 IR Inten    --      6.8513                36.0692                14.0492

 - Thermochemistry -
 -------------------
 Temperature   298.150 Kelvin.  Pressure   1.00000 Atm.
 Atom     1 has atomic number  6 and mass  12.00000

 Molecular mass:    47.04969 amu.
 Principal axes and moments of inertia in atomic units:
                           1         2         3
     Eigenvalues --    69.30194 366.02634 407.16198
           X            0.99959  -0.02419  -0.01545
           Y            0.02418   0.99971  -0.00124
           Z            0.01548   0.00087   0.99988
 This molecule is an asymmetric top.
 Rotational symmetry number  1.
 Rotational temperatures (Kelvin)      1.24981     0.23663     0.21273
 Rotational constants (GHZ):          26.04171     4.93063     4.43249
    1 imaginary frequencies ignored.
 Zero-point vibrational energy     211505.5 (Joules/Mol)
                                   50.55104 (Kcal/Mol)
 Warning -- explicit consideration of   4 degrees of freedom as
           vibrations may cause significant error
 Vibrational temperatures:     86.85   166.65   252.97   576.21   982.98
          (Kelvin)           1145.51  1203.58  1375.51  1487.95  1644.52
                             1792.28  1863.23  2062.00  2115.88  2153.45
                             2180.15  2194.04  4365.03  4437.66  4463.01
                             4495.91  4542.47  5288.70

 Zero-point correction=                           0.080558 (Hartree/Particle)
 Thermal correction to Energy=                    0.086233
 Thermal correction to Enthalpy=                  0.087178
 Thermal correction to Gibbs Free Energy=         0.051670
 Sum of electronic and zero-point Energies=           -155.468238
 Sum of electronic and thermal Energies=              -155.462563
 Sum of electronic and thermal Enthalpies=            -155.461619
 Sum of electronic and thermal Free Energies=         -155.497126

                     E (Thermal)             CV                S
                      KCal/Mol        Cal/Mol-Kelvin    Cal/Mol-Kelvin
 Total                   54.112             17.059             74.732
 Electronic               0.000              0.000              1.377
 Translational            0.889              2.981             37.471
 Rotational               0.889              2.981             23.850
 Vibrational             52.335             11.097             12.034
 Vibration     1          0.597              1.973              4.445
 Vibration     2          0.608              1.936              3.169
 Vibration     3          0.628              1.872              2.372
 Vibration     4          0.766              1.469              0.961

 Optimization completed.
    -- Stationary point found.
 Normal termination of Gaussian 16 at Tue Oct  6 16:35:49 2020.
