 Gaussian 16, Revision A.03,

 ----------------------------------------------------------------------
 #P Opt(TS,MaxCyc=50,NoEigenTest,MaxStep=10,CalcFC) B3LYP/6-31G* 5D 7F
 Integral=UltraFineGrid SCF=(NoSymm,XQC,MaxCyc=120) IOp(1/33=1)
 ----------------------------------------------------------------------

 TstMul:  Mul=     2
 TstMul:  ICh=     0
 TstMul:  Mul=     2
 Symbolic Z-matrix:
 Charge =  0 Multiplicity = 2

 SCF Done:  E(UB3LYP) =  -100.893927347     A.U. after   18 cycles
 SCF Done:  E(UB3LYP) =  -100.893768397     A.U. after   13 cycles
 SCF Done:  E(UB3LYP) =  -100.893633367     A.U. after   13 cycles
 SCF Done:  E(UB3LYP) =  -100.893522955     A.U. after   13 cycles
 SCF Done:  E(UB3LYP) =  -100.893430271     A.U. after   14 cycles
 SCF Done:  E(UB3LYP) =  -100.893354365     A.U. after   14 cycles
 SCF Done:  E(UB3LYP) =  -100.893289686     A.U. after   17 cycles
 SCF Done:  E(UB3LYP) =  -100.893240561     A.U. after   16 cycles
 SCF Done:  E(UB3LYP) =  -100.893186666     A.U. after   16 cycles
 SCF Done:  E(UB3LYP) =  -100.893190600     A.U. after   17 cycles
 SCF Done:  E(UB3LYP) =  -100.893165815     A.U. after   14 cycles
 SCF Done:  E(UB3LYP) =  -100.893134641     A.U. after   16 cycles
 SCF Done:  E(UB3LYP) =  -100.893109619     A.U. after   16 cycles
 SCF Done:  E(UB3LYP) =  -100.893090718     A.U. after   17 cycles
 SCF Done:  E(UB3LYP) =  -100.893077186     A.U. after   12 cycles
 SCF Done:  E(UB3LYP) =  -100.893068598     A.U. after   16 cycles
 SCF Done:  E(UB3LYP) =  -100.893064703     A.U. after   16 cycles
 SCF Done:  E(UB3LYP) =  -100.893064466     A.U. after   12 cycles
 SCF Done:  E(UB3LYP) =  -100.893064464     A.U. after    9 cycles
 Optimization completed.
    -- Stationary point found.
 Normal termination of Gaussian 16 at Tue Oct  6 16:35:19 2020.
 Gaussian 16:  ES64L-G16RevA.03 25-Dec-2016

 ----------------------------------------------------------------------
 #P Freq B3LYP/6-31G* 5D 7F Integral=UltraFineGrid SCF=(NoSymm,XQC,MaxC
 yc=120) IOp(1/33=1) Geom=Check Guess=Read
 ----------------------------------------------------------------------

 TstMul:  Mul=     2
 TstMul:  ICh=     0
 TstMul:  Mul=     2
 Structure from the checkpoint file:  "MN_86_RKT10_BH76_B3LYP_631Gs.chk"
 Charge =  0 Multiplicity = 2

                         Standard orientation:
 ---------------------------------------------------------------------
 Center     Atomic      Atomic             Coordinates (Angstroms)
 Number     Number       Type             X           Y           Z
 ---------------------------------------------------------------------
      1          1           0        0.377889   -1.534035   -0.000000
      2          9           0        0.000000    0.340889    0.000000
      3          1           0       -0.377889   -1.533965   -0.000000
 ---------------------------------------------------------------------

 SCF Done:  E(UB3LYP) =  -100.893064464     A.U. after    1 cycles

 The electronic state is 2-A'.
 Alpha  occ. eigenvalues --  -24.74031  -1.17643  -0.53721  -0.42333  -0.42043
 Alpha  occ. eigenvalues --   -0.41859
 Alpha virt. eigenvalues --    0.08195   0.58583   1.04731   1.14245   1.15436
 Alpha virt. eigenvalues --    1.20168   1.37197   1.79908   1.80420   1.82380
 Alpha virt. eigenvalues --    1.84936   1.84938
  Beta  occ. eigenvalues --  -24.71142  -1.09453  -0.46120  -0.39112  -0.38931
  Beta virt. eigenvalues --   -0.20716   0.08879   0.59743   1.06428   1.17108
  Beta virt. eigenvalues --    1.21811   1.24099   1.41374   1.85516   1.85601
  Beta virt. eigenvalues --    1.85604   1.86952   1.87442

 Mulliken charges and spin densities:
               1          2
     1  H    0.040387   0.048538
     2  F   -0.080779   0.902945
     3  H    0.040393   0.048516
 Sum of Mulliken charges =   0.00000   1.00000

 Dipole moment (field-independent basis, Debye):
    X=             -0.0000    Y=             -0.7054    Z=             -0.0000  Tot=              0.7054
 Quadrupole moment (field-independent basis, Debye-Ang):
   XX=             -6.2463   YY=             -5.0295   ZZ=             -6.6744
   XY=             -0.0000   XZ=             -0.0000   YZ=             -0.0000

  Exact polarizability:   7.366  -0.000  11.652  -0.000   0.000   1.508
 Approx polarizability:   9.049  -0.001  13.096  -0.000  -0.000   1.695

 ******    1 imaginary frequencies (negative Signs) ******

                      1                      2                      3
                     A'                     A'                     A'
 Frequencies --   -134.4124               358.1785              4230.6498
 Red. masses --      1.0118                 1.1085                 1.0079
 Frc consts  --      0.0108                 0.0838                10.6283
 IR Inten    --      0.0657                42.4915               118.5818

 - Thermochemistry -
 -------------------
 Temperature   298.150 Kelvin.  Pressure   1.00000 Atm.
 Atom     1 has atomic number  1 and mass   1.00783

 Molecular mass:    21.01405 amu.
 Principal axes and moments of inertia in atomic units:
                           1         2         3
     Eigenvalues --     1.02788  22.87553  23.90341
           X           -0.00000   1.00000   0.00000
           Y            1.00000   0.00000   0.00000
           Z            0.00000   0.00000   1.00000
 This molecule is an asymmetric top.
 Rotational symmetry number  1.
 Rotational temperatures (Kelvin)     84.26474     3.78631     3.62350
 Rotational constants (GHZ):        1755.79216    78.89395    75.50141
    1 imaginary frequencies ignored.
 Zero-point vibrational energy      27447.3 (Joules/Mol)
                                    6.56006 (Kcal/Mol)
 Warning -- explicit consideration of   1 degrees of freedom as
           vibrations may cause significant error
 Vibrational temperatures:    515.34  6086.96
          (Kelvin)

 Zero-point correction=                           0.010454 (Hartree/Particle)
 Thermal correction to Energy=                    0.013639
 Thermal correction to Enthalpy=                  0.014583
 Thermal correction to Gibbs Free Energy=        -0.009967
 Sum of electronic and zero-point Energies=           -100.882610
 Sum of electronic and thermal Energies=              -100.879425
 Sum of electronic and thermal Enthalpies=            -100.878481
 Sum of electronic and thermal Free Energies=         -100.903031

                     E (Thermal)             CV                S
                      KCal/Mol        Cal/Mol-Kelvin    Cal/Mol-Kelvin
 Total                    8.559              7.520             51.669
 Electronic               0.000              0.000              1.377
 Translational            0.889              2.981             35.068
 Rotational               0.889              2.981             14.094
 Vibrational              6.781              1.558              1.130
 Vibration     1          0.733              1.558              1.130

 Optimization completed.
    -- Stationary point found.

 1\1\GINC-NODE52\Freq\UB3LYP\6-31G(d)\F1H2(2)\RPEVERATI\06-Oct-2020\0\\
 #P Freq B3LYP/6-31G* 5D 7F Integral=UltraFineGrid SCF=(NoSymm,XQC,MaxC
 yc=120) IOp(1/33=1) Geom=Check Guess=Read\\TS search on BH76.\\0,2\H,0
 .4565539647,-1.4511981006,0.\F,-0.1638413459,0.3580147181,0.\H,-0.2927
 126188,-1.550195959,0.\\Version=ES64L-G16RevA.03\State=2-A'\HF=-100.89
 30645\S2=0.751304\S2-1=0.\S2A=0.750001\RMSD=0.000e+00\RMSF=1.839e-06\Z
 eroPoint=0.0104541\Thermal=0.013639\Dipole=0.0363777,-0.2751411,0.\Dip
 oleDeriv=0.0640198,-0.2238939,0.,0.0405325,-0.1640767,0.,0.,0.,0.03915

 Normal termination of Gaussian 16 at Tue Oct  6 16:35:35 2020.
