 Gaussian 16, Revision A.03,

 ----------------------------------------------------------------------
 #P Opt(TS,MaxCyc=50,NoEigenTest,MaxStep=10,CalcFC) B3LYP/6-31G* 5D 7F
 Integral=UltraFineGrid SCF=(NoSymm,XQC,MaxCyc=120) IOp(1/33=1)
 ----------------------------------------------------------------------

 TstMul:  Mul=     2
 TstMul:  ICh=     0
 TstMul:  Mul=     2
 Symbolic Z-matrix:
 Charge =  0 Multiplicity = 2

 SCF Done:  E(UB3LYP) =  -343.638950834     A.U. after   14 cycles
 SCF Done:  E(UB3LYP) =  -343.638528160     A.U. after   12 cycles
 SCF Done:  E(UB3LYP) =  -343.638221471     A.U. after   12 cycles
 SCF Done:  E(UB3LYP) =  -343.638019438     A.U. after   12 cycles
 SCF Done:  E(UB3LYP) =  -343.637899259     A.U. after   12 cycles
 SCF Done:  E(UB3LYP) =  -343.637842288     A.U. after   12 cycles
 SCF Done:  E(UB3LYP) =  -343.637831712     A.U. after   11 cycles
 SCF Done:  E(UB3LYP) =  -343.637831228     A.U. after    9 cycles
 Optimization completed.
    -- Stationary point found.
 Normal termination of Gaussian 16 at Tue Oct  6 16:33:50 2020.
 Gaussian 16:  ES64L-G16RevA.03 25-Dec-2016

 ----------------------------------------------------------------------
 #P Freq B3LYP/6-31G* 5D 7F Integral=UltraFineGrid SCF=(NoSymm,XQC,MaxC
 yc=120) IOp(1/33=1) Geom=Check Guess=Read
 ----------------------------------------------------------------------

 TstMul:  Mul=     2
 TstMul:  ICh=     0
 TstMul:  Mul=     2
 Structure from the checkpoint file:  "MN_88_RKT12_BH76_B3LYP_631Gs.chk"
 Charge =  0 Multiplicity = 2

                         Standard orientation:
 ---------------------------------------------------------------------
 Center     Atomic      Atomic             Coordinates (Angstroms)
 Number     Number       Type             X           Y           Z
 ---------------------------------------------------------------------
      1         15           0        0.229494   -0.000000   -0.111720
      2          1           0        0.273821    1.035813    0.865742
      3          1           0        0.273779   -1.035841    0.865714
      4          1           0       -1.223406    0.000029   -0.157769
      5          1           0       -2.766609   -0.000000    0.102112
 ---------------------------------------------------------------------

 SCF Done:  E(UB3LYP) =  -343.637831228     A.U. after    1 cycles

 The electronic state is 2-A.
 Alpha  occ. eigenvalues --  -77.06592  -6.55560  -4.71718  -4.71629  -4.71258
 Alpha  occ. eigenvalues --   -0.65435  -0.41305  -0.39167  -0.30732  -0.26395
 Alpha virt. eigenvalues --    0.02866   0.03437   0.12467   0.27832   0.28959
 Alpha virt. eigenvalues --    0.31115   0.37337   0.65476   0.65882   0.67448
 Alpha virt. eigenvalues --    0.67592   0.72377   0.76655   0.97251   1.14029

  Beta  occ. eigenvalues --  -77.06506  -6.55471  -4.71577  -4.71506  -4.71123
  Beta  occ. eigenvalues --   -0.64860  -0.39529  -0.39071  -0.28138
  Beta virt. eigenvalues --   -0.10141   0.02918   0.04427   0.13175   0.27902
  Beta virt. eigenvalues --    0.29032   0.32437   0.37724   0.66203   0.66399
  Beta virt. eigenvalues --    0.67501   0.68291   0.73289   0.89153   0.98776

 Mulliken charges and spin densities:
               1          2
     1  P   -0.039386   0.163616
     2  H    0.034753  -0.004190
     3  H    0.034753  -0.004190
     4  H   -0.014534  -0.061609
     5  H   -0.015586   0.906374
 Sum of Mulliken charges =  -0.00000   1.00000

 Dipole moment (field-independent basis, Debye):
    X=             -0.1766    Y=             -0.0000    Z=              0.7696  Tot=              0.7897
 Quadrupole moment (field-independent basis, Debye-Ang):
   XX=            -17.7657   YY=            -15.8445   ZZ=            -17.4748
   XY=              0.0000   XZ=              1.2009   YZ=              0.0000

  Exact polarizability:  40.065   0.000  21.649  -0.310  -0.000  19.703
 Approx polarizability:  50.461   0.000  30.973   0.652  -0.000  26.692

 ******    1 imaginary frequencies (negative Signs) ******

                      1                      2                      3
                      A                      A                      A
 Frequencies --   -377.2718               273.2396               275.1350
 Red. masses --      1.0286                 1.0198                 1.0078
 Frc consts  --      0.0863                 0.0449                 0.0449
 IR Inten    --     51.8509                 4.0347                 3.7235

                      4                      5                      6
                      A                      A                      A
 Frequencies --   1036.9703              1153.3838              1162.3805
 Red. masses --      1.0775                 1.0249                 1.0266
 Frc consts  --      0.6826                 0.8033                 0.8172
 IR Inten    --     13.2590                13.5031                 8.1236

                      7                      8                      9
                      A                      A                      A
 Frequencies --   1993.2305              2407.1040              2416.9648
 Red. masses --      1.0442                 1.0351                 1.0409
 Frc consts  --      2.4443                 3.5335                 3.5827
 IR Inten    --    138.2309                73.8446               110.9882

 - Thermochemistry -
 -------------------
 Temperature   298.150 Kelvin.  Pressure   1.00000 Atm.
 Atom     1 has atomic number 15 and mass  30.97376

 Molecular mass:    35.00506 amu.
 Principal axes and moments of inertia in atomic units:
                           1         2         3
     Eigenvalues --    14.28526  44.53055  45.69134
           X            0.99968   0.00000   0.02530
           Y           -0.00000   1.00000  -0.00000
           Z           -0.02530   0.00000   0.99968
 This molecule is an asymmetric top.
 Rotational symmetry number  1.
 Rotational temperatures (Kelvin)      6.06317     1.94504     1.89563
 Rotational constants (GHZ):         126.33593    40.52816    39.49854
    1 imaginary frequencies ignored.
 Zero-point vibrational energy      64110.3 (Joules/Mol)
                                   15.32273 (Kcal/Mol)
 Warning -- explicit consideration of   2 degrees of freedom as
           vibrations may cause significant error
 Vibrational temperatures:    393.13   395.86  1491.97  1659.46  1672.41
          (Kelvin)           2867.81  3463.29  3477.47

 Zero-point correction=                           0.024418 (Hartree/Particle)
 Thermal correction to Energy=                    0.028230
 Thermal correction to Enthalpy=                  0.029174
 Thermal correction to Gibbs Free Energy=         0.000998
 Sum of electronic and zero-point Energies=           -343.613413
 Sum of electronic and thermal Energies=              -343.609601
 Sum of electronic and thermal Enthalpies=            -343.608657
 Sum of electronic and thermal Free Energies=         -343.636833

                     E (Thermal)             CV                S
                      KCal/Mol        Cal/Mol-Kelvin    Cal/Mol-Kelvin
 Total                   17.715             10.227             59.301
 Electronic               0.000              0.000              1.377
 Translational            0.889              2.981             36.589
 Rotational               0.889              2.981             18.014
 Vibrational             15.937              4.266              3.320
 Vibration     1          0.676              1.723              1.576
 Vibration     2          0.677              1.719              1.564

 Optimization completed.
    -- Stationary point found.

 1\1\GINC-NODE42\Freq\UB3LYP\6-31G(d)\H4P1(2)\RPEVERATI\06-Oct-2020\0\\
 #P Freq B3LYP/6-31G* 5D 7F Integral=UltraFineGrid SCF=(NoSymm,XQC,MaxC
 yc=120) IOp(1/33=1) Geom=Check Guess=Read\\TS search on BH76.\\0,2\P,0
 .2645630395,0.0000149694,-0.1103866117\H,0.3029945746,1.0410221717,0.8
 617923729\H,0.3087874465,-1.0305953216,0.8725637657\H,-1.1881842387,-0
 .0043096888,-0.1608398545\H,-2.7321654128,-0.0073572828,0.0943584531\\
 Version=ES64L-G16RevA.03\State=2-A\HF=-343.6378312\S2=0.753539\S2-1=0.
 \S2A=0.750001\RMSD=1.101e-09\RMSF=7.742e-06\ZeroPoint=0.0244183\Therma

 Normal termination of Gaussian 16 at Tue Oct  6 16:34:09 2020.
