 Gaussian 16, Revision A.03,

 ----------------------------------------------------------------------
 #P Opt(TS,MaxCyc=50,NoEigenTest,MaxStep=10,CalcFC) B3LYP/6-31G* 5D 7F
 Integral=UltraFineGrid SCF=(NoSymm,XQC,MaxCyc=120) IOp(1/33=1)
 ----------------------------------------------------------------------

 TstMul:  Mul=     2
 TstMul:  ICh=     0
 TstMul:  Mul=     2
 Symbolic Z-matrix:
 Charge =  0 Multiplicity = 2

 SCF Done:  E(UB3LYP) =  -500.637538854     A.U. after   14 cycles
 SCF Done:  E(UB3LYP) =  -500.636730559     A.U. after   12 cycles
 SCF Done:  E(UB3LYP) =  -500.636147395     A.U. after   12 cycles
 SCF Done:  E(UB3LYP) =  -500.635801840     A.U. after   12 cycles
 SCF Done:  E(UB3LYP) =  -500.635623086     A.U. after   12 cycles
 SCF Done:  E(UB3LYP) =  -500.635556806     A.U. after   12 cycles
 SCF Done:  E(UB3LYP) =  -500.635551983     A.U. after   11 cycles
 SCF Done:  E(UB3LYP) =  -500.635552023     A.U. after    8 cycles
 Optimization completed.
    -- Stationary point found.
 Normal termination of Gaussian 16 at Tue Oct  6 16:33:52 2020.
 Gaussian 16:  ES64L-G16RevA.03 25-Dec-2016

 ----------------------------------------------------------------------
 #P Freq B3LYP/6-31G* 5D 7F Integral=UltraFineGrid SCF=(NoSymm,XQC,MaxC
 yc=120) IOp(1/33=1) Geom=Check Guess=Read
 ----------------------------------------------------------------------

 TstMul:  Mul=     2
 TstMul:  ICh=     0
 TstMul:  Mul=     2
 Structure from the checkpoint file:  "MN_84_RKT08_BH76_B3LYP_631Gs.chk"
 Charge =  0 Multiplicity = 2

                         Standard orientation:
 ---------------------------------------------------------------------
 Center     Atomic      Atomic             Coordinates (Angstroms)
 Number     Number       Type             X           Y           Z
 ---------------------------------------------------------------------
      1          6           0        1.960027   -0.000002    0.000000
      2          1           0        2.114838    0.539980    0.929131
      3          1           0        2.114843    0.534657   -0.932203
      4          1           0        2.114758   -1.074656    0.003074
      5          1           0        0.291346    0.000012   -0.000002
      6         17           0       -1.082115    0.000001   -0.000000
 ---------------------------------------------------------------------

 SCF Done:  E(UB3LYP) =  -500.635552023     A.U. after    1 cycles

 The electronic state is 2-A.
 Alpha  occ. eigenvalues -- -101.50718 -10.23041  -9.44079  -7.20544  -7.19377
 Alpha  occ. eigenvalues --   -7.19377  -0.82019  -0.72794  -0.46180  -0.45500
 Alpha  occ. eigenvalues --   -0.45500  -0.30810  -0.30810  -0.27173
 Alpha virt. eigenvalues --    0.08534   0.10281   0.14832   0.14832   0.39490
 Alpha virt. eigenvalues --    0.42953   0.42998   0.42998   0.53167   0.53445
 Alpha virt. eigenvalues --    0.53445   0.80325   0.85702   0.85703   0.87340

  Beta  occ. eigenvalues -- -101.50539 -10.21798  -9.43909  -7.19998  -7.19272
  Beta  occ. eigenvalues --   -7.19272  -0.80831  -0.69340  -0.44610  -0.44609
  Beta  occ. eigenvalues --   -0.44027  -0.30448  -0.30448
  Beta virt. eigenvalues --   -0.13462   0.09837   0.12771   0.15441   0.15441
  Beta virt. eigenvalues --    0.40289   0.43303   0.43303   0.44628   0.54015
  Beta virt. eigenvalues --    0.54015   0.57833   0.82145   0.86861   0.86861

 Mulliken charges and spin densities:
               1          2
     1  C   -0.519533   0.925037
     2  H    0.205999  -0.033586
     3  H    0.205999  -0.033586
     4  H    0.206001  -0.033585
     5  H    0.129379  -0.028768
     6  Cl  -0.227845   0.204487
 Sum of Mulliken charges =   0.00000   1.00000

 Dipole moment (field-independent basis, Debye):
    X=              3.0148    Y=             -0.0000    Z=             -0.0000  Tot=              3.0148
 Quadrupole moment (field-independent basis, Debye-Ang):
   XX=            -19.1365   YY=            -20.8723   ZZ=            -20.8723
   XY=              0.0001   XZ=             -0.0000   YZ=              0.0000

  Exact polarizability:  39.186   0.000  17.507  -0.000   0.000  17.507
 Approx polarizability:  48.380   0.000  21.429  -0.000   0.000  21.429

 ******    1 imaginary frequencies (negative Signs) ******

                      1                      2                      3
                      A                      A                      A
 Frequencies --   -216.6201               318.4530               318.4759
 Red. masses --      6.0710                 1.0301                 1.0301
 Frc consts  --      0.1678                 0.0616                 0.0616
 IR Inten    --     13.8792                 2.3553                 2.3560

                      4                      5                      6
                      A                      A                      A
 Frequencies --    720.1409               720.1601               841.3448
 Red. masses --      1.0412                 1.0412                 1.1024
 Frc consts  --      0.3181                 0.3182                 0.4598
 IR Inten    --     25.7707                25.7700                73.7471

                      7                      8                      9
                      A                      A                      A
 Frequencies --   1437.9287              1437.9433              1644.8086
 Red. masses --      1.0954                 1.0954                 1.0986
 Frc consts  --      1.3345                 1.3345                 1.7511
 IR Inten    --      4.5952                 4.5950               295.0905

                     10                     11                     12
                      A                      A                      A
 Frequencies --   3122.8792              3290.7852              3290.7936
 Red. masses --      1.0113                 1.1165                 1.1165
 Frc consts  --      5.8107                 7.1235                 7.1235
 IR Inten    --      1.8620                 0.8085                 0.8090

 - Thermochemistry -
 -------------------
 Temperature   298.150 Kelvin.  Pressure   1.00000 Atm.
 Atom     1 has atomic number  6 and mass  12.00000

 Molecular mass:    51.00015 amu.
 Principal axes and moments of inertia in atomic units:
                           1         2         3
     Eigenvalues --    12.46919 361.60438 361.60447
           X            1.00000   0.00000  -0.00000
           Y           -0.00000   1.00000   0.00000
           Z            0.00000  -0.00000   1.00000
 This molecule is an asymmetric top.
 Rotational symmetry number  1.
 Rotational temperatures (Kelvin)      6.94623     0.23953     0.23953
 Rotational constants (GHZ):         144.73599     4.99093     4.99093
    1 imaginary frequencies ignored.
 Zero-point vibrational energy     102542.2 (Joules/Mol)
                                   24.50817 (Kcal/Mol)
 Warning -- explicit consideration of   2 degrees of freedom as
           vibrations may cause significant error
 Vibrational temperatures:    458.18   458.22  1036.12  1036.15  1210.51
          (Kelvin)           2068.86  2068.88  2366.51  4493.13  4734.71
                             4734.72

 Zero-point correction=                           0.039056 (Hartree/Particle)
 Thermal correction to Energy=                    0.042976
 Thermal correction to Enthalpy=                  0.043920
 Thermal correction to Gibbs Free Energy=         0.013265
 Sum of electronic and zero-point Energies=           -500.596496
 Sum of electronic and thermal Energies=              -500.592576
 Sum of electronic and thermal Enthalpies=            -500.591632
 Sum of electronic and thermal Free Energies=         -500.622287

                     E (Thermal)             CV                S
                      KCal/Mol        Cal/Mol-Kelvin    Cal/Mol-Kelvin
 Total                   26.968             11.636             64.519
 Electronic               0.000              0.000              1.377
 Translational            0.889              2.981             37.711
 Rotational               0.889              2.981             22.016
 Vibrational             25.191              5.675              3.415
 Vibration     1          0.705              1.638              1.318
 Vibration     2          0.705              1.638              1.318

 Optimization completed.
    -- Stationary point found.
 Normal termination of Gaussian 16 at Tue Oct  6 16:34:16 2020.
