 Gaussian 16, Revision A.03,

 ----------------------------------------------------------------------
 #P Opt(TS,MaxCyc=50,NoEigenTest,MaxStep=10,CalcFC) B3LYP/6-31G* 5D 7F
 Integral=UltraFineGrid SCF=(NoSymm,XQC,MaxCyc=120) IOp(1/33=1)
 ----------------------------------------------------------------------

 TstMul:  Mul=     2
 TstMul:  ICh=     0
 TstMul:  Mul=     2
 Symbolic Z-matrix:
 Charge =  0 Multiplicity = 2

 SCF Done:  E(UB3LYP) =  -116.232220609     A.U. after   16 cycles
 SCF Done:  E(UB3LYP) =  -116.232245489     A.U. after   15 cycles
 SCF Done:  E(UB3LYP) =  -116.232294401     A.U. after   14 cycles
 SCF Done:  E(UB3LYP) =  -116.232293647     A.U. after   12 cycles
 SCF Done:  E(UB3LYP) =  -116.232291698     A.U. after   16 cycles
 SCF Done:  E(UB3LYP) =  -116.232293521     A.U. after   16 cycles
 SCF Done:  E(UB3LYP) =  -116.232294002     A.U. after   16 cycles
 SCF Done:  E(UB3LYP) =  -116.232294103     A.U. after   12 cycles
 SCF Done:  E(UB3LYP) =  -116.232294126     A.U. after   10 cycles
 SCF Done:  E(UB3LYP) =  -116.232294124     A.U. after    9 cycles
 Optimization completed.
    -- Stationary point found.
 Normal termination of Gaussian 16 at Tue Oct  6 16:33:55 2020.
 Gaussian 16:  ES64L-G16RevA.03 25-Dec-2016

 ----------------------------------------------------------------------
 #P Freq B3LYP/6-31G* 5D 7F Integral=UltraFineGrid SCF=(NoSymm,XQC,MaxC
 yc=120) IOp(1/33=1) Geom=Check Guess=Read
 ----------------------------------------------------------------------

 TstMul:  Mul=     2
 TstMul:  ICh=     0
 TstMul:  Mul=     2
 Structure from the checkpoint file:  "MN_81_RKT04_BH76_B3LYP_631Gs.chk"
 Charge =  0 Multiplicity = 2

                         Standard orientation:
 ---------------------------------------------------------------------
 Center     Atomic      Atomic             Coordinates (Angstroms)
 Number     Number       Type             X           Y           Z
 ---------------------------------------------------------------------
      1          6           0       -1.213132    0.010136    0.000348
      2          8           0        1.287464   -0.109637    0.000128
      3          1           0        0.049540   -0.146963    0.016544
      4          1           0       -1.524431   -0.021355    1.044669
      5          1           0       -1.412653    0.968122   -0.480562
      6          1           0       -1.567192   -0.840295   -0.583494
      7          1           0        1.433816    0.856769   -0.000272
 ---------------------------------------------------------------------

 SCF Done:  E(UB3LYP) =  -116.232294124     A.U. after    1 cycles

 The electronic state is 2-A.
 Alpha  occ. eigenvalues --  -19.15187 -10.19427  -0.98089  -0.71447  -0.49088
 Alpha  occ. eigenvalues --   -0.42433  -0.42222  -0.40755  -0.29339  -0.26936
 Alpha virt. eigenvalues --    0.08442   0.12336   0.15986   0.16258   0.28486
 Alpha virt. eigenvalues --    0.51126   0.51305   0.54203   0.76157   0.82006
 Alpha virt. eigenvalues --    0.88001   0.88138   0.89968   0.91530   0.97321

  Beta  occ. eigenvalues --  -19.13625 -10.18564  -0.94061  -0.69114  -0.45996
  Beta  occ. eigenvalues --   -0.41633  -0.41482  -0.36735  -0.27757
  Beta virt. eigenvalues --   -0.12386   0.09053   0.13010   0.16535   0.16815
  Beta virt. eigenvalues --    0.30699   0.51593   0.51729   0.57941   0.76637
  Beta virt. eigenvalues --    0.83439   0.88611   0.88772   0.90900   0.92480

 Mulliken charges and spin densities:
               1          2
     1  C   -0.636464   0.548111
     2  O   -0.644202   0.578140
     3  H    0.349046  -0.069744
     4  H    0.183653  -0.013815
     5  H    0.174761  -0.016809
     6  H    0.188062  -0.011950
     7  H    0.385145  -0.013933
 Sum of Mulliken charges =  -0.00000   1.00000

 Dipole moment (field-independent basis, Debye):
    X=             -1.3844    Y=              1.5301    Z=              0.0027  Tot=              2.0635
 Quadrupole moment (field-independent basis, Debye-Ang):
   XX=            -14.6038   YY=            -12.5469   ZZ=            -14.4066
   XY=              2.6176   XZ=             -0.0057   YZ=              0.0185

  Exact polarizability:  35.385   1.160  17.968  -0.065  -0.007  14.460
 Approx polarizability:  43.872  -0.001  22.659  -0.145  -0.018  17.174

 ******    1 imaginary frequencies (negative Signs) ******

                      1                      2                      3
                      A                      A                      A
 Frequencies --  -1432.9748                26.9244               320.4990
 Red. masses --      1.0718                 1.0465                 1.0729
 Frc consts  --      1.2967                 0.0004                 0.0649
 IR Inten    --    591.6419                81.6027                10.4728

                      4                      5                      6
                      A                      A                      A
 Frequencies --    381.0812               610.6461               904.3319
 Red. masses --      1.1298                 3.3598                 1.1740
 Frc consts  --      0.0967                 0.7382                 0.5657
 IR Inten    --     10.5057                30.2018                94.1456

                      7                      8                      9
                      A                      A                      A
 Frequencies --   1114.4461              1253.0438              1452.1789
 Red. masses --      1.0906                 1.1590                 1.1058
 Frc consts  --      0.7981                 1.0721                 1.3739
 IR Inten    --     44.0675                 0.6480                34.9284

                     10                     11                     12
                      A                      A                      A
 Frequencies --   1467.3618              1504.7661              3089.8947
 Red. masses --      1.0661                 1.0236                 1.0214
 Frc consts  --      1.3524                 1.3656                 5.7453
 IR Inten    --      2.9141                50.3854                 1.6934

                     13                     14                     15
                      A                      A                      A
 Frequencies --   3215.2800              3219.0536              3684.1960
 Red. masses --      1.1088                 1.1094                 1.0664
 Frc consts  --      6.7537                 6.7730                 8.5282
 IR Inten    --     10.4631                 9.9728                13.2398

 - Thermochemistry -
 -------------------
 Temperature   298.150 Kelvin.  Pressure   1.00000 Atm.
 Atom     1 has atomic number  6 and mass  12.00000

 Molecular mass:    33.03404 amu.
 Principal axes and moments of inertia in atomic units:
                           1         2         3
     Eigenvalues --    15.15196 194.64467 197.82623
           X            0.99975   0.02228   0.00003
           Y           -0.02228   0.99975   0.00005
           Z           -0.00003  -0.00005   1.00000
 This molecule is an asymmetric top.
 Rotational symmetry number  1.
 Rotational temperatures (Kelvin)      5.71635     0.44498     0.43783
 Rotational constants (GHZ):         119.10943     9.27198     9.12286
    1 imaginary frequencies ignored.
 Zero-point vibrational energy     133046.9 (Joules/Mol)
                                   31.79897 (Kcal/Mol)
 Warning -- explicit consideration of   4 degrees of freedom as
           vibrations may cause significant error
 Vibrational temperatures:     38.74   461.13   548.29   878.58  1301.13
          (Kelvin)           1603.44  1802.85  2089.36  2111.21  2165.02
                             4445.67  4626.07  4631.50  5300.74

 Zero-point correction=                           0.050675 (Hartree/Particle)
 Thermal correction to Energy=                    0.055376
 Thermal correction to Enthalpy=                  0.056320
 Thermal correction to Gibbs Free Energy=         0.024070
 Sum of electronic and zero-point Energies=           -116.181619
 Sum of electronic and thermal Energies=              -116.176918
 Sum of electronic and thermal Enthalpies=            -116.175974
 Sum of electronic and thermal Free Energies=         -116.208224

                     E (Thermal)             CV                S
                      KCal/Mol        Cal/Mol-Kelvin    Cal/Mol-Kelvin
 Total                   34.749             13.281             67.875
 Electronic               0.000              0.000              1.377
 Translational            0.889              2.981             36.416
 Rotational               0.889              2.981             20.995
 Vibrational             32.971              7.320              9.087
 Vibration     1          0.593              1.984              6.044
 Vibration     2          0.706              1.634              1.308
 Vibration     3          0.751              1.511              1.035
 Vibration     4          0.970              1.009              0.432

 Optimization completed.
    -- Stationary point found.
 Normal termination of Gaussian 16 at Tue Oct  6 16:34:21 2020.
