 Gaussian 16, Revision A.03,

 ----------------------------------------------------------------------
 #P Opt(TS,MaxCyc=50,NoEigenTest,MaxStep=10,CalcFC) B3LYP/6-31G* 5D 7F
 Integral=UltraFineGrid SCF=(NoSymm,XQC,MaxCyc=120) IOp(1/33=1)
 ----------------------------------------------------------------------

 TstMul:  Mul=     2
 TstMul:  ICh=     0
 TstMul:  Mul=     2
 Symbolic Z-matrix:
 Charge =  0 Multiplicity = 2

 SCF Done:  E(UB3LYP) =  -1.66874363359     A.U. after    9 cycles
 SCF Done:  E(UB3LYP) =  -1.66874786198     A.U. after    7 cycles
 Optimization completed.
    -- Stationary point found.
 Normal termination of Gaussian 16 at Tue Oct  6 16:32:18 2020.
 Gaussian 16:  ES64L-G16RevA.03 25-Dec-2016

 ----------------------------------------------------------------------
 #P Freq B3LYP/6-31G* 5D 7F Integral=UltraFineGrid SCF=(NoSymm,XQC,MaxC
 yc=120) IOp(1/33=1) Geom=Check Guess=Read
 ----------------------------------------------------------------------

 TstMul:  Mul=     2
 TstMul:  ICh=     0
 TstMul:  Mul=     2
 Structure from the checkpoint file:  "MN_82_RKT06_BH76_B3LYP_631Gs.chk"
 Charge =  0 Multiplicity = 2

                         Standard orientation:
 ---------------------------------------------------------------------
 Center     Atomic      Atomic             Coordinates (Angstroms)
 Number     Number       Type             X           Y           Z
 ---------------------------------------------------------------------
      1          1           0        0.000000    0.000000    0.000000
      2          1           0        0.000000    0.000000    0.932143
      3          1           0        0.000000    0.000000   -0.932143
 ---------------------------------------------------------------------

 SCF Done:  E(UB3LYP) =  -1.66874786198     A.U. after    1 cycles

 The electronic state is 2-SGU.
 Alpha  occ. eigenvalues --   -0.51044  -0.25617
 Alpha virt. eigenvalues --    0.15151   0.66755   0.74449   1.01628
  Beta  occ. eigenvalues --   -0.45987
  Beta virt. eigenvalues --   -0.09744   0.18923   0.71439   0.83240   1.05425

 Mulliken charges and spin densities:
               1          2
     1  H   -0.097178  -0.184903
     2  H    0.048589   0.592451
     3  H    0.048589   0.592451
 Sum of Mulliken charges =  -0.00000   1.00000

 Dipole moment (field-independent basis, Debye):
    X=              0.0000    Y=              0.0000    Z=             -0.0000  Tot=              0.0000
 Quadrupole moment (field-independent basis, Debye-Ang):
   XX=             -3.2869   YY=             -3.2869   ZZ=             -3.3107
   XY=              0.0000   XZ=              0.0000   YZ=              0.0000

  Exact polarizability:   0.000   0.000   0.000  -0.000   0.000  18.246
 Approx polarizability:   0.000  -0.000  -0.000  -0.000  -0.000  22.848

 ******    1 imaginary frequencies (negative Signs) ******

                      1                      2                      3
                     SGU                    PIU                    PIU
 Frequencies --   -892.1362              1094.5684              1094.5684
 Red. masses --      1.0078                 1.0078                 1.0078
 Frc consts  --      0.4726                 0.7114                 0.7114
 IR Inten    --    101.5630                 7.6529                 7.6529

                      4
                     SGG
 Frequencies --   2066.6397
 Red. masses --      1.0078
 Frc consts  --      2.5361
 IR Inten    --      0.0000

 - Thermochemistry -
 -------------------
 Temperature   298.150 Kelvin.  Pressure   1.00000 Atm.
 Atom     1 has atomic number  1 and mass   1.00783

 Molecular mass:     3.02348 amu.
 Principal axes and moments of inertia in atomic units:
                           1         2         3
     Eigenvalues --     0.00000   6.25429   6.25429
           X           -0.00000   1.00000   0.00000
           Y            0.00000   0.00000   1.00000
           Z            1.00000   0.00000   0.00000
 This molecule is a prolate symmetric top.
 Rotational symmetry number  2.
 Rotational temperature (Kelvin)     13.84873
 Rotational constant (GHZ):         288.560596
    1 imaginary frequencies ignored.
 Zero-point vibrational energy      25455.2 (Joules/Mol)
                                    6.08394 (Kcal/Mol)
 Vibrational temperatures:   1574.84  1574.84  2973.43
          (Kelvin)

 Zero-point correction=                           0.009695 (Hartree/Particle)
 Thermal correction to Energy=                    0.012107
 Thermal correction to Enthalpy=                  0.013051
 Thermal correction to Gibbs Free Energy=        -0.004768
 Sum of electronic and zero-point Energies=             -1.659052
 Sum of electronic and thermal Energies=                -1.656641
 Sum of electronic and thermal Enthalpies=              -1.655696
 Sum of electronic and thermal Free Energies=           -1.673516

                     E (Thermal)             CV                S
                      KCal/Mol        Cal/Mol-Kelvin    Cal/Mol-Kelvin
 Total                    7.597              5.547             37.504
 Electronic               0.000              0.000              1.377
 Translational            0.889              2.981             29.289
 Rotational               0.592              1.987              6.709
 Vibrational              6.116              0.579              0.128

 Optimization completed.
    -- Stationary point found.
 Normal termination of Gaussian 16 at Tue Oct  6 16:32:36 2020.
