 Gaussian 16, Revision A.03,

 ----------------------------------------------------------------------
 #P Opt(TS,MaxCyc=50,NoEigenTest,MaxStep=10,CalcFC) B3LYP/6-31G* 5D 7F
 Integral=UltraFineGrid SCF=(NoSymm,XQC,MaxCyc=120) IOp(1/33=1)
 ----------------------------------------------------------------------

 TstMul:  Mul=     2
 TstMul:  ICh=     0
 TstMul:  Mul=     2
 Symbolic Z-matrix:
 Charge =  0 Multiplicity = 2

 SCF Done:  E(UB3LYP) =  -41.0013370521     A.U. after   13 cycles
 SCF Done:  E(UB3LYP) =  -41.0013178583     A.U. after   11 cycles
 SCF Done:  E(UB3LYP) =  -41.0013183396     A.U. after    9 cycles
 Optimization completed.
    -- Stationary point found.
 Normal termination of Gaussian 16 at Tue Oct  6 16:32:08 2020.
 Gaussian 16:  ES64L-G16RevA.03 25-Dec-2016

 ----------------------------------------------------------------------
 #P Freq B3LYP/6-31G* 5D 7F Integral=UltraFineGrid SCF=(NoSymm,XQC,MaxC
 yc=120) IOp(1/33=1) Geom=Check Guess=Read
 ----------------------------------------------------------------------

 TstMul:  Mul=     2
 TstMul:  ICh=     0
 TstMul:  Mul=     2
 Structure from the checkpoint file:  "MN_80_RKT03_BH76_B3LYP_631Gs.chk"
 Charge =  0 Multiplicity = 2

                         Standard orientation:
 ---------------------------------------------------------------------
 Center     Atomic      Atomic             Coordinates (Angstroms)
 Number     Number       Type             X           Y           Z
 ---------------------------------------------------------------------
      1          6           0        0.000000    0.271993    0.000000
      2          1           0        1.059610    0.520744    0.000000
      3          1           0       -0.529816    0.520723    0.917651
      4          1           0       -0.529816    0.520723   -0.917651
      5          1           0        0.000010   -1.152073    0.000000
      6          1           0        0.000012   -2.042074    0.000000
 ---------------------------------------------------------------------

 SCF Done:  E(UB3LYP) =  -41.0013183396     A.U. after    1 cycles

 The electronic state is 2-A'.
 Alpha  occ. eigenvalues --  -10.18909  -0.70199  -0.44790  -0.41634  -0.41634
 Alpha  occ. eigenvalues --   -0.21332
 Alpha virt. eigenvalues --    0.11461   0.16961   0.16961   0.19992   0.52478
 Alpha virt. eigenvalues --    0.52478   0.55560   0.69377   0.89355   0.89356
 Alpha virt. eigenvalues --    0.92414   0.99930   1.20064   1.63550   1.63550

  Beta  occ. eigenvalues --  -10.17790  -0.67428  -0.40870  -0.40869  -0.40618
  Beta virt. eigenvalues --   -0.07368   0.12306   0.17613   0.17613   0.22884
  Beta virt. eigenvalues --    0.52942   0.52942   0.60514   0.73229   0.90072
  Beta virt. eigenvalues --    0.90072   0.94566   1.00868   1.22572   1.67765

 Mulliken charges and spin densities:
               1          2
     1  C   -0.521633   0.730731
     2  H    0.177045  -0.022870
     3  H    0.177045  -0.022870
     4  H    0.177045  -0.022870
     5  H    0.003300  -0.149442
     6  H   -0.012801   0.487320
 Sum of Mulliken charges =   0.00000   1.00000

 Dipole moment (field-independent basis, Debye):
    X=             -0.0000    Y=              0.7564    Z=             -0.0000  Tot=              0.7564
 Quadrupole moment (field-independent basis, Debye-Ang):
   XX=             -9.2346   YY=            -11.2329   ZZ=             -9.2346
   XY=              0.0000   XZ=             -0.0000   YZ=              0.0000

  Exact polarizability:  12.248  -0.000  28.172   0.000  -0.000  12.248
 Approx polarizability:  14.387  -0.000  33.961   0.000  -0.000  14.387

 ******    1 imaginary frequencies (negative Signs) ******

                      1                      2                      3
                     A'                     A"                     A'
 Frequencies --  -1142.6376               567.5326               567.5596
 Red. masses --      1.1663                 1.0471                 1.0471
 Frc consts  --      0.8972                 0.1987                 0.1987
 IR Inten    --      5.6948                 1.0425                 1.0425

                      4                      5                      6
                     A'                     A"                     A'
 Frequencies --   1090.1283              1190.5695              1190.5713
 Red. masses --      1.0780                 1.0465                 1.0465
 Frc consts  --      0.7548                 0.8740                 0.8740
 IR Inten    --      6.3676                 1.4505                 1.4504

                      7                      8                      9
                     A'                     A"                     A'
 Frequencies --   1458.8744              1458.8878              1908.2935
 Red. masses --      1.0757                 1.0757                 1.0731
 Frc consts  --      1.3489                 1.3490                 2.3024
 IR Inten    --      3.4548                 3.4547                29.8369

                     10                     11                     12
                     A'                     A"                     A'
 Frequencies --   3102.2955              3245.1648              3245.2104
 Red. masses --      1.0171                 1.1125                 1.1125
 Frc consts  --      5.7672                 6.9030                 6.9032
 IR Inten    --      0.3601                11.9013                11.8998

 - Thermochemistry -
 -------------------
 Temperature   298.150 Kelvin.  Pressure   1.00000 Atm.
 Atom     1 has atomic number  6 and mass  12.00000

 Molecular mass:    17.03913 amu.
 Principal axes and moments of inertia in atomic units:
                           1         2         3
     Eigenvalues --    12.12272  31.39480  31.39487
           X           -0.00000   1.00000   0.00000
           Y            1.00000   0.00000   0.00000
           Z            0.00000   0.00000   1.00000
 This molecule is an asymmetric top.
 Rotational symmetry number  1.
 Rotational temperatures (Kelvin)      7.14476     2.75886     2.75886
 Rotational constants (GHZ):         148.87262    57.48535    57.48522
    1 imaginary frequencies ignored.
 Zero-point vibrational energy     113795.3 (Joules/Mol)
                                   27.19773 (Kcal/Mol)
 Warning -- explicit consideration of   2 degrees of freedom as
           vibrations may cause significant error
 Vibrational temperatures:    816.55   816.59  1568.45  1712.96  1712.97
          (Kelvin)           2098.99  2099.01  2745.61  4463.51  4669.07
                             4669.13

 Zero-point correction=                           0.043342 (Hartree/Particle)
 Thermal correction to Energy=                    0.046606
 Thermal correction to Enthalpy=                  0.047550
 Thermal correction to Gibbs Free Energy=         0.021821
 Sum of electronic and zero-point Energies=            -40.957976
 Sum of electronic and thermal Energies=               -40.954713
 Sum of electronic and thermal Enthalpies=             -40.953769
 Sum of electronic and thermal Free Energies=          -40.979497

                     E (Thermal)             CV                S
                      KCal/Mol        Cal/Mol-Kelvin    Cal/Mol-Kelvin
 Total                   29.245              9.065             54.151
 Electronic               0.000              0.000              1.377
 Translational            0.889              2.981             34.443
 Rotational               0.889              2.981             17.131
 Vibrational             27.468              3.104              1.199
 Vibration     1          0.923              1.101              0.509
 Vibration     2          0.924              1.101              0.509

 Optimization completed.
    -- Stationary point found.

 1\1\GINC-NODE33\Freq\UB3LYP\6-31G(d)\C1H5(2)\RPEVERATI\06-Oct-2020\0\\
 #P Freq B3LYP/6-31G* 5D 7F Integral=UltraFineGrid SCF=(NoSymm,XQC,MaxC
 yc=120) IOp(1/33=1) Geom=Check Guess=Read\\TS search on BH76.\\0,2\C,0
 .0000453123,0.277978185,0.\H,1.0596777123,0.5266355346,0.\H,-0.5297488
 137,0.5267555207,0.9176506938\H,-0.5297488137,0.5267555207,-0.91765069
 38\H,-0.0000702982,-1.1460876811,0.\H,-0.0001472901,-2.0360891264,0.\\
 Version=ES64L-G16RevA.03\State=2-A'\HF=-41.0013183\S2=0.758448\S2-1=0.
 \S2A=0.750023\RMSD=5.039e-10\RMSF=1.709e-05\ZeroPoint=0.0433423\Therma

 Normal termination of Gaussian 16 at Tue Oct  6 16:32:27 2020.
