 Gaussian 16, Revision A.03,

 ----------------------------------------------------------------------
 #P Opt(TS,MaxCyc=50,NoEigenTest,MaxStep=10,CalcFC) B3LYP/6-31G* 5D 7F
 Integral=UltraFineGrid SCF=(NoSymm,XQC,MaxCyc=120) IOp(1/33=1)
 ----------------------------------------------------------------------

 TstMul:  Mul=     3
 TstMul:  ICh=     0
 TstMul:  Mul=     3
 Symbolic Z-matrix:
 Charge =  0 Multiplicity = 3

 SCF Done:  E(UB3LYP) =  -76.2188614647     A.U. after   12 cycles
 SCF Done:  E(UB3LYP) =  -76.2184659650     A.U. after   11 cycles
 SCF Done:  E(UB3LYP) =  -76.2183682481     A.U. after   11 cycles
 SCF Done:  E(UB3LYP) =  -76.2183960978     A.U. after    9 cycles
 SCF Done:  E(UB3LYP) =  -76.2183950348     A.U. after    8 cycles
 Optimization completed.
    -- Stationary point found.
 Normal termination of Gaussian 16 at Tue Oct  6 16:33:20 2020.
 Gaussian 16:  ES64L-G16RevA.03 25-Dec-2016

 ----------------------------------------------------------------------
 #P Freq B3LYP/6-31G* 5D 7F Integral=UltraFineGrid SCF=(NoSymm,XQC,MaxC
 yc=120) IOp(1/33=1) Geom=Check Guess=Read
 ----------------------------------------------------------------------

 TstMul:  Mul=     3
 TstMul:  ICh=     0
 TstMul:  Mul=     3
 Structure from the checkpoint file:  "MN_89_RKT14_BH76_B3LYP_631Gs.chk"
 Charge =  0 Multiplicity = 3

                         Standard orientation:
 ---------------------------------------------------------------------
 Center     Atomic      Atomic             Coordinates (Angstroms)
 Number     Number       Type             X           Y           Z
 ---------------------------------------------------------------------
      1          1           0        0.000000    0.000000   -0.803463
      2          8           0        0.000000    0.000000    0.325947
      3          1           0        0.000000    0.000000   -1.804115
 ---------------------------------------------------------------------

 SCF Done:  E(UB3LYP) =  -76.2183950348     A.U. after    1 cycles

 Unable to determine electronic state:  partially filled degenerate orbitals.
 Alpha  occ. eigenvalues --  -19.23440  -1.00510  -0.52895  -0.41894  -0.34358
 Alpha  occ. eigenvalues --   -0.33045
 Alpha virt. eigenvalues --    0.17563   0.63626   0.76384   0.80446   0.85244
 Alpha virt. eigenvalues --    0.91956   1.37461   1.68235   1.73080   1.74220
 Alpha virt. eigenvalues --    1.74255   2.22397
  Beta  occ. eigenvalues --  -19.19788  -0.90009  -0.45101  -0.30570
  Beta virt. eigenvalues --   -0.15604  -0.15518   0.21737   0.66899   0.84307
  Beta virt. eigenvalues --    0.87416   0.91002   0.96684   1.43355   1.76523
  Beta virt. eigenvalues --    1.77580   1.80863   1.81668   2.27686

 Mulliken charges and spin densities:
               1          2
     1  H    0.255267  -0.099498
     2  O   -0.281732   1.443226
     3  H    0.026465   0.656273
 Sum of Mulliken charges =  -0.00000   2.00000

 Dipole moment (field-independent basis, Debye):
    X=              0.0000    Y=              0.0000    Z=             -1.2384  Tot=              1.2384
 Quadrupole moment (field-independent basis, Debye-Ang):
   XX=             -7.6941   YY=             -6.5598   ZZ=             -6.2428
   XY=             -0.0000   XZ=              0.0000   YZ=             -0.0000

  Exact polarizability:   2.305   0.000   2.636   0.000  -0.000  19.897
 Approx polarizability:   2.412   0.000   3.161   0.000  -0.000  26.531

 ******    1 imaginary frequencies (negative Signs) ******

                      1                      2                      3
                     SG                     PI                     PI
 Frequencies --  -1287.2727               466.1265               889.4937
 Red. masses --      1.0211                 1.0181                 1.0181
 Frc consts  --      0.9969                 0.1303                 0.4746
 IR Inten    --    263.2826                29.1990                23.1252

                      4
                     SG
 Frequencies --   1490.8828
 Red. masses --      1.1098
 Frc consts  --      1.4534
 IR Inten    --      6.9615

 - Thermochemistry -
 -------------------
 Temperature   298.150 Kelvin.  Pressure   1.00000 Atm.
 Atom     1 has atomic number  1 and mass   1.00783

 Molecular mass:    18.01056 amu.
 Principal axes and moments of inertia in atomic units:
                           1         2         3
     Eigenvalues --     0.00000  18.78046  18.78046
           X            0.00000   0.00000   1.00000
           Y            0.00000   1.00000   0.00000
           Z            1.00000   0.00000   0.00000
 This molecule is a prolate symmetric top.
 Rotational symmetry number  1.
 Rotational temperature (Kelvin)      4.61192
 Rotational constant (GHZ):          96.096764
    1 imaginary frequencies ignored.
 Zero-point vibrational energy      17025.9 (Joules/Mol)
                                    4.06928 (Kcal/Mol)
 Warning -- explicit consideration of   1 degrees of freedom as
           vibrations may cause significant error
 Vibrational temperatures:    670.65  1279.78  2145.05
          (Kelvin)

 Zero-point correction=                           0.006485 (Hartree/Particle)
 Thermal correction to Energy=                    0.009157
 Thermal correction to Enthalpy=                  0.010101
 Thermal correction to Gibbs Free Energy=        -0.012691
 Sum of electronic and zero-point Energies=            -76.211910
 Sum of electronic and thermal Energies=               -76.209238
 Sum of electronic and thermal Enthalpies=             -76.208294
 Sum of electronic and thermal Free Energies=          -76.231086

                     E (Thermal)             CV                S
                      KCal/Mol        Cal/Mol-Kelvin    Cal/Mol-Kelvin
 Total                    5.746              6.885             47.970
 Electronic               0.000              0.000              2.183
 Translational            0.889              2.981             34.608
 Rotational               0.592              1.987             10.272
 Vibrational              4.265              1.917              0.906
 Vibration     1          0.823              1.325              0.748

 Optimization completed.
    -- Stationary point found.

 1\1\GINC-NODE33\Freq\UB3LYP\6-31G(d)\H2O1(3)\RPEVERATI\06-Oct-2020\0\\
 #P Freq B3LYP/6-31G* 5D 7F Integral=UltraFineGrid SCF=(NoSymm,XQC,MaxC
 yc=120) IOp(1/33=1) Geom=Check Guess=Read\\TS search on BH76.\\0,3\H,0
 .,0.,-0.8106436627\O,0.,0.,0.318766633\H,0.,0.,-1.8112953414\\Version=
 ES64L-G16RevA.03\HF=-76.218395\S2=2.010917\S2-1=0.\S2A=2.000019\RMSD=1
 .958e-09\RMSF=5.152e-05\ZeroPoint=0.0064848\Thermal=0.009157\Dipole=0.
 ,0.,-0.4872306\DipoleDeriv=0.1994584,0.,0.,0.,0.1826582,0.,0.,0.,-0.43
 57148,-0.2147307,0.,0.,0.,-0.2068474,0.,0.,0.,0.1385279,0.0152724,0.,0

 Normal termination of Gaussian 16 at Tue Oct  6 16:33:38 2020.
