 Gaussian 16, Revision A.03,

 ----------------------------------------------------------------------
 #P Opt(TS,MaxCyc=50,NoEigenTest,MaxStep=10,CalcFC) B3LYP/6-31G* 5D 7F
 Integral=UltraFineGrid SCF=(NoSymm,XQC,MaxCyc=120) IOp(1/33=1)
 ----------------------------------------------------------------------

 TstMul:  Mul=     1
 TstMul:  ICh=     0
 TstMul:  Mul=     1
 Symbolic Z-matrix:
 Charge =  0 Multiplicity = 1

 SCF Done:  E(RB3LYP) =  -195.243833333     A.U. after   13 cycles
 SCF Done:  E(RB3LYP) =  -195.244275741     A.U. after   11 cycles
 SCF Done:  E(RB3LYP) =  -195.244277359     A.U. after    8 cycles
 Optimization completed.
    -- Stationary point found.
 Normal termination of Gaussian 16 at Tue Oct  6 16:35:26 2020.
 Gaussian 16:  ES64L-G16RevA.03 25-Dec-2016

 ----------------------------------------------------------------------
 #P Freq B3LYP/6-31G* 5D 7F Integral=UltraFineGrid SCF=(NoSymm,XQC,MaxC
 yc=120) IOp(1/33=1) Geom=Check Guess=Read
 ----------------------------------------------------------------------

 TstMul:  Mul=     1
 TstMul:  ICh=     0
 TstMul:  Mul=     1
 Structure from the checkpoint file:  "MN_96_RKT22_BH76_B3LYP_631Gs.chk"
 Charge =  0 Multiplicity = 1

                         Standard orientation:
 ---------------------------------------------------------------------
 Center     Atomic      Atomic             Coordinates (Angstroms)
 Number     Number       Type             X           Y           Z
 ---------------------------------------------------------------------
      1          6           0       -1.309244   -0.907074   -0.022456
      2          6           0       -1.211890    0.508080   -0.012117
      3          6           0       -0.000000    1.184811    0.151022
      4          6           0        1.211890    0.508080   -0.012117
      5          6           0        1.309244   -0.907074   -0.022456
      6          1           0        2.181331   -1.330391   -0.525367
      7          1           0        1.068789   -1.458563    0.886251
      8          1           0        2.046322    1.094007   -0.397691
      9          1           0       -0.000000    2.270649    0.089722
     10          1           0       -2.046322    1.094007   -0.397691
     11          1           0       -2.181331   -1.330391   -0.525367
     12          1           0        0.000000   -1.201694   -0.507365
     13          1           0       -1.068789   -1.458563    0.886251
 ---------------------------------------------------------------------

 SCF Done:  E(RB3LYP) =  -195.244277359     A.U. after    1 cycles

 The electronic state is 1-A.
 Alpha  occ. eigenvalues --  -10.18582 -10.18581 -10.17780 -10.17556 -10.17556
 Alpha  occ. eigenvalues --   -0.82025  -0.73542  -0.68781  -0.58669  -0.52685
 Alpha  occ. eigenvalues --   -0.49219  -0.42211  -0.41081  -0.40680  -0.38375
 Alpha  occ. eigenvalues --   -0.36145  -0.34868  -0.25616  -0.21766
 Alpha virt. eigenvalues --   -0.02160   0.03247   0.09720   0.12735   0.14382
 Alpha virt. eigenvalues --    0.17387   0.18601   0.19283   0.21904   0.23476
 Alpha virt. eigenvalues --    0.28073   0.29828   0.35391   0.41954   0.51093

 Mulliken charges:
               1
     1  C   -0.472968
     2  C   -0.069581
     3  C   -0.128784
     4  C   -0.069581
     5  C   -0.472968
     6  H    0.140371
     7  H    0.178894
     8  H    0.136983
     9  H    0.122557
    10  H    0.136983
    11  H    0.140371
    12  H    0.178827
    13  H    0.178894
 Sum of Mulliken charges =  -0.00000

 Dipole moment (field-independent basis, Debye):
    X=              0.0000    Y=              0.0341    Z=             -0.1172  Tot=              0.1221
 Quadrupole moment (field-independent basis, Debye-Ang):
   XX=            -30.2519   YY=            -29.9748   ZZ=            -33.5312
   XY=             -0.0000   XZ=             -0.0000   YZ=             -1.3440

  Exact polarizability:  73.640   0.000  62.687  -0.000  -0.594  29.361
 Approx polarizability: 123.589   0.000 104.527  -0.000   3.388  42.905

 ******    1 imaginary frequencies (negative Signs) ******

                      1                      2                      3
                      A                      A                      A
 Frequencies --  -1551.0679               277.5398               469.9527
 Red. masses --      1.1921                 2.1188                 2.3068
 Frc consts  --      1.6897                 0.0962                 0.3002
 IR Inten    --     12.3479                 0.1876                 0.7599

                      4                      5                      6
                      A                      A                      A
 Frequencies --    512.4486               561.8795               621.1533
 Red. masses --      2.4949                 3.5726                 1.3097
 Frc consts  --      0.3860                 0.6645                 0.2977
 IR Inten    --      3.2736                 3.2054                27.0178

                      7                      8                      9
                      A                      A                      A
 Frequencies --    750.5775               803.3111               819.6115
 Red. masses --      1.9581                 1.2443                 1.2732
 Frc consts  --      0.6499                 0.4731                 0.5039
 IR Inten    --      9.1576                 3.6757                42.8070

                     10                     11                     12
                      A                      A                      A
 Frequencies --    982.0319               991.8635              1013.2860
 Red. masses --      1.4083                 1.3105                 1.8719
 Frc consts  --      0.8002                 0.7596                 1.1324
 IR Inten    --      7.7586                 0.8982                 4.2927

                     13                     14                     15
                      A                      A                      A
 Frequencies --   1020.5789              1021.7495              1111.0005
 Red. masses --      1.6345                 1.3632                 1.3251
 Frc consts  --      1.0030                 0.8385                 0.9636
 IR Inten    --     17.0774                 0.3690                 2.8350

                     16                     17                     18
                      A                      A                      A
 Frequencies --   1144.8083              1202.1050              1265.9378
 Red. masses --      1.5824                 1.1822                 1.5133
 Frc consts  --      1.2219                 1.0065                 1.4289
 IR Inten    --      1.8016                 4.9824                 7.1636

                     19                     20                     21
                      A                      A                      A
 Frequencies --   1283.4574              1440.0643              1454.8671
 Red. masses --      1.2407                 1.1140                 1.3877
 Frc consts  --      1.2042                 1.3611                 1.7306
 IR Inten    --     11.9107                10.5027                 2.0374

                     22                     23                     24
                      A                      A                      A
 Frequencies --   1494.0638              1540.7880              1559.9682
 Red. masses --      1.0730                 1.4944                 1.6669
 Frc consts  --      1.4113                 2.0903                 2.3900
 IR Inten    --      4.2441                 0.1808                 0.6227

                     25                     26                     27
                      A                      A                      A
 Frequencies --   1564.4042              1618.4733              3111.0506
 Red. masses --      3.8023                 1.5188                 1.0572
 Frc consts  --      5.4827                 2.3440                 6.0288
 IR Inten    --      9.4930                 3.5267                27.8265

                     28                     29                     30
                      A                      A                      A
 Frequencies --   3111.3013              3149.0920              3152.5837
 Red. masses --      1.0570                 1.0879                 1.0929
 Frc consts  --      6.0285                 6.3566                 6.4000
 IR Inten    --     14.3833                 0.5363                 7.8255

                     31                     32                     33
                      A                      A                      A
 Frequencies --   3170.0990              3175.2223              3189.9487
 Red. masses --      1.1100                 1.1074                 1.0942
 Frc consts  --      6.5726                 6.5779                 6.5599
 IR Inten    --     32.1741                16.7802                27.9609

 - Thermochemistry -
 -------------------
 Temperature   298.150 Kelvin.  Pressure   1.00000 Atm.
 Atom     1 has atomic number  6 and mass  12.00000

 Molecular mass:    68.06260 amu.
 Principal axes and moments of inertia in atomic units:
                           1         2         3
     Eigenvalues --   223.69529 356.05799 558.43051
           X            1.00000  -0.00000  -0.00000
           Y            0.00000   0.99977  -0.02150
           Z            0.00000   0.02150   0.99977
 This molecule is an asymmetric top.
 Rotational symmetry number  1.
 Rotational temperatures (Kelvin)      0.38720     0.24326     0.15510
 Rotational constants (GHZ):           8.06786     5.06867     3.23181
    1 imaginary frequencies ignored.
 Zero-point vibrational energy     290604.1 (Joules/Mol)
                                   69.45606 (Kcal/Mol)
 Warning -- explicit consideration of   4 degrees of freedom as
           vibrations may cause significant error
 Vibrational temperatures:    399.32   676.16   737.30   808.42   893.70
          (Kelvin)           1079.91  1155.79  1179.24  1412.92  1427.07
                             1457.89  1468.39  1470.07  1598.48  1647.12
                             1729.56  1821.40  1846.61  2071.93  2093.23
                             2149.62  2216.85  2244.45  2250.83  2328.62
                             4476.11  4476.47  4530.84  4535.86  4561.07
                             4568.44  4589.62

 Zero-point correction=                           0.110685 (Hartree/Particle)
 Thermal correction to Energy=                    0.115303
 Thermal correction to Enthalpy=                  0.116247
 Thermal correction to Gibbs Free Energy=         0.083408
 Sum of electronic and zero-point Energies=           -195.133592
 Sum of electronic and thermal Energies=              -195.128974
 Sum of electronic and thermal Enthalpies=            -195.128030
 Sum of electronic and thermal Free Energies=         -195.160870

                     E (Thermal)             CV                S
                      KCal/Mol        Cal/Mol-Kelvin    Cal/Mol-Kelvin
 Total                   72.354             17.704             69.116
 Electronic               0.000              0.000              0.000
 Translational            0.889              2.981             38.571
 Rotational               0.889              2.981             25.301
 Vibrational             70.576             11.742              5.244
 Vibration     1          0.679              1.715              1.549
 Vibration     2          0.827              1.317              0.738
 Vibration     3          0.868              1.222              0.628
 Vibration     4          0.918              1.114              0.520

 Optimization completed.
    -- Stationary point found.
 Normal termination of Gaussian 16 at Tue Oct  6 16:36:37 2020.
