 Gaussian 16, Revision A.03,

 ----------------------------------------------------------------------
 #P Opt(TS,MaxCyc=50,NoEigenTest,MaxStep=10,CalcFC) B3LYP/6-31G* 5D 7F
 Integral=UltraFineGrid SCF=(NoSymm,XQC,MaxCyc=120) IOp(1/33=1)
 ----------------------------------------------------------------------

 TstMul:  Mul=     3
 TstMul:  ICh=     0
 TstMul:  Mul=     3
 Symbolic Z-matrix:
 Charge =  0 Multiplicity = 3

 SCF Done:  E(UB3LYP) =  -95.7046261539     A.U. after   14 cycles
 SCF Done:  E(UB3LYP) =  -95.7044802963     A.U. after   13 cycles
 SCF Done:  E(UB3LYP) =  -95.7044627281     A.U. after   13 cycles
 SCF Done:  E(UB3LYP) =  -95.7044633153     A.U. after   13 cycles
 SCF Done:  E(UB3LYP) =  -95.7044638486     A.U. after   13 cycles
 SCF Done:  E(UB3LYP) =  -95.7044638508     A.U. after    9 cycles
 Optimization completed.
    -- Stationary point found.
 Normal termination of Gaussian 16 at Tue Oct  6 16:34:18 2020.
 Gaussian 16:  ES64L-G16RevA.03 25-Dec-2016

 ----------------------------------------------------------------------
 #P Freq B3LYP/6-31G* 5D 7F Integral=UltraFineGrid SCF=(NoSymm,XQC,MaxC
 yc=120) IOp(1/33=1) Geom=Check Guess=Read
 ----------------------------------------------------------------------

 TstMul:  Mul=     3
 TstMul:  ICh=     0
 TstMul:  Mul=     3
 Structure from the checkpoint file:  "MN_92_RKT18_BH76_B3LYP_631Gs.chk"
 Charge =  0 Multiplicity = 3

                         Standard orientation:
 ---------------------------------------------------------------------
 Center     Atomic      Atomic             Coordinates (Angstroms)
 Number     Number       Type             X           Y           Z
 ---------------------------------------------------------------------
      1          6           0       -1.218854   -0.012364    0.000000
      2          7           0        1.415367    0.128976    0.000000
      3          1           0       -1.427472   -0.560450    0.917342
      4          1           0       -1.427491   -0.560042   -0.917581
      5          1           0       -1.554160    1.023390    0.000234
      6          1           0        0.237182    0.166540    0.000002
      7          1           0        1.577493   -0.898089   -0.000000
 ---------------------------------------------------------------------

 SCF Done:  E(UB3LYP) =  -95.7044638508     A.U. after    1 cycles

 The electronic state is 3-A.
 Alpha  occ. eigenvalues --  -14.36323 -10.19027  -0.84353  -0.69783  -0.46272
 Alpha  occ. eigenvalues --   -0.41987  -0.41859  -0.35012  -0.31011  -0.23023
 Alpha virt. eigenvalues --    0.09278   0.12529   0.16587   0.16754   0.27314
 Alpha virt. eigenvalues --    0.50482   0.50586   0.54598   0.68566   0.69760
 Alpha virt. eigenvalues --    0.71497   0.82805   0.88986   0.88995   0.89795

  Beta  occ. eigenvalues --  -14.33510 -10.17932  -0.76794  -0.66757  -0.42943
  Beta  occ. eigenvalues --   -0.41170  -0.40925  -0.29737
  Beta virt. eigenvalues --   -0.09043  -0.08666   0.10379   0.13668   0.17260
  Beta virt. eigenvalues --    0.17415   0.30332   0.51310   0.52083   0.59538
  Beta virt. eigenvalues --    0.72078   0.73859   0.76995   0.84045   0.89707

 Mulliken charges and spin densities:
               1          2
     1  C   -0.603717   0.733229
     2  N   -0.515367   1.479994
     3  H    0.175107  -0.023787
     4  H    0.175110  -0.023786
     5  H    0.183266  -0.022338
     6  H    0.298944  -0.097822
     7  H    0.286657  -0.045490
 Sum of Mulliken charges =  -0.00000   2.00000

 Dipole moment (field-independent basis, Debye):
    X=             -1.2037    Y=             -1.4215    Z=             -0.0000  Tot=              1.8627
 Quadrupole moment (field-independent basis, Debye-Ang):
   XX=            -16.6078   YY=            -13.8200   ZZ=            -14.1777
   XY=             -2.7666   XZ=             -0.0000   YZ=              0.0000

  Exact polarizability:  40.362  -0.765  20.299  -0.000   0.000  15.984
 Approx polarizability:  49.526   0.409  25.439  -0.000  -0.000  18.977

 ******    1 imaginary frequencies (negative Signs) ******

                      1                      2                      3
                      A                      A                      A
 Frequencies --  -1283.9424                63.1234               364.8371
 Red. masses --      1.1514                 1.0511                 1.0734
 Frc consts  --      1.1184                 0.0025                 0.0842
 IR Inten    --    361.1967                60.9285                11.6797

                      4                      5                      6
                      A                      A                      A
 Frequencies --    418.2317               581.9154               799.1490
 Red. masses --      1.0790                 2.3812                 1.2029
 Frc consts  --      0.1112                 0.4751                 0.4526
 IR Inten    --      5.0932                 3.3902                25.0129

                      7                      8                      9
                      A                      A                      A
 Frequencies --   1122.3003              1171.2996              1452.5230
 Red. masses --      1.0602                 1.2847                 1.0900
 Frc consts  --      0.7868                 1.0384                 1.3550
 IR Inten    --     47.5660                 2.1218                 9.9568

                     10                     11                     12
                      A                      A                      A
 Frequencies --   1456.2691              1524.6170              3098.0790
 Red. masses --      1.0802                 1.0454                 1.0171
 Frc consts  --      1.3497                 1.4318                 5.7517
 IR Inten    --      3.6130               121.6932                 0.5042

                     13                     14                     15
                      A                      A                      A
 Frequencies --   3238.8470              3241.0876              3309.0853
 Red. masses --      1.1121                 1.1121                 1.0726
 Frc consts  --      6.8737                 6.8830                 6.9197
 IR Inten    --     12.3578                 8.3306                20.7095

 - Thermochemistry -
 -------------------
 Temperature   298.150 Kelvin.  Pressure   1.00000 Atm.
 Atom     1 has atomic number  6 and mass  12.00000

 Molecular mass:    31.04220 amu.
 Principal axes and moments of inertia in atomic units:
                           1         2         3
     Eigenvalues --    15.73655 201.76438 205.38328
           X            0.99969  -0.02477  -0.00000
           Y            0.02477   0.99969  -0.00000
           Z            0.00000   0.00000   1.00000
 This molecule is an asymmetric top.
 Rotational symmetry number  1.
 Rotational temperatures (Kelvin)      5.50400     0.42928     0.42172
 Rotational constants (GHZ):         114.68470     8.94480     8.78719
    1 imaginary frequencies ignored.
 Zero-point vibrational energy     130640.4 (Joules/Mol)
                                   31.22380 (Kcal/Mol)
 Warning -- explicit consideration of   4 degrees of freedom as
           vibrations may cause significant error
 Vibrational temperatures:     90.82   524.92   601.74   837.25  1149.80
          (Kelvin)           1614.74  1685.24  2089.86  2095.25  2193.58
                             4457.44  4659.98  4663.20  4761.04

 Zero-point correction=                           0.049758 (Hartree/Particle)
 Thermal correction to Energy=                    0.054343
 Thermal correction to Enthalpy=                  0.055287
 Thermal correction to Gibbs Free Energy=         0.023591
 Sum of electronic and zero-point Energies=            -95.654706
 Sum of electronic and thermal Energies=               -95.650121
 Sum of electronic and thermal Enthalpies=             -95.649177
 Sum of electronic and thermal Free Energies=          -95.680872

                     E (Thermal)             CV                S
                      KCal/Mol        Cal/Mol-Kelvin    Cal/Mol-Kelvin
 Total                   34.100             13.362             66.708
 Electronic               0.000              0.000              2.183
 Translational            0.889              2.981             36.231
 Rotational               0.889              2.981             21.105
 Vibrational             32.323              7.400              7.189
 Vibration     1          0.597              1.972              4.357
 Vibration     2          0.738              1.545              1.101
 Vibration     3          0.781              1.431              0.898
 Vibration     4          0.939              1.070              0.482

 Optimization completed.
    -- Stationary point found.
 Normal termination of Gaussian 16 at Tue Oct  6 16:34:37 2020.
