 Gaussian 16, Revision A.03,

 ----------------------------------------------------------------------
 #P Opt(TS,MaxCyc=50,NoEigenTest,MaxStep=10,CalcFC) B3LYP/6-31G* 5D 7F
 Integral=UltraFineGrid SCF=(NoSymm,XQC,MaxCyc=120) IOp(1/33=1)
 ----------------------------------------------------------------------

 TstMul:  Mul=     3
 TstMul:  ICh=     0
 TstMul:  Mul=     3
 Symbolic Z-matrix:
 Charge =  0 Multiplicity = 3

 SCF Done:  E(UB3LYP) =  -535.849742459     A.U. after   24 cycles
 SCF Done:  E(UB3LYP) =  -535.848868583     A.U. after   16 cycles
 SCF Done:  E(UB3LYP) =  -535.848471607     A.U. after   18 cycles
 SCF Done:  E(UB3LYP) =  -535.848470199     A.U. after   16 cycles
 SCF Done:  E(UB3LYP) =  -535.848470529     A.U. after   12 cycles
 Optimization completed.
    -- Stationary point found.
 Normal termination of Gaussian 16 at Tue Oct  6 16:33:51 2020.
 Gaussian 16:  ES64L-G16RevA.03 25-Dec-2016

 ----------------------------------------------------------------------
 #P Freq B3LYP/6-31G* 5D 7F Integral=UltraFineGrid SCF=(NoSymm,XQC,MaxC
 yc=120) IOp(1/33=1) Geom=Check Guess=Read
 ----------------------------------------------------------------------

 TstMul:  Mul=     3
 TstMul:  ICh=     0
 TstMul:  Mul=     3
 Structure from the checkpoint file:  "MN_91_RKT17_BH76_B3LYP_631Gs.chk"
 Charge =  0 Multiplicity = 3

                         Standard orientation:
 ---------------------------------------------------------------------
 Center     Atomic      Atomic             Coordinates (Angstroms)
 Number     Number       Type             X           Y           Z
 ---------------------------------------------------------------------
      1         17           0        0.019492   -0.834826    0.000000
      2          1           0       -0.487306    0.489505    0.000000
      3          8           0        0.019492    1.712818    0.000000
 ---------------------------------------------------------------------

 SCF Done:  E(UB3LYP) =  -535.848470529     A.U. after    1 cycles

 The electronic state is 3-A".
 Alpha  occ. eigenvalues -- -101.54226 -19.31434  -9.47611  -7.24043  -7.22999
 Alpha  occ. eigenvalues --   -7.22915  -1.05720  -0.84532  -0.54473  -0.48016
 Alpha  occ. eigenvalues --   -0.43423  -0.37581  -0.34163  -0.33969
 Alpha virt. eigenvalues --    0.06945   0.37785   0.42706   0.42888   0.43990
 Alpha virt. eigenvalues --    0.60728   0.75635   0.79883   0.84202   0.84283
 Alpha virt. eigenvalues --    0.85240   0.85417   0.91029   1.04525   1.23322

  Beta  occ. eigenvalues -- -101.53954 -19.26994  -9.47357  -7.23366  -7.22738
  Beta  occ. eigenvalues --   -7.22694  -0.93335  -0.81983  -0.49094  -0.35116
  Beta  occ. eigenvalues --   -0.33477  -0.33417
  Beta virt. eigenvalues --   -0.21556  -0.20666   0.08584   0.38403   0.43276
  Beta virt. eigenvalues --    0.43349   0.45730   0.63201   0.82160   0.82436
  Beta virt. eigenvalues --    0.85747   0.85862   0.87659   0.90186   0.96533

 Mulliken charges and spin densities:
               1          2
     1  Cl  -0.219601   0.322732
     2  H    0.324296  -0.045160
     3  O   -0.104695   1.722429
 Sum of Mulliken charges =   0.00000   2.00000

 Dipole moment (field-independent basis, Debye):
    X=             -0.7053    Y=              1.0119    Z=              0.0000  Tot=              1.2334
 Quadrupole moment (field-independent basis, Debye-Ang):
   XX=            -18.8415   YY=            -18.2878   ZZ=            -18.4539
   XY=             -0.7237   XZ=              0.0000   YZ=              0.0000

  Exact polarizability:   9.402  -1.066  48.518   0.000  -0.000   8.413
 Approx polarizability:  11.780  -1.443  87.230  -0.000  -0.000  10.393

 ******    1 imaginary frequencies (negative Signs) ******

                      1                      2                      3
                     A'                     A'                     A'
 Frequencies --  -1143.5491               306.6216              1390.7112
 Red. masses --      1.1117                 5.1773                 1.1108
 Frc consts  --      0.8565                 0.2868                 1.2658
 IR Inten    --     35.1660                16.1003                49.9007

 - Thermochemistry -
 -------------------
 Temperature   298.150 Kelvin.  Pressure   1.00000 Atm.
 Atom     1 has atomic number 17 and mass  34.96885

 Molecular mass:    51.97159 amu.
 Principal axes and moments of inertia in atomic units:
                           1         2         3
     Eigenvalues --     0.90300 255.35179 256.25479
           X           -0.00369   0.99999   0.00000
           Y            0.99999   0.00369   0.00000
           Z            0.00000   0.00000   1.00000
 This molecule is an asymmetric top.
 Rotational symmetry number  1.
 Rotational temperatures (Kelvin)     95.91826     0.33919     0.33800
 Rotational constants (GHZ):        1998.61217     7.06767     7.04276
    1 imaginary frequencies ignored.
 Zero-point vibrational energy      10152.3 (Joules/Mol)
                                    2.42646 (Kcal/Mol)
 Warning -- explicit consideration of   1 degrees of freedom as
           vibrations may cause significant error
 Vibrational temperatures:    441.16  2000.92
          (Kelvin)

 Zero-point correction=                           0.003867 (Hartree/Particle)
 Thermal correction to Energy=                    0.007119
 Thermal correction to Enthalpy=                  0.008063
 Thermal correction to Gibbs Free Energy=        -0.020477
 Sum of electronic and zero-point Energies=           -535.844604
 Sum of electronic and thermal Energies=              -535.841352
 Sum of electronic and thermal Enthalpies=            -535.840407
 Sum of electronic and thermal Free Energies=         -535.868948

                     E (Thermal)             CV                S
                      KCal/Mol        Cal/Mol-Kelvin    Cal/Mol-Kelvin
 Total                    4.467              7.732             60.069
 Electronic               0.000              0.000              2.183
 Translational            0.889              2.981             37.767
 Rotational               0.889              2.981             18.719
 Vibrational              2.690              1.770              1.399
 Vibration     1          0.697              1.661              1.380

 Optimization completed.
    -- Stationary point found.
 Normal termination of Gaussian 16 at Tue Oct  6 16:34:12 2020.
