 Gaussian 16, Revision A.03,

 ----------------------------------------------------------------------
 #P Opt(TS,MaxCyc=50,NoEigenTest,MaxStep=10,CalcFC) B3LYP/6-31G* 5D 7F
 Integral=UltraFineGrid SCF=(NoSymm,XQC,MaxCyc=120) IOp(1/33=1)
 ----------------------------------------------------------------------

 TstMul:  Mul=     2
 TstMul:  ICh=     0
 TstMul:  Mul=     2
 Symbolic Z-matrix:
 Charge =  0 Multiplicity = 2

 SCF Done:  E(UB3LYP) =  -96.3694027526     A.U. after   14 cycles
 SCF Done:  E(UB3LYP) =  -96.3696170314     A.U. after   13 cycles
 SCF Done:  E(UB3LYP) =  -96.3696494154     A.U. after   13 cycles
 SCF Done:  E(UB3LYP) =  -96.3696496207     A.U. after    9 cycles
 SCF Done:  E(UB3LYP) =  -96.3696496228     A.U. after    7 cycles
 Optimization completed.
    -- Stationary point found.
 Normal termination of Gaussian 16 at Tue Oct  6 16:34:39 2020.
 Gaussian 16:  ES64L-G16RevA.03 25-Dec-2016

 ----------------------------------------------------------------------
 #P Freq B3LYP/6-31G* 5D 7F Integral=UltraFineGrid SCF=(NoSymm,XQC,MaxC
 yc=120) IOp(1/33=1) Geom=Check Guess=Read
 ----------------------------------------------------------------------

 TstMul:  Mul=     2
 TstMul:  ICh=     0
 TstMul:  Mul=     2
 Structure from the checkpoint file:  "MN_95_RKT21_BH76_B3LYP_631Gs.chk"
 Charge =  0 Multiplicity = 2

                         Standard orientation:
 ---------------------------------------------------------------------
 Center     Atomic      Atomic             Coordinates (Angstroms)
 Number     Number       Type             X           Y           Z
 ---------------------------------------------------------------------
      1          6           0       -1.265485    0.000001    0.013810
      2          7           0        1.316216    0.000002   -0.137858
      3          1           0       -1.608083    0.911104   -0.477904
      4          1           0       -1.439953   -0.000970    1.089665
      5          1           0       -1.608191   -0.910163   -0.479564
      6          1           0        0.069461    0.000058   -0.206632
      7          1           0        1.483132    0.806910    0.478311
      8          1           0        1.483035   -0.806957    0.478272
 ---------------------------------------------------------------------

 SCF Done:  E(UB3LYP) =  -96.3696496228     A.U. after    1 cycles

 The electronic state is 2-A.
 Alpha  occ. eigenvalues --  -14.32423 -10.17857  -0.85008  -0.69343  -0.45793
 Alpha  occ. eigenvalues --   -0.44712  -0.40852  -0.40695  -0.29323  -0.22187
 Alpha virt. eigenvalues --    0.08322   0.13091   0.15727   0.16985   0.17426
 Alpha virt. eigenvalues --    0.29230   0.50465   0.51632   0.55691   0.70990
 Alpha virt. eigenvalues --    0.72704   0.72826   0.88262   0.88768   0.89361

  Beta  occ. eigenvalues --  -14.31236 -10.16920  -0.81985  -0.67019  -0.45000
  Beta  occ. eigenvalues --   -0.41448  -0.40024  -0.39950  -0.26634
  Beta virt. eigenvalues --   -0.08755   0.08993   0.13801   0.16146   0.17580
  Beta virt. eigenvalues --    0.17996   0.31194   0.50795   0.52320   0.59891
  Beta virt. eigenvalues --    0.72644   0.72871   0.75428   0.88769   0.89496

 Mulliken charges and spin densities:
               1          2
     1  C   -0.627276   0.592773
     2  N   -0.764707   0.568768
     3  H    0.173798  -0.015686
     4  H    0.163523  -0.020155
     5  H    0.173811  -0.015682
     6  H    0.291043  -0.078747
     7  H    0.294904  -0.015636
     8  H    0.294904  -0.015636
 Sum of Mulliken charges =  -0.00000   1.00000

 Dipole moment (field-independent basis, Debye):
    X=             -0.6001    Y=             -0.0000    Z=              1.6984  Tot=              1.8014
 Quadrupole moment (field-independent basis, Debye-Ang):
   XX=            -16.1737   YY=            -13.6109   ZZ=            -15.5244
   XY=              0.0000   XZ=              3.0581   YZ=              0.0001

  Exact polarizability:  44.012  -0.000  21.459   0.612   0.000  18.976
 Approx polarizability:  52.213  -0.000  26.841  -0.366  -0.000  23.631

 ******    1 imaginary frequencies (negative Signs) ******

                      1                      2                      3
                      A                      A                      A
 Frequencies --  -1683.4292                36.4419               387.0001
 Red. masses --      1.0723                 1.0266                 1.2187
 Frc consts  --      1.7905                 0.0008                 0.1075
 IR Inten    --    438.7994                35.7015                 8.9160

                      4                      5                      6
                      A                      A                      A
 Frequencies --    404.3403               565.0464               803.1669
 Red. masses --      1.0248                 2.4260                 1.1090
 Frc consts  --      0.0987                 0.4564                 0.4215
 IR Inten    --      2.8009                 4.4676                 6.2337

                      7                      8                      9
                      A                      A                      A
 Frequencies --    878.8064              1178.3443              1406.2390
 Red. masses --      1.2524                 1.1769                 1.1135
 Frc consts  --      0.5699                 0.9628                 1.2973
 IR Inten    --     98.7177                14.2021               154.7617

                     10                     11                     12
                      A                      A                      A
 Frequencies --   1459.5391              1469.5797              1557.7806
 Red. masses --      1.0939                 1.0582                 1.0309
 Frc consts  --      1.3730                 1.3465                 1.4739
 IR Inten    --      8.7556                 8.0738                11.5104

                     13                     14                     15
                      A                      A                      A
 Frequencies --   1641.1388              3086.9220              3214.5839
 Red. masses --      1.0632                 1.0204                 1.1097
 Frc consts  --      1.6872                 5.7292                 6.7560
 IR Inten    --     23.0028                 3.4831                13.3014

                     16                     17                     18
                      A                      A                      A
 Frequencies --   3216.7489              3369.0072              3470.2550
 Red. masses --      1.1098                 1.0498                 1.0890
 Frc consts  --      6.7661                 7.0202                 7.7265
 IR Inten    --     15.7676                 8.6255                 3.6839

 - Thermochemistry -
 -------------------
 Temperature   298.150 Kelvin.  Pressure   1.00000 Atm.
 Atom     1 has atomic number  6 and mass  12.00000

 Molecular mass:    32.05002 amu.
 Principal axes and moments of inertia in atomic units:
                           1         2         3
     Eigenvalues --    19.13429 205.49195 207.66949
           X            0.99969  -0.00000   0.02502
           Y            0.00000   1.00000   0.00000
           Z           -0.02502  -0.00000   0.99969
 This molecule is an asymmetric top.
 Rotational symmetry number  1.
 Rotational temperatures (Kelvin)      4.52663     0.42150     0.41708
 Rotational constants (GHZ):          94.31976     8.78254     8.69045
    1 imaginary frequencies ignored.
 Zero-point vibrational energy     168344.1 (Joules/Mol)
                                   40.23521 (Kcal/Mol)
 Warning -- explicit consideration of   4 degrees of freedom as
           vibrations may cause significant error
 Vibrational temperatures:     52.43   556.81   581.76   812.98  1155.58
          (Kelvin)           1264.41  1695.37  2023.26  2099.95  2114.40
                             2241.30  2361.23  4441.39  4625.07  4628.18
                             4847.25  4992.92

 Zero-point correction=                           0.064119 (Hartree/Particle)
 Thermal correction to Energy=                    0.068802
 Thermal correction to Enthalpy=                  0.069746
 Thermal correction to Gibbs Free Energy=         0.037717
 Sum of electronic and zero-point Energies=            -96.305531
 Sum of electronic and thermal Energies=               -96.300847
 Sum of electronic and thermal Enthalpies=             -96.299903
 Sum of electronic and thermal Free Energies=          -96.331932

                     E (Thermal)             CV                S
                      KCal/Mol        Cal/Mol-Kelvin    Cal/Mol-Kelvin
 Total                   43.174             13.784             67.411
 Electronic               0.000              0.000              1.377
 Translational            0.889              2.981             36.326
 Rotational               0.889              2.981             21.329
 Vibrational             41.397              7.822              8.378
 Vibration     1          0.594              1.982              5.444
 Vibration     2          0.755              1.498              1.012
 Vibration     3          0.770              1.461              0.947
 Vibration     4          0.921              1.107              0.514

 Optimization completed.
    -- Stationary point found.
 Normal termination of Gaussian 16 at Tue Oct  6 16:35:06 2020.
