 Gaussian 16, Revision A.03,

 ----------------------------------------------------------------------
 #P Opt(TS,MaxCyc=50,NoEigenTest,MaxStep=10,CalcFC) B3LYP/6-31G* 5D 7F
 Integral=UltraFineGrid SCF=(NoSymm,XQC,MaxCyc=120) IOp(1/33=1)
 ----------------------------------------------------------------------

 TstMul:  Mul=     2
 TstMul:  ICh=     0
 TstMul:  Mul=     2
 Symbolic Z-matrix:
 Charge =  0 Multiplicity = 2

 SCF Done:  E(UB3LYP) =  -135.684670910     A.U. after   14 cycles
 SCF Done:  E(UB3LYP) =  -135.685073603     A.U. after   14 cycles
 SCF Done:  E(UB3LYP) =  -135.685091820     A.U. after   11 cycles
 SCF Done:  E(UB3LYP) =  -135.685091853     A.U. after    8 cycles
 SCF Done:  E(UB3LYP) =  -135.685078633     A.U. after   14 cycles
 SCF Done:  E(UB3LYP) =  -135.685090842     A.U. after   14 cycles
 SCF Done:  E(UB3LYP) =  -135.685091742     A.U. after   11 cycles
 SCF Done:  E(UB3LYP) =  -135.685091890     A.U. after   10 cycles
 Optimization completed.
    -- Stationary point found.
 Normal termination of Gaussian 16 at Tue Oct  6 16:35:51 2020.
 Gaussian 16:  ES64L-G16RevA.03 25-Dec-2016

 ----------------------------------------------------------------------
 #P Freq B3LYP/6-31G* 5D 7F Integral=UltraFineGrid SCF=(NoSymm,XQC,MaxC
 yc=120) IOp(1/33=1) Geom=Check Guess=Read
 ----------------------------------------------------------------------

 TstMul:  Mul=     2
 TstMul:  ICh=     0
 TstMul:  Mul=     2
 Structure from the checkpoint file:  "MN_94_RKT20_BH76_B3LYP_631Gs.chk"
 Charge =  0 Multiplicity = 2

                         Standard orientation:
 ---------------------------------------------------------------------
 Center     Atomic      Atomic             Coordinates (Angstroms)
 Number     Number       Type             X           Y           Z
 ---------------------------------------------------------------------
      1          6           0       -1.525727   -0.426853   -0.000087
      2          6           0       -0.494107    0.680642   -0.000183
      3          7           0        1.896025   -0.342753    0.000420
      4          1           0       -1.427074   -1.065403   -0.884988
      5          1           0       -1.427425   -1.064916    0.885203
      6          1           0       -2.547350   -0.018207   -0.000411
      7          1           0       -0.489076    1.300559   -0.901118
      8          1           0       -0.489276    1.300957    0.900479
      9          1           0        0.681333    0.073866    0.000154
     10          1           0        2.272674    0.173818   -0.806421
     11          1           0        2.273026    0.175859    0.805785
 ---------------------------------------------------------------------

 SCF Done:  E(UB3LYP) =  -135.685091890     A.U. after    1 cycles

 The electronic state is 2-A.
 Alpha  occ. eigenvalues --  -14.31930 -10.18200 -10.17060  -0.84335  -0.75449
 Alpha  occ. eigenvalues --   -0.61549  -0.45597  -0.45447  -0.43995  -0.38943
 Alpha  occ. eigenvalues --   -0.37432  -0.35093  -0.28726  -0.21099
 Alpha virt. eigenvalues --    0.08324   0.12035   0.14800   0.15144   0.16799
 Alpha virt. eigenvalues --    0.17412   0.19531   0.24029   0.30134   0.49742
 Alpha virt. eigenvalues --    0.52301   0.55141   0.59962   0.60611   0.66273

  Beta  occ. eigenvalues --  -14.30712 -10.17311 -10.17080  -0.81275  -0.74309
  Beta  occ. eigenvalues --   -0.60249  -0.44729  -0.43506  -0.43149  -0.37444
  Beta  occ. eigenvalues --   -0.36661  -0.34822  -0.26104
  Beta virt. eigenvalues --   -0.08094   0.08925   0.12378   0.15155   0.15701
  Beta virt. eigenvalues --    0.17037   0.17686   0.19991   0.24662   0.32098
  Beta virt. eigenvalues --    0.50352   0.52481   0.55657   0.60736   0.63168

 Mulliken charges and spin densities:
               1          2
     1  C   -0.424981  -0.023510
     2  C   -0.437199   0.538427
     3  N   -0.760759   0.590521
     4  H    0.157076   0.004546
     5  H    0.157093   0.004541
     6  H    0.151225   0.030971
     7  H    0.152141  -0.015814
     8  H    0.152154  -0.015811
     9  H    0.270623  -0.080833
    10  H    0.291312  -0.016518
    11  H    0.291313  -0.016519
 Sum of Mulliken charges =  -0.00000   1.00000

 Dipole moment (field-independent basis, Debye):
    X=             -0.2474    Y=              1.7484    Z=             -0.0023  Tot=              1.7658
 Quadrupole moment (field-independent basis, Debye-Ang):
   XX=            -20.5424   YY=            -23.3083   ZZ=            -20.0772
   XY=              3.6821   XZ=             -0.0047   YZ=              0.0037

  Exact polarizability:  57.797  -4.858  30.790   0.004   0.003  30.972
 Approx polarizability:  67.588  -9.058  39.988   0.007   0.003  40.859

 ******    1 imaginary frequencies (negative Signs) ******

                      1                      2                      3
                      A                      A                      A
 Frequencies --  -1674.4638                28.6030               149.7875
 Red. masses --      1.0791                 1.0823                 2.6927
 Frc consts  --      1.7826                 0.0005                 0.0356
 IR Inten    --    612.8484                51.1594                 5.5373

                      4                      5                      6
                      A                      A                      A
 Frequencies --    170.3114               436.1242               470.9115
 Red. masses --      1.0850                 1.0198                 2.4452
 Frc consts  --      0.0185                 0.1143                 0.3195
 IR Inten    --      0.2839                 1.7344                 0.7899

                      7                      8                      9
                      A                      A                      A
 Frequencies --    771.0235               781.3238               898.5386
 Red. masses --      1.1147                 1.3498                 1.0545
 Frc consts  --      0.3904                 0.4855                 0.5016
 IR Inten    --      5.9717                60.1651                 0.3890

                     10                     11                     12
                      A                      A                      A
 Frequencies --    947.3481              1054.2992              1211.9690
 Red. masses --      1.2406                 2.9381                 1.4060
 Frc consts  --      0.6560                 1.9242                 1.2168
 IR Inten    --     86.5763                 8.2654                11.8515

                     13                     14                     15
                      A                      A                      A
 Frequencies --   1245.5694              1375.9794              1433.7496
 Red. masses --      1.3870                 1.0864                 1.1985
 Frc consts  --      1.2679                 1.2119                 1.4516
 IR Inten    --      0.3938               110.2610                 0.1527

                     16                     17                     18
                      A                      A                      A
 Frequencies --   1494.2640              1517.6163              1522.6270
 Red. masses --      1.1355                 1.0355                 1.0497
 Frc consts  --      1.4938                 1.4051                 1.4339
 IR Inten    --      1.5293                 3.2377                 4.0354

                     19                     20                     21
                      A                      A                      A
 Frequencies --   1549.6524              1630.9792              3023.2354
 Red. masses --      1.0428                 1.0686                 1.0464
 Frc consts  --      1.4754                 1.6748                 5.6351
 IR Inten    --     11.1573                18.9175                27.0929

                     22                     23                     24
                      A                      A                      A
 Frequencies --   3083.9549              3093.9394              3117.3441
 Red. masses --      1.0668                 1.0751                 1.1031
 Frc consts  --      5.9778                 6.0637                 6.3157
 IR Inten    --      2.1721                42.6116                11.2940

                     25                     26                     27
                      A                      A                      A
 Frequencies --   3159.5144              3360.7931              3463.2484
 Red. masses --      1.1096                 1.0497                 1.0890
 Frc consts  --      6.5264                 6.9856                 7.6955
 IR Inten    --     40.4104                 8.2460                 5.0636

 - Thermochemistry -
 -------------------
 Temperature   298.150 Kelvin.  Pressure   1.00000 Atm.
 Atom     1 has atomic number  6 and mass  12.00000

 Molecular mass:    46.06567 amu.
 Principal axes and moments of inertia in atomic units:
                           1         2         3
     Eigenvalues --    69.94166 384.90921 422.53705
           X            0.99956   0.02970  -0.00013
           Y           -0.02970   0.99956   0.00013
           Z            0.00013  -0.00013   1.00000
 This molecule is an asymmetric top.
 Rotational symmetry number  1.
 Rotational temperatures (Kelvin)      1.23837     0.22502     0.20499
 Rotational constants (GHZ):          25.80352     4.68875     4.27120
    1 imaginary frequencies ignored.
 Zero-point vibrational energy     245190.8 (Joules/Mol)
                                   58.60202 (Kcal/Mol)
 Warning -- explicit consideration of   5 degrees of freedom as
           vibrations may cause significant error
 Vibrational temperatures:     41.15   215.51   245.04   627.49   677.54
          (Kelvin)           1109.33  1124.15  1292.80  1363.02  1516.90
                             1743.75  1792.10  1979.73  2062.85  2149.91
                             2183.51  2190.72  2229.60  2346.62  4349.76
                             4437.12  4451.49  4485.16  4545.84  4835.43
                             4982.84

 Zero-point correction=                           0.093388 (Hartree/Particle)
 Thermal correction to Energy=                    0.099242
 Thermal correction to Enthalpy=                  0.100186
 Thermal correction to Gibbs Free Energy=         0.063943
 Sum of electronic and zero-point Energies=           -135.591704
 Sum of electronic and thermal Energies=              -135.585850
 Sum of electronic and thermal Enthalpies=            -135.584906
 Sum of electronic and thermal Free Energies=         -135.621149

                     E (Thermal)             CV                S
                      KCal/Mol        Cal/Mol-Kelvin    Cal/Mol-Kelvin
 Total                   62.275             17.987             76.281
 Electronic               0.000              0.000              1.377
 Translational            0.889              2.981             37.408
 Rotational               0.889              2.981             23.946
 Vibrational             60.498             12.026             13.550
 Vibration     1          0.593              1.984              5.924
 Vibration     2          0.618              1.903              2.675
 Vibration     3          0.625              1.879              2.432
 Vibration     4          0.797              1.391              0.839
 Vibration     5          0.828              1.315              0.735

 Optimization completed.
    -- Stationary point found.
 Normal termination of Gaussian 16 at Tue Oct  6 16:36:43 2020.
