 Gaussian 16, Revision A.03,

 ----------------------------------------------------------------------
 #P Opt(TS,MaxCyc=50,NoEigenTest,MaxStep=10,CalcFC) B3LYP/6-31G* 5D 7F
 Integral=UltraFineGrid SCF=(NoSymm,XQC,MaxCyc=120) IOp(1/33=1)
 ----------------------------------------------------------------------

 TstMul:  Mul=     2
 TstMul:  ICh=     0
 TstMul:  Mul=     2
 Symbolic Z-matrix:
 Charge =  0 Multiplicity = 2

 SCF Done:  E(UB3LYP) =  -399.883285750     A.U. after   13 cycles
 SCF Done:  E(UB3LYP) =  -399.882772271     A.U. after   12 cycles
 SCF Done:  E(UB3LYP) =  -399.882415625     A.U. after   12 cycles
 SCF Done:  E(UB3LYP) =  -399.882208374     A.U. after   12 cycles
 SCF Done:  E(UB3LYP) =  -399.882108270     A.U. after   12 cycles
 SCF Done:  E(UB3LYP) =  -399.882085471     A.U. after   12 cycles
 SCF Done:  E(UB3LYP) =  -399.882085030     A.U. after    8 cycles
 Optimization completed.
    -- Stationary point found.
 Normal termination of Gaussian 16 at Tue Oct  6 16:33:43 2020.
 Gaussian 16:  ES64L-G16RevA.03 25-Dec-2016

 ----------------------------------------------------------------------
 #P Freq B3LYP/6-31G* 5D 7F Integral=UltraFineGrid SCF=(NoSymm,XQC,MaxC
 yc=120) IOp(1/33=1) Geom=Check Guess=Read
 ----------------------------------------------------------------------

 TstMul:  Mul=     2
 TstMul:  ICh=     0
 TstMul:  Mul=     2
 Structure from the checkpoint file:  "MN_90_RKT16_BH76_B3LYP_631Gs.chk"
 Charge =  0 Multiplicity = 2

                         Standard orientation:
 ---------------------------------------------------------------------
 Center     Atomic      Atomic             Coordinates (Angstroms)
 Number     Number       Type             X           Y           Z
 ---------------------------------------------------------------------
      1          1           0        1.291290   -0.165117    0.000000
      2         16           0        0.000000    0.230548    0.000000
      3          1           0       -0.461080   -1.085362    0.000000
      4          1           0       -0.830211   -2.438282    0.000000
 ---------------------------------------------------------------------

 SCF Done:  E(UB3LYP) =  -399.882085030     A.U. after    1 cycles

 The electronic state is 2-A'.
 Alpha  occ. eigenvalues --  -88.86635  -7.94727  -5.91192  -5.90848  -5.90009
 Alpha  occ. eigenvalues --   -0.75016  -0.47024  -0.38851  -0.30376  -0.26323
 Alpha virt. eigenvalues --    0.02442   0.08208   0.32242   0.33292   0.35336
 Alpha virt. eigenvalues --    0.36364   0.69762   0.72199   0.73214   0.75573
 Alpha virt. eigenvalues --    0.76324   0.87044   1.00492   1.17734
  Beta  occ. eigenvalues --  -88.86501  -7.94596  -5.90928  -5.90601  -5.89930
  Beta  occ. eigenvalues --   -0.74186  -0.45429  -0.37226  -0.26043
  Beta virt. eigenvalues --   -0.13151   0.03000   0.10034   0.32378   0.33947
  Beta virt. eigenvalues --    0.36464   0.36515   0.70399   0.74423   0.76192
  Beta virt. eigenvalues --    0.77073   0.81489   0.92346   1.00514   1.17948

 Mulliken charges and spin densities:
               1          2
     1  H    0.118401  -0.003871
     2  S   -0.169022   0.195476
     3  H    0.022380  -0.070532
     4  H    0.028241   0.878927
 Sum of Mulliken charges =  -0.00000   1.00000

 Dipole moment (field-independent basis, Debye):
    X=              0.6679    Y=             -1.2175    Z=              0.0000  Tot=              1.3887
 Quadrupole moment (field-independent basis, Debye-Ang):
   XX=            -13.7317   YY=            -14.8206   ZZ=            -17.8689
   XY=              0.5212   XZ=              0.0000   YZ=              0.0000

  Exact polarizability:  18.593   5.358  30.621   0.000   0.000  11.177
 Approx polarizability:  25.994   6.488  39.677   0.000   0.000  13.805

 ******    1 imaginary frequencies (negative Signs) ******

                      1                      2                      3
                     A'                     A'                     A"
 Frequencies --   -556.8006               371.2611               407.6824
 Red. masses --      1.0216                 1.0172                 1.0150
 Frc consts  --      0.1866                 0.0826                 0.0994
 IR Inten    --     17.3089                 7.5670                13.5623

                      4                      5                      6
                     A'                     A'                     A'
 Frequencies --   1217.5960              1967.7891              2691.7668
 Red. masses --      1.0395                 1.0505                 1.0381
 Frc consts  --      0.9080                 2.3966                 4.4316
 IR Inten    --      4.5671                 3.8089                13.2375

 - Thermochemistry -
 -------------------
 Temperature   298.150 Kelvin.  Pressure   1.00000 Atm.
 Atom     1 has atomic number  1 and mass   1.00783

 Molecular mass:    34.99555 amu.
 Principal axes and moments of inertia in atomic units:
                           1         2         3
     Eigenvalues --     6.37152  33.31659  39.68810
           X            0.32667   0.94514   0.00000
           Y            0.94514  -0.32667   0.00000
           Z            0.00000   0.00000   1.00000
 This molecule is an asymmetric top.
 Rotational symmetry number  1.
 Rotational temperatures (Kelvin)     13.59392     2.59972     2.18236
 Rotational constants (GHZ):         283.25132    54.16945    45.47310
    1 imaginary frequencies ignored.
 Zero-point vibrational energy      39812.3 (Joules/Mol)
                                    9.51537 (Kcal/Mol)
 Warning -- explicit consideration of   2 degrees of freedom as
           vibrations may cause significant error
 Vibrational temperatures:    534.16   586.56  1751.85  2831.21  3872.85
          (Kelvin)

 Zero-point correction=                           0.015164 (Hartree/Particle)
 Thermal correction to Energy=                    0.018653
 Thermal correction to Enthalpy=                  0.019597
 Thermal correction to Gibbs Free Energy=        -0.007390
 Sum of electronic and zero-point Energies=           -399.866921
 Sum of electronic and thermal Energies=              -399.863432
 Sum of electronic and thermal Enthalpies=            -399.862488
 Sum of electronic and thermal Free Energies=         -399.889475

                     E (Thermal)             CV                S
                      KCal/Mol        Cal/Mol-Kelvin    Cal/Mol-Kelvin
 Total                   11.705              9.154             56.799
 Electronic               0.000              0.000              1.377
 Translational            0.889              2.981             36.588
 Rotational               0.889              2.981             16.784
 Vibrational              9.927              3.193              2.049
 Vibration     1          0.743              1.531              1.075
 Vibration     2          0.772              1.454              0.935

 Optimization completed.
    -- Stationary point found.

 1\1\GINC-NODE59\Freq\UB3LYP\6-31G(d)\H3S1(2)\RPEVERATI\06-Oct-2020\0\\
 #P Freq B3LYP/6-31G* 5D 7F Integral=UltraFineGrid SCF=(NoSymm,XQC,MaxC
 yc=120) IOp(1/33=1) Geom=Check Guess=Read\\TS search on BH76.\\0,2\H,1
 .3027765134,-0.1590250674,0.\S,0.0182649325,0.2581217053,0.\H,-0.46469
 87598,-1.0499144791,0.\H,-0.8563437444,-2.3964899599,0.\\Version=ES64L
 -G16RevA.03\State=2-A'\HF=-399.882085\S2=0.753951\S2-1=0.\S2A=0.750001
 \RMSD=2.949e-09\RMSF=9.604e-06\ZeroPoint=0.0151637\Thermal=0.0186529\D
 ipole=0.2547336,-0.4833238,0.\DipoleDeriv=-0.06807,0.041935,0.,0.14981

 Normal termination of Gaussian 16 at Tue Oct  6 16:34:00 2020.
