 Gaussian 16, Revision A.03,

 ----------------------------------------------------------------------
 #P Opt(TS,MaxCyc=50,NoEigenTest,MaxStep=10,CalcFC) B3LYP/6-31G* 5D 7F
 Integral=UltraFineGrid SCF=(NoSymm,XQC,MaxCyc=120) IOp(1/33=1)
 ----------------------------------------------------------------------

 TstMul:  Mul=     3
 TstMul:  ICh=     0
 TstMul:  Mul=     3
 Symbolic Z-matrix:
 Charge =  0 Multiplicity = 3

 SCF Done:  E(UB3LYP) =  -135.019818607     A.U. after   15 cycles
 SCF Done:  E(UB3LYP) =  -135.020600207     A.U. after   13 cycles
 SCF Done:  E(UB3LYP) =  -135.020947488     A.U. after   13 cycles
 SCF Done:  E(UB3LYP) =  -135.020973385     A.U. after   14 cycles
 SCF Done:  E(UB3LYP) =  -135.020977833     A.U. after   13 cycles
 SCF Done:  E(UB3LYP) =  -135.020977852     A.U. after    9 cycles
 SCF Done:  E(UB3LYP) =  -135.020977854     A.U. after    9 cycles
 Optimization completed.
    -- Stationary point found.
 Normal termination of Gaussian 16 at Tue Oct  6 16:35:24 2020.
 Gaussian 16:  ES64L-G16RevA.03 25-Dec-2016

 ----------------------------------------------------------------------
 #P Freq B3LYP/6-31G* 5D 7F Integral=UltraFineGrid SCF=(NoSymm,XQC,MaxC
 yc=120) IOp(1/33=1) Geom=Check Guess=Read
 ----------------------------------------------------------------------

 TstMul:  Mul=     3
 TstMul:  ICh=     0
 TstMul:  Mul=     3
 Structure from the checkpoint file:  "MN_93_RKT19_BH76_B3LYP_631Gs.chk"
 Charge =  0 Multiplicity = 3

                         Standard orientation:
 ---------------------------------------------------------------------
 Center     Atomic      Atomic             Coordinates (Angstroms)
 Number     Number       Type             X           Y           Z
 ---------------------------------------------------------------------
      1          6           0       -1.432257   -0.432773    0.000002
      2          6           0       -0.434859    0.698707   -0.000002
      3          7           0        1.966776   -0.372547   -0.000002
      4          1           0       -1.320481   -1.067425   -0.886172
      5          1           0       -1.320496   -1.067407    0.886190
      6          1           0       -2.464821   -0.050262   -0.000011
      7          1           0       -0.404809    1.307345   -0.906696
      8          1           0       -0.404845    1.307380    0.906670
      9          1           0        0.838700    0.068649    0.000006
     10          1           0        2.512017    0.513940    0.000024
 ---------------------------------------------------------------------

 SCF Done:  E(UB3LYP) =  -135.020977854     A.U. after    1 cycles

 The electronic state is 3-A.
 Alpha  occ. eigenvalues --  -14.35786 -10.19095 -10.17640  -0.83601  -0.75923
 Alpha  occ. eigenvalues --   -0.61920  -0.46584  -0.45074  -0.40369  -0.38560
 Alpha  occ. eigenvalues --   -0.35848  -0.34128  -0.30430  -0.21464
 Alpha virt. eigenvalues --    0.09391   0.11851   0.14379   0.14980   0.16822
 Alpha virt. eigenvalues --    0.19113   0.23874   0.28495   0.48701   0.52169
 Alpha virt. eigenvalues --    0.54591   0.58586   0.60676   0.66098   0.70798

  Beta  occ. eigenvalues --  -14.32924 -10.18057 -10.17674  -0.76720  -0.73679
  Beta  occ. eigenvalues --   -0.60289  -0.44575  -0.43698  -0.38760  -0.37905
  Beta  occ. eigenvalues --   -0.35502  -0.29057
  Beta virt. eigenvalues --   -0.08474  -0.07705   0.10171   0.12708   0.15157
  Beta virt. eigenvalues --    0.15247   0.17123   0.19625   0.24607   0.31418
  Beta virt. eigenvalues --    0.49288   0.53035   0.55145   0.62238   0.63682

 Mulliken charges and spin densities:
               1          2
     1  C   -0.429573  -0.034269
     2  C   -0.419961   0.660939
     3  N   -0.511989   1.509390
     4  H    0.160487   0.006346
     5  H    0.160486   0.006347
     6  H    0.156487   0.037440
     7  H    0.159601  -0.020041
     8  H    0.159600  -0.020041
     9  H    0.281339  -0.099787
    10  H    0.283523  -0.046324
 Sum of Mulliken charges =  -0.00000   2.00000

 Dipole moment (field-independent basis, Debye):
    X=             -0.8735    Y=              1.6603    Z=              0.0000  Tot=              1.8760
 Quadrupole moment (field-independent basis, Debye-Ang):
   XX=            -21.4396   YY=            -21.8029   ZZ=            -20.5773
   XY=              3.9054   XZ=              0.0001   YZ=             -0.0000

  Exact polarizability:  54.193  -3.472  31.741  -0.000   0.000  25.636
 Approx polarizability:  65.029  -7.718  41.653  -0.000   0.000  32.885

 ******    1 imaginary frequencies (negative Signs) ******

                      1                      2                      3
                      A                      A                      A
 Frequencies --  -1509.5933                60.3030               139.6994
 Red. masses --      1.1014                 1.0821                 2.8283
 Frc consts  --      1.4788                 0.0023                 0.0325
 IR Inten    --    465.6149                72.7407                 4.9563

                      4                      5                      6
                      A                      A                      A
 Frequencies --    163.4400               465.7961               479.5367
 Red. masses --      1.1022                 1.0693                 2.1482
 Frc consts  --      0.0173                 0.1367                 0.2910
 IR Inten    --      0.9605                 3.5421                 6.5526

                      7                      8                      9
                      A                      A                      A
 Frequencies --    723.1441               837.4594               927.8714
 Red. masses --      1.3916                 1.0486                 1.1643
 Frc consts  --      0.4288                 0.4333                 0.5906
 IR Inten    --     14.0851                 7.7243                35.2874

                     10                     11                     12
                      A                      A                      A
 Frequencies --   1060.1574              1181.2434              1195.1119
 Red. masses --      3.0367                 1.1266                 1.4767
 Frc consts  --      2.0109                 0.9262                 1.2427
 IR Inten    --      1.5434                23.3014                 5.3504

                     13                     14                     15
                      A                      A                      A
 Frequencies --   1245.3571              1432.3142              1485.7792
 Red. masses --      1.2946                 1.2027                 1.0817
 Frc consts  --      1.1829                 1.4537                 1.4069
 IR Inten    --      6.1513                 4.0923                20.5487

                     16                     17                     18
                      A                      A                      A
 Frequencies --   1501.3711              1516.7365              1520.4692
 Red. masses --      1.1124                 1.0372                 1.0503
 Frc consts  --      1.4773                 1.4058                 1.4307
 IR Inten    --     44.7736                 5.4960                 8.9916

                     19                     20                     21
                      A                      A                      A
 Frequencies --   3015.7901              3085.4381              3100.6370
 Red. masses --      1.0496                 1.0814                 1.0560
 Frc consts  --      5.6241                 6.0657                 5.9815
 IR Inten    --     24.2487                10.0193                28.8980

                     22                     23                     24
                      A                      A                      A
 Frequencies --   3119.0619              3177.5556              3296.6406
 Red. masses --      1.1031                 1.1118                 1.0728
 Frc consts  --      6.3229                 6.6140                 6.8695
 IR Inten    --     14.3830                33.1873                22.3537

 - Thermochemistry -
 -------------------
 Temperature   298.150 Kelvin.  Pressure   1.00000 Atm.
 Atom     1 has atomic number  6 and mass  12.00000

 Molecular mass:    45.05785 amu.
 Principal axes and moments of inertia in atomic units:
                           1         2         3
     Eigenvalues --    68.42458 361.76853 407.05306
           X            0.99926   0.03841   0.00000
           Y           -0.03841   0.99926   0.00000
           Z           -0.00000  -0.00000   1.00000
 This molecule is an asymmetric top.
 Rotational symmetry number  1.
 Rotational temperatures (Kelvin)      1.26583     0.23942     0.21278
 Rotational constants (GHZ):          26.37563     4.98866     4.43368
    1 imaginary frequencies ignored.
 Zero-point vibrational energy     207737.0 (Joules/Mol)
                                   49.65033 (Kcal/Mol)
 Warning -- explicit consideration of   5 degrees of freedom as
           vibrations may cause significant error
 Vibrational temperatures:     86.76   201.00   235.15   670.18   689.95
          (Kelvin)           1040.44  1204.92  1335.00  1525.33  1699.55
                             1719.50  1791.79  2060.78  2137.70  2160.14
                             2182.25  2187.62  4339.05  4439.26  4461.13
                             4487.63  4571.79  4743.13

 Zero-point correction=                           0.079123 (Hartree/Particle)
 Thermal correction to Energy=                    0.084865
 Thermal correction to Enthalpy=                  0.085810
 Thermal correction to Gibbs Free Energy=         0.049977
 Sum of electronic and zero-point Energies=           -134.941855
 Sum of electronic and thermal Energies=              -134.936112
 Sum of electronic and thermal Enthalpies=            -134.935168
 Sum of electronic and thermal Free Energies=         -134.971001

                     E (Thermal)             CV                S
                      KCal/Mol        Cal/Mol-Kelvin    Cal/Mol-Kelvin
 Total                   53.254             17.504             75.416
 Electronic               0.000              0.000              2.183
 Translational            0.889              2.981             37.342
 Rotational               0.889              2.981             23.825
 Vibrational             51.476             11.543             12.065
 Vibration     1          0.597              1.973              4.447
 Vibration     2          0.615              1.914              2.808
 Vibration     3          0.623              1.887              2.510
 Vibration     4          0.823              1.326              0.749
 Vibration     5          0.836              1.295              0.711

 Optimization completed.
    -- Stationary point found.
 Normal termination of Gaussian 16 at Tue Oct  6 16:36:05 2020.
