 Gaussian 16, Revision A.03,
 Gaussian 16:  ES64L-G16RevA.03 25-Dec-2016

 ----------------------------------------------------------------------
 #P Opt(MaxCyc=150) AM1 5D 7F Integral=UltraFineGrid SCF=(NoSymm,XQC,Ma
 xCyc=120) IOp(1/33=1)
 ----------------------------------------------------------------------

 TstMul:  Mul=     1
 TstMul:  ICh=     0
 TstMul:  Mul=     1
 Symbolic Z-matrix:
 Charge =  0 Multiplicity = 1

 SCF Done:  E(RAM1) =  0.372084965968E-01 A.U. after   11 cycles
 SCF Done:  E(RAM1) =  0.336324264097E-01 A.U. after   10 cycles
 SCF Done:  E(RAM1) =  0.333384713169E-01 A.U. after   10 cycles
 SCF Done:  E(RAM1) =  0.332387404872E-01 A.U. after    9 cycles
 SCF Done:  E(RAM1) =  0.332361515607E-01 A.U. after    8 cycles
 Optimization completed.
    -- Stationary point found.

                         Standard orientation:
 ---------------------------------------------------------------------
 Center     Atomic      Atomic             Coordinates (Angstroms)
 Number     Number       Type             X           Y           Z
 ---------------------------------------------------------------------
      1          6           0       -2.031340   -0.607835    0.000006
      2          6           0       -1.232295    0.630102    0.000048
      3          6           0        0.103426    0.731643    0.000028
      4          6           0        1.045224   -0.368905   -0.000042
      5          6           0        2.369827   -0.195232   -0.000037
      6          1           0       -2.689203   -0.635055    0.905810
      7          1           0       -2.689247   -0.634965   -0.905770
      8          1           0       -1.401979   -1.530040   -0.000055
      9          1           0       -1.837135    1.555348    0.000103
     10          1           0        0.561559    1.738559    0.000067
     11          1           0        0.619419   -1.387104   -0.000102
     12          1           0        3.067625   -1.042077   -0.000090
     13          1           0        2.839905    0.796696    0.000021
 ---------------------------------------------------------------------

 The electronic state is 1-A.
 Alpha  occ. eigenvalues --   -1.34503  -1.19987  -1.01793  -0.82792  -0.70217
 Alpha  occ. eigenvalues --   -0.60505  -0.56319  -0.51958  -0.50484  -0.47539
 Alpha  occ. eigenvalues --   -0.46099  -0.42869  -0.42059  -0.33226
 Alpha virt. eigenvalues --    0.01556   0.08497   0.13779   0.15414   0.15432
 Alpha virt. eigenvalues --    0.16016   0.16682   0.17363   0.17963   0.18144
 Alpha virt. eigenvalues --    0.20068   0.20555   0.21358   0.22411

 Mulliken charges:
               1
     1  C   -0.188728
     2  C   -0.148915
     3  C   -0.144430
     4  C   -0.131081
     5  C   -0.212630
     6  H    0.083309
     7  H    0.083308
     8  H    0.079411
     9  H    0.116435
    10  H    0.119093
    11  H    0.121086
    12  H    0.112077
    13  H    0.111065
 Sum of Mulliken charges =  -0.00000

 Dipole moment (field-independent basis, Debye):
    X=             -0.2897    Y=             -0.1086    Z=              0.0000  Tot=              0.3094
 N-N= 1.005802746952D+02 E-N=-1.404950585597D+02  KE=-4.179202620827D+01
 Leave Link  601 at Wed Oct 21 14:16:42 2020, MaxMem=  2684354560 cpu:               1.9 elap:               0.6
 (Enter /udrive/faculty/rpeverati/g16/g16/l9999.exe)

 Test job not archived.
 1\1\GINC-NODE59\FOpt\RAM1\ZDO\C5H8\RPEVERATI\21-Oct-2020\0\\#P Opt(Max
 Cyc=150) AM1 5D 7F Integral=UltraFineGrid SCF=(NoSymm,XQC,MaxCyc=120)
 IOp(1/33=1)\\TS search on BH76.\\0,1\C,-2.0341359378,-0.6046840822,0.0
 000056013\C,-1.233239384,0.6320554314,0.0000479387\C,0.102632163,0.731
 5969107,0.000027627\C,1.0427818053,-0.370358703,-0.000041929\C,2.36764

 Normal termination of Gaussian 16 at Wed Oct 21 14:16:43 2020.
