 Gaussian 16, Revision A.03,
 Gaussian 16:  ES64L-G16RevA.03 25-Dec-2016

 ----------------------------------------------------------------------
 #P Opt(MaxCyc=150) AM1 5D 7F Integral=UltraFineGrid SCF=(NoSymm,XQC,Ma
 xCyc=120) IOp(1/33=1)
 ----------------------------------------------------------------------

 TstMul:  Mul=     2
 TstMul:  ICh=     0
 TstMul:  Mul=     2
 Symbolic Z-matrix:
 Charge =  0 Multiplicity = 2

 SCF Done:  E(UAM1) =  0.277618913678E-01 A.U. after   14 cycles
 SCF Done:  E(UAM1) =  0.247983041661E-01 A.U. after   13 cycles
 SCF Done:  E(UAM1) =  0.246473807111E-01 A.U. after   12 cycles
 SCF Done:  E(UAM1) =  0.246179735852E-01 A.U. after   11 cycles
 SCF Done:  E(UAM1) =  0.246169137618E-01 A.U. after   10 cycles
 Optimization completed.
    -- Stationary point found.

                         Standard orientation:
 ---------------------------------------------------------------------
 Center     Atomic      Atomic             Coordinates (Angstroms)
 Number     Number       Type             X           Y           Z
 ---------------------------------------------------------------------
      1          6           0        0.774569    0.000079   -0.004100
      2          6           0       -0.679158    0.000125   -0.002405
      3          1           0       -1.090737    0.913683   -0.499717
      4          1           0        1.330971   -0.937159    0.002816
      5          1           0       -1.054304   -0.013678    1.055806
      6          1           0       -1.089976   -0.900990   -0.522742
      7          1           0        1.331575    0.936923    0.002863
 ---------------------------------------------------------------------

 The electronic state is 2-A.
 Alpha  occ. eigenvalues --   -1.21293  -0.85102  -0.56410  -0.51787  -0.50222
 Alpha  occ. eigenvalues --   -0.44082  -0.33852
 Alpha virt. eigenvalues --    0.15163   0.15555   0.16387   0.17491   0.19289
 Alpha virt. eigenvalues --    0.19454
  Beta  occ. eigenvalues --   -1.18648  -0.81638  -0.55676  -0.50071  -0.49293
  Beta  occ. eigenvalues --   -0.43676
  Beta virt. eigenvalues --    0.04729   0.15360   0.17159   0.17513   0.19078
  Beta virt. eigenvalues --    0.20409   0.20520

 Mulliken charges and spin densities:
               1          2
     1  C   -0.276293   1.114741
     2  C   -0.189182  -0.103652
     3  H    0.078857   0.019497
     4  H    0.110477  -0.058078
     5  H    0.086494   0.064825
     6  H    0.079094   0.020732
     7  H    0.110553  -0.058066
 Sum of Mulliken charges =   0.00000   1.00000

 Dipole moment (field-independent basis, Debye):
    X=             -0.2419    Y=             -0.0022    Z=              0.0728  Tot=              0.2526
 N-N= 3.041735676936D+01 E-N=-3.452400962022D+01  KE=-1.784395572960D+01
 Leave Link  601 at Wed Oct 21 14:16:36 2020, MaxMem=  2684354560 cpu:               1.6 elap:               0.5
 (Enter /udrive/faculty/rpeverati/g16/g16/l9999.exe)

 Test job not archived.
 1\1\GINC-NODE34\FOpt\UAM1\ZDO\C2H5(2)\RPEVERATI\21-Oct-2020\0\\#P Opt(
 MaxCyc=150) AM1 5D 7F Integral=UltraFineGrid SCF=(NoSymm,XQC,MaxCyc=12
 0) IOp(1/33=1)\\TS search on BH76.\\0,2\C,0.771883029,-0.0001029852,0.
 0182129865\C,-0.6817495607,0.0002922348,0.0015665551\H,-1.0868030958,0
 .9140056722,-0.5007917992\H,1.3279291934,-0.9374747972,0.0320389092\H,

 Normal termination of Gaussian 16 at Wed Oct 21 14:16:37 2020.
