 Gaussian 16, Revision A.03,

 ----------------------------------------------------------------------
 #P Opt(TS,MaxCyc=50,NoEigenTest,MaxStep=10,AddRedundant) AM1 5D 7F Int
 egral=UltraFineGrid SCF=(NoSymm,XQC,MaxCyc=120) IOp(1/33=1)
 ----------------------------------------------------------------------

 TstMul:  Mul=     2
 TstMul:  ICh=     0
 TstMul:  Mul=     2
 Symbolic Z-matrix:
 Charge =  0 Multiplicity = 2

 SCF Done:  E(UAM1) =  0.800512982822E-01 A.U. after   17 cycles
 SCF Done:  E(UAM1) =  0.775970705892E-01 A.U. after   14 cycles
 SCF Done:  E(UAM1) =  0.775482582568E-01 A.U. after   15 cycles
 SCF Done:  E(UAM1) =  0.770102444167E-01 A.U. after   14 cycles
 SCF Done:  E(UAM1) =  0.776097164123E-01 A.U. after   15 cycles
 SCF Done:  E(UAM1) =  0.773514459104E-01 A.U. after   15 cycles
 SCF Done:  E(UAM1) =  0.766863293087E-01 A.U. after   15 cycles
 SCF Done:  E(UAM1) =  0.771030812187E-01 A.U. after   15 cycles
 SCF Done:  E(UAM1) =  0.768524427559E-01 A.U. after   15 cycles
 SCF Done:  E(UAM1) =  0.763792783186E-01 A.U. after   15 cycles
 SCF Done:  E(UAM1) =  0.765874452546E-01 A.U. after   15 cycles
 SCF Done:  E(UAM1) =  0.766168117449E-01 A.U. after   14 cycles
 SCF Done:  E(UAM1) =  0.766800160411E-01 A.U. after   14 cycles
 SCF Done:  E(UAM1) =  0.766082759432E-01 A.U. after   14 cycles
 SCF Done:  E(UAM1) =  0.766422581557E-01 A.U. after   14 cycles
 SCF Done:  E(UAM1) =  0.766071917779E-01 A.U. after   14 cycles
 SCF Done:  E(UAM1) =  0.766116631748E-01 A.U. after   14 cycles
 SCF Done:  E(UAM1) =  0.766064526836E-01 A.U. after   14 cycles
 SCF Done:  E(UAM1) =  0.766063939724E-01 A.U. after   12 cycles
 Optimization completed.
    -- Stationary point found.
 Normal termination of Gaussian 16 at Wed Oct 21 14:30:18 2020.
 Gaussian 16:  ES64L-G16RevA.03 25-Dec-2016

 ----------------------------------------------------------------------
 #P Freq AM1 5D 7F Integral=UltraFineGrid SCF=(NoSymm,XQC,MaxCyc=120) I
 Op(1/33=1) Geom=Check Guess=Read
 ----------------------------------------------------------------------

 TstMul:  Mul=     2
 TstMul:  ICh=     0
 TstMul:  Mul=     2
 Structure from the checkpoint file:  "MN_17_c3h7ts_BH76_AM1_SE.chk"
 Charge =  0 Multiplicity = 2

                         Standard orientation:
 ---------------------------------------------------------------------
 Center     Atomic      Atomic             Coordinates (Angstroms)
 Number     Number       Type             X           Y           Z
 ---------------------------------------------------------------------
      1          6           0       -0.466002    0.713705    0.000047
      2          6           0       -1.228076   -0.409797    0.000002
      3          1           0       -0.236028    1.254179   -0.929007
      4          1           0       -0.235852    1.253986    0.929173
      5          1           0       -1.541423   -0.901182    0.927898
      6          1           0       -1.541631   -0.900966   -0.927938
      7          6           0        1.479483   -0.260377   -0.000034
      8          1           0        2.063558    0.660040   -0.001091
      9          1           0        1.388881   -0.814326   -0.934036
     10          1           0        1.390068   -0.812915    0.934911
 ---------------------------------------------------------------------

 SCF Done:  E(UAM1) =  0.766063939724E-01 A.U. after    2 cycles

 The electronic state is 2-A.
 Alpha  occ. eigenvalues --   -1.22835  -1.01067  -0.80379  -0.58134  -0.52795
 Alpha  occ. eigenvalues --   -0.50022  -0.49641  -0.43613  -0.41773  -0.32054
 Alpha virt. eigenvalues --    0.06284   0.15242   0.16098   0.16767   0.18257
 Alpha virt. eigenvalues --    0.18329   0.18725   0.20542   0.20855
  Beta  occ. eigenvalues --   -1.22038  -0.95921  -0.79826  -0.57974  -0.52420
  Beta  occ. eigenvalues --   -0.49009  -0.48762  -0.43519  -0.38633
  Beta virt. eigenvalues --    0.03849   0.08871   0.15253   0.16211   0.19047
  Beta virt. eigenvalues --    0.19194   0.19613   0.19621   0.20720   0.21131

 Mulliken charges and spin densities:
               1          2
     1  C   -0.169657  -0.497399
     2  C   -0.244416   0.662612
     3  H    0.108648   0.030740
     4  H    0.108652   0.030747
     5  H    0.109792  -0.035168
     6  H    0.109790  -0.035168
     7  C   -0.301280   0.985986
     8  H    0.091936  -0.045755
     9  H    0.093271  -0.048300
    10  H    0.093265  -0.048294
 Sum of Mulliken charges =   0.00000   1.00000

 Dipole moment (field-independent basis, Debye):
    X=              0.1280    Y=              0.1144    Z=             -0.0000  Tot=              0.1717
 N-N= 5.371200702167D+01 E-N=-6.861334060844D+01  KE=-2.645333063701D+01
  Exact polarizability:  33.063   8.501  26.085   0.002  -0.001  23.344
 Approx polarizability:  18.945   6.059  17.398   0.002  -0.001  13.908
 Leave Link  601 at Wed Oct 21 14:31:02 2020, MaxMem=  2684354560 cpu:               3.4 elap:               0.7
 (Enter /udrive/faculty/rpeverati/g16/g16/l701.exe)
 ... and contract with generalized density number  0.
 Compute integral second derivatives.
 Leave Link  701 at Wed Oct 21 14:31:04 2020, MaxMem=  2684354560 cpu:               6.8 elap:               2.0
 (Enter /udrive/faculty/rpeverati/g16/g16/l702.exe)
 L702 exits ... SP integral derivatives will be done elsewhere.

 ******    1 imaginary frequencies (negative Signs) ******

                      1                      2                      3
                      A                      A                      A
 Frequencies --   -475.6916                64.3403               185.3496
 Red. masses --     11.3899                 1.0838                 2.9469
 Frc consts  --      1.5185                 0.0026                 0.0596
 IR Inten    --      3.6508                 0.0049                 0.6611

                      4                      5                      6
                      A                      A                      A
 Frequencies --    341.0712               559.7094               562.6616
 Red. masses --      1.0651                 1.0680                 1.0592
 Frc consts  --      0.0730                 0.1971                 0.1976
 IR Inten    --      0.0965                 1.3812                 2.4455

                      7                      8                      9
                      A                      A                      A
 Frequencies --    820.7839               856.0228               911.1673
 Red. masses --      1.0492                 1.0173                 1.1012
 Frc consts  --      0.4164                 0.4392                 0.5386
 IR Inten    --      0.4874                 0.0106                17.9165

                     10                     11                     12
                      A                      A                      A
 Frequencies --    967.5025              1018.7977              1158.6639
 Red. masses --      1.2602                 1.2156                 1.5499
 Frc consts  --      0.6950                 0.7434                 1.2260
 IR Inten    --     27.6963                62.8382                 0.0284

                     13                     14                     15
                      A                      A                      A
 Frequencies --   1355.3525              1358.3830              1369.4385
 Red. masses --      1.1053                 1.1038                 1.0599
 Frc consts  --      1.1963                 1.2000                 1.1711
 IR Inten    --      0.1004                 0.2386                 0.0508

                     16                     17                     18
                      A                      A                      A
 Frequencies --   1401.8957              1582.4717              3157.8579
 Red. masses --      1.1112                 5.4172                 1.0989
 Frc consts  --      1.2867                 7.9927                 6.4563
 IR Inten    --      1.2563                 2.1213                 0.7146

                     19                     20                     21
                      A                      A                      A
 Frequencies --   3194.2066              3198.6356              3221.8656
 Red. masses --      1.1104                 1.0482                 1.0486
 Frc consts  --      6.6749                 6.3186                 6.4131
 IR Inten    --     10.3377                 4.9153                23.9078

                     22                     23                     24
                      A                      A                      A
 Frequencies --   3225.2143              3226.5806              3239.3763
 Red. masses --      1.1069                 1.1087                 1.0117
 Frc consts  --      6.7841                 6.8006                 6.2549
 IR Inten    --      3.6427                 2.5145                 8.0048

 - Thermochemistry -
 -------------------
 Temperature   298.150 Kelvin.  Pressure   1.00000 Atm.
 Atom     1 has atomic number  6 and mass  12.00000

 Molecular mass:    43.05478 amu.
 Principal axes and moments of inertia in atomic units:
                           1         2         3
     Eigenvalues --    73.98937 233.15267 269.74859
           X            0.99959   0.02850   0.00001
           Y           -0.02850   0.99959  -0.00002
           Z           -0.00001   0.00002   1.00000
 This molecule is an asymmetric top.
 Rotational symmetry number  1.
 Rotational temperatures (Kelvin)      1.17063     0.37149     0.32109
 Rotational constants (GHZ):          24.39190     7.74060     6.69046
    1 imaginary frequencies ignored.
 Zero-point vibrational energy     221173.7 (Joules/Mol)
                                   52.86177 (Kcal/Mol)
 Warning -- explicit consideration of   5 degrees of freedom as
           vibrations may cause significant error
 Vibrational temperatures:     92.57   266.68   490.73   805.30   809.54
          (Kelvin)           1180.92  1231.63  1310.97  1392.02  1465.82
                             1667.06  1950.05  1954.41  1970.32  2017.02
                             2276.82  4543.45  4595.75  4602.12  4635.55
                             4640.36  4642.33  4660.74

 Zero-point correction=                           0.084241 (Hartree/Particle)
 Thermal correction to Energy=                    0.089520
 Thermal correction to Enthalpy=                  0.090464
 Thermal correction to Gibbs Free Energy=         0.056584
 Sum of electronic and zero-point Energies=              0.160847
 Sum of electronic and thermal Energies=                 0.166126
 Sum of electronic and thermal Enthalpies=               0.167070
 Sum of electronic and thermal Free Energies=            0.133190

                     E (Thermal)             CV                S
                      KCal/Mol        Cal/Mol-Kelvin    Cal/Mol-Kelvin
 Total                   56.175             16.810             71.307
 Electronic               0.000              0.000              1.377
 Translational            0.889              2.981             37.206
 Rotational               0.889              2.981             23.058
 Vibrational             54.397             10.849              9.666
 Vibration     1          0.597              1.971              4.319
 Vibration     2          0.631              1.860              2.274
 Vibration     3          0.721              1.593              1.207
 Vibration     4          0.915              1.118              0.524
 Vibration     5          0.918              1.112              0.519

 Optimization completed.
    -- Stationary point found.
 Normal termination of Gaussian 16 at Wed Oct 21 14:31:19 2020.
