 Gaussian 16, Revision A.03,
 Gaussian 16:  ES64L-G16RevA.03 25-Dec-2016

 ----------------------------------------------------------------------
 #P Opt(MaxCyc=150) AM1 5D 7F Integral=UltraFineGrid SCF=(NoSymm,XQC,Ma
 xCyc=120) IOp(1/33=1)
 ----------------------------------------------------------------------

 TstMul:  Mul=     1
 TstMul:  ICh=     0
 TstMul:  Mul=     1
 Symbolic Z-matrix:
 Charge =  0 Multiplicity = 1

 SCF Done:  E(RAM1) = -0.243229445737E-01 A.U. after   10 cycles
 SCF Done:  E(RAM1) = -0.276874024848E-01 A.U. after    7 cycles
 SCF Done:  E(RAM1) = -0.278050683784E-01 A.U. after    8 cycles
 SCF Done:  E(RAM1) = -0.278222175736E-01 A.U. after    8 cycles
 Optimization completed.
    -- Stationary point found.

                         Standard orientation:
 ---------------------------------------------------------------------
 Center     Atomic      Atomic             Coordinates (Angstroms)
 Number     Number       Type             X           Y           Z
 ---------------------------------------------------------------------
      1          6           0        0.393695    0.317990   -0.553751
      2          6           0       -0.393695   -0.317990    0.553751
      3          1           0       -0.272078   -1.428031    0.537803
      4          1           0        0.050678   -0.057239   -1.548124
      5          1           0       -1.480878   -0.084586    0.449865
      6          1           0       -0.049933    0.056412    1.548179
      7          1           0        0.271196    1.427944   -0.538481
      8          1           0        1.481014    0.085501   -0.449242
 ---------------------------------------------------------------------

 The electronic state is 1-A.
 Alpha  occ. eigenvalues --   -1.22066  -0.86720  -0.54703  -0.54703  -0.48331
 Alpha  occ. eigenvalues --   -0.43246  -0.43246
 Alpha virt. eigenvalues --    0.15139   0.15139   0.17153   0.18176   0.18522
 Alpha virt. eigenvalues --    0.18522   0.19287

 Mulliken charges:
               1
     1  C   -0.211807
     2  C   -0.211807
     3  H    0.070602
     4  H    0.070602
     5  H    0.070602
     6  H    0.070602
     7  H    0.070602
     8  H    0.070602
 Sum of Mulliken charges =   0.00000

 Dipole moment (field-independent basis, Debye):
    X=             -0.0000    Y=              0.0000    Z=             -0.0000  Tot=              0.0000
 N-N= 3.417080475211D+01 E-N=-4.084878425601D+01  KE=-1.848812383971D+01
 Leave Link  601 at Wed Oct 21 14:16:37 2020, MaxMem=  2684354560 cpu:               2.1 elap:               0.6
 (Enter /udrive/faculty/rpeverati/g16/g16/l9999.exe)

 Test job not archived.
 1\1\GINC-NODE63\FOpt\RAM1\ZDO\C2H6\RPEVERATI\21-Oct-2020\0\\#P Opt(Max
 Cyc=150) AM1 5D 7F Integral=UltraFineGrid SCF=(NoSymm,XQC,MaxCyc=120)
 IOp(1/33=1)\\TS search on BH76.\\0,1\C,-0.7501688721,-0.0000003866,0.0
 000004511\C,0.7501688617,-0.0000002625,0.0000013508\H,1.14510906,-0.45
 578246,-0.9399565527\H,-1.1451084661,-1.0418381686,-0.0763725012\H,1.1

 Normal termination of Gaussian 16 at Wed Oct 21 14:16:38 2020.
