 Gaussian 16, Revision A.03,
 Gaussian 16:  ES64L-G16RevA.03 25-Dec-2016

 ----------------------------------------------------------------------
 #P Opt(MaxCyc=150) AM1 5D 7F Integral=UltraFineGrid SCF=(NoSymm,XQC,Ma
 xCyc=120) IOp(1/33=1)
 ----------------------------------------------------------------------

 TstMul:  Mul=     1
 TstMul:  ICh=     0
 TstMul:  Mul=     1
 Symbolic Z-matrix:
 Charge =  0 Multiplicity = 1

 SCF Done:  E(RAM1) = -0.279493352065E-01 A.U. after   11 cycles
 SCF Done:  E(RAM1) = -0.301552948086E-01 A.U. after    9 cycles
 SCF Done:  E(RAM1) = -0.302339851183E-01 A.U. after    8 cycles
 SCF Done:  E(RAM1) = -0.302438690344E-01 A.U. after    8 cycles
 Optimization completed.
    -- Stationary point found.

                         Standard orientation:
 ---------------------------------------------------------------------
 Center     Atomic      Atomic             Coordinates (Angstroms)
 Number     Number       Type             X           Y           Z
 ---------------------------------------------------------------------
      1          6           0        0.000000    0.000000   -1.098223
      2         17           0        0.000000    0.000000    0.642886
      3          1           0        0.000000    1.055376   -1.446575
      4          1           0        0.913983   -0.527688   -1.446575
      5          1           0       -0.913983   -0.527688   -1.446575
 ---------------------------------------------------------------------

 The electronic state is 1-A1.
 Alpha  occ. eigenvalues --   -1.36962  -1.06018  -0.55679  -0.55679  -0.54635
 Alpha  occ. eigenvalues --   -0.41667  -0.41667
 Alpha virt. eigenvalues --    0.05873   0.14207   0.14207   0.15423

 Mulliken charges:
               1
     1  C   -0.177493
     2  Cl  -0.116563
     3  H    0.098019
     4  H    0.098019
     5  H    0.098019
 Sum of Mulliken charges =  -0.00000

 Dipole moment (field-independent basis, Debye):
    X=             -0.0000    Y=             -0.0000    Z=             -1.5127  Tot=              1.5127
 N-N= 3.686472707067D+01 E-N=-3.200489649183D+01  KE=-3.193889552911D+01
 Leave Link  601 at Wed Oct 21 14:16:32 2020, MaxMem=  2684354560 cpu:               2.3 elap:               0.7
 (Enter /udrive/faculty/rpeverati/g16/g16/l9999.exe)

 Test job not archived.
 1\1\GINC-NODE59\FOpt\RAM1\ZDO\C1H3Cl1\RPEVERATI\21-Oct-2020\0\\#P Opt(
 MaxCyc=150) AM1 5D 7F Integral=UltraFineGrid SCF=(NoSymm,XQC,MaxCyc=12
 0) IOp(1/33=1)\\TS search on BH76.\\0,1\C,0.,0.,-0.139502669\Cl,0.,0.,
 1.6016064154\H,-0.5276880614,-0.9139825328,-0.4878542186\H,-0.52768806
 14,0.9139825328,-0.4878542186\H,1.0553761227,0.,-0.4878542186\\Version

 Normal termination of Gaussian 16 at Wed Oct 21 14:16:34 2020.
