 Gaussian 16, Revision A.03,
 Gaussian 16:  ES64L-G16RevA.03 25-Dec-2016

 ----------------------------------------------------------------------
 #P Opt(MaxCyc=150) AM1 5D 7F Integral=UltraFineGrid SCF=(NoSymm,XQC,Ma
 xCyc=120) IOp(1/33=1)
 ----------------------------------------------------------------------

 TstMul:  Mul=     2
 TstMul:  ICh=     0
 TstMul:  Mul=     2
 Symbolic Z-matrix:
 Charge =  0 Multiplicity = 2

 SCF Done:  E(UAM1) =  0.277920815202E-01 A.U. after   14 cycles
 SCF Done:  E(UAM1) =  0.248028837380E-01 A.U. after   13 cycles
 SCF Done:  E(UAM1) =  0.246484518834E-01 A.U. after   12 cycles
 SCF Done:  E(UAM1) =  0.246181911141E-01 A.U. after   11 cycles
 SCF Done:  E(UAM1) =  0.246169390982E-01 A.U. after   10 cycles
 Optimization completed.
    -- Stationary point found.

                         Standard orientation:
 ---------------------------------------------------------------------
 Center     Atomic      Atomic             Coordinates (Angstroms)
 Number     Number       Type             X           Y           Z
 ---------------------------------------------------------------------
      1          6           0       -0.003193   -0.679138    0.000000
      2          6           0       -0.003193    0.774578   -0.000000
      3          1           0        1.054670   -1.055497    0.000000
      4          1           0       -0.512521   -1.089786    0.907378
      5          1           0       -0.512521   -1.089786   -0.907378
      6          1           0        0.004342    1.331216   -0.937065
      7          1           0        0.004342    1.331216    0.937065
 ---------------------------------------------------------------------

 The electronic state is 2-A'.
 Alpha  occ. eigenvalues --   -1.21294  -0.85102  -0.56411  -0.51787  -0.50222
 Alpha  occ. eigenvalues --   -0.44083  -0.33852
 Alpha virt. eigenvalues --    0.15163   0.15555   0.16387   0.17492   0.19289
 Alpha virt. eigenvalues --    0.19454
  Beta  occ. eigenvalues --   -1.18649  -0.81639  -0.55677  -0.50071  -0.49293
  Beta  occ. eigenvalues --   -0.43677
  Beta virt. eigenvalues --    0.04729   0.15360   0.17160   0.17513   0.19079
  Beta virt. eigenvalues --    0.20409   0.20521

 Mulliken charges and spin densities:
               1          2
     1  C   -0.189190  -0.103649
     2  C   -0.276288   1.114736
     3  H    0.086495   0.064836
     4  H    0.078971   0.020110
     5  H    0.078971   0.020110
     6  H    0.110520  -0.058071
     7  H    0.110520  -0.058071
 Sum of Mulliken charges =   0.00000   1.00000

 Dipole moment (field-independent basis, Debye):
    X=              0.0724    Y=             -0.2420    Z=              0.0000  Tot=              0.2526
 N-N= 3.041749794858D+01 E-N=-3.452421475992D+01  KE=-1.784398322224D+01
 Leave Link  601 at Wed Oct 21 14:16:39 2020, MaxMem=  2684354560 cpu:               2.1 elap:               0.5
 (Enter /udrive/faculty/rpeverati/g16/g16/l9999.exe)

 Test job not archived.
 1\1\GINC-NODE06\FOpt\UAM1\ZDO\C2H5(2)\RPEVERATI\21-Oct-2020\0\\#P Opt(
 MaxCyc=150) AM1 5D 7F Integral=UltraFineGrid SCF=(NoSymm,XQC,MaxCyc=12
 0) IOp(1/33=1)\\TS search on BH76.\\0,2\C,-0.0084456369,-0.6815098347,
 0.\C,0.0291525999,0.7717203015,0.\H,1.0393289456,-1.0851025321,0.\H,-0
 .5282244658,-1.0788471723,0.9073777259\H,-0.5282244658,-1.0788471723,-

 Normal termination of Gaussian 16 at Wed Oct 21 14:16:40 2020.
