 Gaussian 16, Revision A.03,
 Gaussian 16:  ES64L-G16RevA.03 25-Dec-2016

 ----------------------------------------------------------------------
 #P Opt(MaxCyc=150) AM1 5D 7F Integral=UltraFineGrid SCF=(NoSymm,XQC,Ma
 xCyc=120) IOp(1/33=1)
 ----------------------------------------------------------------------

 TstMul:  Mul=     1
 TstMul:  ICh=     0
 TstMul:  Mul=     1
 Symbolic Z-matrix:
 Charge =  0 Multiplicity = 1

 SCF Done:  E(RAM1) =  0.271549388197E-01 A.U. after    9 cycles
 SCF Done:  E(RAM1) =  0.262614332596E-01 A.U. after    8 cycles
 SCF Done:  E(RAM1) =  0.261982016678E-01 A.U. after    7 cycles
 SCF Done:  E(RAM1) =  0.261903393067E-01 A.U. after    7 cycles
 Optimization completed.
    -- Stationary point found.

                         Standard orientation:
 ---------------------------------------------------------------------
 Center     Atomic      Atomic             Coordinates (Angstroms)
 Number     Number       Type             X           Y           Z
 ---------------------------------------------------------------------
      1          6           0        0.000000    0.000000    0.663021
      2          6           0        0.000000    0.000000   -0.663021
      3          1           0        0.000000    0.923951    1.256943
      4          1           0       -0.000000   -0.923951    1.256943
      5          1           0        0.000000    0.923951   -1.256943
      6          1           0       -0.000000   -0.923951   -1.256943
 ---------------------------------------------------------------------

 The electronic state is 1-AG.
 Alpha  occ. eigenvalues --   -1.21837  -0.80443  -0.58035  -0.52566  -0.43493
 Alpha  occ. eigenvalues --   -0.38774
 Alpha virt. eigenvalues --    0.05283   0.14735   0.16156   0.18681   0.20427
 Alpha virt. eigenvalues --    0.21286

 Mulliken charges:
               1
     1  C   -0.217959
     2  C   -0.217959
     3  H    0.108979
     4  H    0.108979
     5  H    0.108979
     6  H    0.108979
 Sum of Mulliken charges =  -0.00000

 Dipole moment (field-independent basis, Debye):
    X=             -0.0000    Y=              0.0000    Z=             -0.0000  Tot=              0.0000
 N-N= 2.712944562466D+01 E-N=-2.903817617768D+01  KE=-1.726539109352D+01
 Leave Link  601 at Wed Oct 21 14:16:29 2020, MaxMem=  2684354560 cpu:               2.6 elap:               0.7
 (Enter /udrive/faculty/rpeverati/g16/g16/l9999.exe)

 Test job not archived.
 1\1\GINC-NODE01\FOpt\RAM1\ZDO\C2H4\RPEVERATI\21-Oct-2020\0\\#P Opt(Max
 Cyc=150) AM1 5D 7F Integral=UltraFineGrid SCF=(NoSymm,XQC,MaxCyc=120)
 IOp(1/33=1)\\TS search on BH76.\\0,1\C,0.,0.,0.663021093\C,0.,0.,-0.66
 3021093\H,0.,0.923950729,1.2569431414\H,0.,-0.923950729,1.2569431414\H
 ,0.,0.923950729,-1.2569431414\H,0.,-0.923950729,-1.2569431414\\Version

 Normal termination of Gaussian 16 at Wed Oct 21 14:16:30 2020.
