 Gaussian 16, Revision A.03,
 Gaussian 16:  ES64L-G16RevA.03 25-Dec-2016

 ----------------------------------------------------------------------
 #P Opt(MaxCyc=150) AM1 5D 7F Integral=UltraFineGrid SCF=(NoSymm,XQC,Ma
 xCyc=120) IOp(1/33=1)
 ----------------------------------------------------------------------

 TstMul:  Mul=     2
 TstMul:  ICh=     0
 TstMul:  Mul=     2
 Symbolic Z-matrix:
 Charge =  0 Multiplicity = 2

 SCF Done:  E(UAM1) =  0.196855992009E-01 A.U. after   14 cycles
 SCF Done:  E(UAM1) =  0.156301443048E-01 A.U. after   13 cycles
 SCF Done:  E(UAM1) =  0.153772765753E-01 A.U. after   13 cycles
 SCF Done:  E(UAM1) =  0.152932784707E-01 A.U. after   11 cycles
 SCF Done:  E(UAM1) =  0.152912516854E-01 A.U. after   10 cycles
 Optimization completed.
    -- Stationary point found.

                         Standard orientation:
 ---------------------------------------------------------------------
 Center     Atomic      Atomic             Coordinates (Angstroms)
 Number     Number       Type             X           Y           Z
 ---------------------------------------------------------------------
      1          6           0        1.181435   -0.286961    0.000049
      2          6           0       -0.064923    0.570480   -0.000050
      3          6           0       -1.275022   -0.251612   -0.000002
      4          1           0        1.209187   -0.939290    0.905341
      5          1           0        1.209198   -0.939484   -0.905102
      6          1           0        2.090950    0.360090   -0.000014
      7          1           0       -0.053750    1.238344   -0.904107
      8          1           0       -0.053773    1.238531    0.903866
      9          1           0       -1.725591   -0.574458    0.938095
     10          1           0       -1.725162   -0.575173   -0.938060
 ---------------------------------------------------------------------

 The electronic state is 2-A.
 Alpha  occ. eigenvalues --   -1.29123  -1.00605  -0.79842  -0.58740  -0.54704
 Alpha  occ. eigenvalues --   -0.49813  -0.48917  -0.44875  -0.41953  -0.34255
 Alpha virt. eigenvalues --    0.14316   0.14793   0.16018   0.16649   0.17151
 Alpha virt. eigenvalues --    0.18079   0.18642   0.19302   0.19667
  Beta  occ. eigenvalues --   -1.27670  -0.97379  -0.78063  -0.58270  -0.54016
  Beta  occ. eigenvalues --   -0.48654  -0.48346  -0.44329  -0.41767
  Beta virt. eigenvalues --    0.04731   0.14428   0.15944   0.17105   0.17467
  Beta virt. eigenvalues --    0.17482   0.18820   0.19319   0.20353   0.20606

 Mulliken charges and spin densities:
               1          2
     1  C   -0.202640   0.060086
     2  C   -0.137727  -0.096201
     3  C   -0.267967   1.128192
     4  H    0.074361  -0.003865
     5  H    0.074360  -0.003864
     6  H    0.072508  -0.001231
     7  H    0.082748   0.016951
     8  H    0.082743   0.016921
     9  H    0.110808  -0.058494
    10  H    0.110806  -0.058494
 Sum of Mulliken charges =   0.00000   1.00000

 Dipole moment (field-independent basis, Debye):
    X=              0.2143    Y=              0.0246    Z=             -0.0000  Tot=              0.2157
 N-N= 5.537334287291D+01 E-N=-7.186945834171D+01  KE=-2.643346234343D+01
 Leave Link  601 at Wed Oct 21 14:16:44 2020, MaxMem=  2684354560 cpu:               1.6 elap:               0.5
 (Enter /udrive/faculty/rpeverati/g16/g16/l9999.exe)

 Test job not archived.
 1\1\GINC-NODE58\FOpt\UAM1\ZDO\C3H7(2)\RPEVERATI\21-Oct-2020\0\\#P Opt(
 MaxCyc=150) AM1 5D 7F Integral=UltraFineGrid SCF=(NoSymm,XQC,MaxCyc=12
 0) IOp(1/33=1)\\TS search on BH76.\\0,2\C,1.1898270242,-0.2883172207,0
 .0000535799\C,-0.0622574051,0.560738806,-0.000046139\C,-1.2668117026,-
 0.2694559131,0.0000018462\H,1.2219570569,-0.940444461,0.9053453067\H,1

 Normal termination of Gaussian 16 at Wed Oct 21 14:16:46 2020.
