 Gaussian 16, Revision A.03,
 Gaussian 16:  ES64L-G16RevA.03 25-Dec-2016

 ----------------------------------------------------------------------
 #P Opt(MaxCyc=150) AM1 5D 7F Integral=UltraFineGrid SCF=(NoSymm,XQC,Ma
 xCyc=120) IOp(1/33=1)
 ----------------------------------------------------------------------

 TstMul:  Mul=     1
 TstMul:  ICh=    -1
 TstMul:  Mul=     1
 Symbolic Z-matrix:
 Charge = -1 Multiplicity = 1

 SCF Done:  E(RAM1) = -0.998111640713E-01 A.U. after   11 cycles
 SCF Done:  E(RAM1) = -0.102692356178     A.U. after    9 cycles
 SCF Done:  E(RAM1) = -0.102996302632     A.U. after    8 cycles
 SCF Done:  E(RAM1) = -0.103597119019     A.U. after    9 cycles
 SCF Done:  E(RAM1) = -0.103788983122     A.U. after    9 cycles
 SCF Done:  E(RAM1) = -0.103881807871     A.U. after    9 cycles
 SCF Done:  E(RAM1) = -0.103895698128     A.U. after    8 cycles
 SCF Done:  E(RAM1) = -0.103897729138     A.U. after    8 cycles
 SCF Done:  E(RAM1) = -0.103898712316     A.U. after    8 cycles
 Optimization completed.
    -- Stationary point found.

                         Standard orientation:
 ---------------------------------------------------------------------
 Center     Atomic      Atomic             Coordinates (Angstroms)
 Number     Number       Type             X           Y           Z
 ---------------------------------------------------------------------
      1         17           0        0.000000    0.000000   -2.238578
      2          6           0        0.000000    0.000000   -0.453639
      3          1           0       -0.000000    1.057197   -0.118016
      4          1           0       -0.915560   -0.528599   -0.118016
      5          1           0        0.915560   -0.528599   -0.118016
      6         17           0        0.000000    0.000000    2.419513
 ---------------------------------------------------------------------

 The electronic state is 1-A1.
 Alpha  occ. eigenvalues --   -1.21835  -0.94241  -0.89752  -0.39834  -0.39834
 Alpha  occ. eigenvalues --   -0.39064  -0.28090  -0.28090  -0.12961  -0.12961
 Alpha  occ. eigenvalues --   -0.12714
 Alpha virt. eigenvalues --    0.19884   0.30798   0.30798   0.32608

 Mulliken charges:
               1
     1  Cl  -0.269032
     2  C   -0.101856
     3  H    0.116832
     4  H    0.116832
     5  H    0.116832
     6  Cl  -0.979607
 Sum of Mulliken charges =  -1.00000

 Dipole moment (field-independent basis, Debye):
    X=             -0.0000    Y=              0.0000    Z=             -8.4704  Tot=              8.4704
 N-N= 6.447221874339D+01 E-N=-6.150739144608D+01  KE=-5.725735325491D+01
 Leave Link  601 at Wed Oct 21 14:18:00 2020, MaxMem=  2684354560 cpu:               3.6 elap:               1.0
 (Enter /udrive/faculty/rpeverati/g16/g16/l9999.exe)

 Test job not archived.
 1\1\GINC-NODE62\FOpt\RAM1\ZDO\C1H3Cl2(1-)\RPEVERATI\21-Oct-2020\0\\#P
 Opt(MaxCyc=150) AM1 5D 7F Integral=UltraFineGrid SCF=(NoSymm,XQC,MaxCy
 c=120) IOp(1/33=1)\\TS search on BH76.\\-1,1\Cl,0.,0.,-2.1341198523\C,
 0.,0.,-0.3491806067\H,-0.5285985417,0.9155595311,-0.0135569634\H,-0.52
 85985417,-0.9155595311,-0.0135569634\H,1.0571970834,0.,-0.0135569634\C

 Normal termination of Gaussian 16 at Wed Oct 21 14:18:03 2020.
