 Gaussian 16, Revision A.03,

 ----------------------------------------------------------------------
 #P Opt(TS,MaxCyc=50,NoEigenTest,MaxStep=10,AddRedundant) AM1 5D 7F Int
 egral=UltraFineGrid SCF=(NoSymm,XQC,MaxCyc=120) IOp(1/33=1)
 ----------------------------------------------------------------------

 TstMul:  Mul=     1
 TstMul:  ICh=    -1
 TstMul:  Mul=     1
 Symbolic Z-matrix:
 Charge = -1 Multiplicity = 1

 SCF Done:  E(RAM1) = -0.800824183312E-01 A.U. after   12 cycles
 SCF Done:  E(RAM1) = -0.830706251310E-01 A.U. after   10 cycles
 SCF Done:  E(RAM1) = -0.848956164235E-01 A.U. after    9 cycles
 SCF Done:  E(RAM1) = -0.866534550210E-01 A.U. after   10 cycles
 SCF Done:  E(RAM1) = -0.883925552448E-01 A.U. after   10 cycles
 SCF Done:  E(RAM1) = -0.893426229292E-01 A.U. after   10 cycles
 SCF Done:  E(RAM1) = -0.894690314807E-01 A.U. after   10 cycles
 SCF Done:  E(RAM1) = -0.894695185258E-01 A.U. after    8 cycles
 Optimization completed.
    -- Stationary point found.
 Normal termination of Gaussian 16 at Wed Oct 21 14:17:42 2020.
 Gaussian 16:  ES64L-G16RevA.03 25-Dec-2016

 ----------------------------------------------------------------------
 #P Freq AM1 5D 7F Integral=UltraFineGrid SCF=(NoSymm,XQC,MaxCyc=120) I
 Op(1/33=1) Geom=Check Guess=Read
 ----------------------------------------------------------------------

 TstMul:  Mul=     1
 TstMul:  ICh=    -1
 TstMul:  Mul=     1
 Structure from the checkpoint file:  "MN_28_clch3clts_BH76_AM1_SE.chk"
 Charge = -1 Multiplicity = 1

                         Standard orientation:
 ---------------------------------------------------------------------
 Center     Atomic      Atomic             Coordinates (Angstroms)
 Number     Number       Type             X           Y           Z
 ---------------------------------------------------------------------
      1         17           0        2.154436   -0.000001   -0.000008
      2          6           0       -0.000031    0.000002    0.000021
      3          1           0        0.000018    0.938263   -0.568829
      4          1           0        0.000008   -0.961809   -0.528036
      5          1           0        0.000021    0.023556    1.097012
      6         17           0       -2.154428   -0.000001   -0.000008
 ---------------------------------------------------------------------

 SCF Done:  E(RAM1) = -0.894695185258E-01 A.U. after    2 cycles

 The electronic state is 1-A.
 Alpha  occ. eigenvalues --   -1.06461  -1.05469  -0.87410  -0.37620  -0.37619
 Alpha  occ. eigenvalues --   -0.30667  -0.21546  -0.21546  -0.20324  -0.20324
 Alpha  occ. eigenvalues --   -0.16211
 Alpha virt. eigenvalues --    0.20813   0.31002   0.32676   0.32677

 Mulliken charges:
               1
     1  Cl  -0.711043
     2  C    0.104961
     3  H    0.105686
     4  H    0.105687
     5  H    0.105674
     6  Cl  -0.710965
 Sum of Mulliken charges =  -1.00000

 Dipole moment (field-independent basis, Debye):
    X=             -0.0008    Y=              0.0000    Z=              0.0001  Tot=              0.0008
 N-N= 6.559268365132D+01 E-N=-6.386556630926D+01  KE=-5.739483206591D+01
  Exact polarizability:  75.909   0.000   8.527   0.000   0.000   8.527
 Approx polarizability:  51.248   0.000   4.686   0.000   0.000   4.686
 Leave Link  601 at Wed Oct 21 14:18:04 2020, MaxMem=  2684354560 cpu:               1.5 elap:               0.6
 (Enter /udrive/faculty/rpeverati/g16/g16/l701.exe)
 ... and contract with generalized density number  0.
 Compute integral second derivatives.
 Leave Link  701 at Wed Oct 21 14:18:05 2020, MaxMem=  2684354560 cpu:               3.5 elap:               0.8
 (Enter /udrive/faculty/rpeverati/g16/g16/l702.exe)
 L702 exits ... SP integral derivatives will be done elsewhere.

 ******    1 imaginary frequencies (negative Signs) ******

                      1                      2                      3
                      A                      A                      A
 Frequencies --   -465.4313               217.9066               217.9123
 Red. masses --     12.8555                 4.2251                 4.2251
 Frc consts  --      1.6408                 0.1182                 0.1182
 IR Inten    --   1965.0746                23.6955                23.6949

                      4                      5                      6
                      A                      A                      A
 Frequencies --    265.4789               999.3884               999.3967
 Red. masses --     34.9286                 1.0133                 1.0133
 Frc consts  --      1.4504                 0.5963                 0.5963
 IR Inten    --      0.0000                 0.0000                 0.0000

                      7                      8                      9
                      A                      A                      A
 Frequencies --   1135.4285              1324.5094              1324.5583
 Red. masses --      1.0463                 1.1243                 1.1242
 Frc consts  --      0.7947                 1.1620                 1.1621
 IR Inten    --    120.8244                 0.0125                 0.0125

                     10                     11                     12
                      A                      A                      A
 Frequencies --   3172.3818              3179.6806              3179.7436
 Red. masses --      1.0079                 1.1116                 1.1116
 Frc consts  --      5.9761                 6.6215                 6.6218
 IR Inten    --      0.0000                 4.8765                 4.8808

 - Thermochemistry -
 -------------------
 Temperature   298.150 Kelvin.  Pressure   1.00000 Atm.
 Atom     1 has atomic number 17 and mass  34.96885

 Molecular mass:    84.96118 amu.
 Principal axes and moments of inertia in atomic units:
                           1         2         3
     Eigenvalues --    12.998871165.742431165.74296
           X            1.00000   0.00000   0.00000
           Y           -0.00000   1.00000  -0.00000
           Z           -0.00000   0.00000   1.00000
 This molecule is an asymmetric top.
 Rotational symmetry number  1.
 Rotational temperatures (Kelvin)      6.66319     0.07430     0.07430
 Rotational constants (GHZ):         138.83828     1.54815     1.54815
    1 imaginary frequencies ignored.
 Zero-point vibrational energy      95799.3 (Joules/Mol)
                                   22.89657 (Kcal/Mol)
 Warning -- explicit consideration of   3 degrees of freedom as
           vibrations may cause significant error
 Vibrational temperatures:    313.52   313.53   381.96  1437.90  1437.91
          (Kelvin)           1633.63  1905.67  1905.74  4564.35  4574.85
                             4574.94

 Zero-point correction=                           0.036488 (Hartree/Particle)
 Thermal correction to Energy=                    0.040968
 Thermal correction to Enthalpy=                  0.041912
 Thermal correction to Gibbs Free Energy=         0.008898
 Sum of electronic and zero-point Energies=             -0.052982
 Sum of electronic and thermal Energies=                -0.048502
 Sum of electronic and thermal Enthalpies=              -0.047557
 Sum of electronic and thermal Free Energies=           -0.080572

                     E (Thermal)             CV                S
                      KCal/Mol        Cal/Mol-Kelvin    Cal/Mol-Kelvin
 Total                   25.708             12.606             69.484
 Electronic               0.000              0.000              0.000
 Translational            0.889              2.981             39.232
 Rotational               0.889              2.981             24.383
 Vibrational             23.930              6.644              5.869
 Vibration     1          0.646              1.814              1.976
 Vibration     2          0.646              1.814              1.976
 Vibration     3          0.671              1.736              1.625

 Optimization completed.
    -- Stationary point found.
 Normal termination of Gaussian 16 at Wed Oct 21 14:18:11 2020.
