 Gaussian 16, Revision A.03,
 Gaussian 16:  ES64L-G16RevA.03 25-Dec-2016

 ----------------------------------------------------------------------
 #P Opt(MaxCyc=150) AM1 5D 7F Integral=UltraFineGrid SCF=(NoSymm,XQC,Ma
 xCyc=120) IOp(1/33=1)
 ----------------------------------------------------------------------

 TstMul:  Mul=     1
 TstMul:  ICh=     0
 TstMul:  Mul=     1
 Symbolic Z-matrix:
 Charge =  0 Multiplicity = 1

 SCF Done:  E(RAM1) = -0.123145384784E-01 A.U. after    8 cycles
 SCF Done:  E(RAM1) = -0.139750229938E-01 A.U. after    8 cycles
 SCF Done:  E(RAM1) = -0.140244773817E-01 A.U. after    7 cycles
 Optimization completed.
    -- Stationary point found.

                         Standard orientation:
 ---------------------------------------------------------------------
 Center     Atomic      Atomic             Coordinates (Angstroms)
 Number     Number       Type             X           Y           Z
 ---------------------------------------------------------------------
      1          6           0        0.000000    0.000000    0.000000
      2          1           0        0.641801    0.641801    0.641801
      3          1           0       -0.641801   -0.641801    0.641801
      4          1           0        0.641801   -0.641801   -0.641801
      5          1           0       -0.641801    0.641801   -0.641801
 ---------------------------------------------------------------------

 The electronic state is 1-A1.
 Alpha  occ. eigenvalues --   -1.06146  -0.48909  -0.48909  -0.48909
 Alpha virt. eigenvalues --    0.17128   0.17128   0.17128   0.19049

 Mulliken charges:
               1
     1  C   -0.265947
     2  H    0.066487
     3  H    0.066487
     4  H    0.066487
     5  H    0.066487
 Sum of Mulliken charges =  -0.00000

 Dipole moment (field-independent basis, Debye):
    X=              0.0000    Y=             -0.0000    Z=             -0.0000  Tot=              0.0000
 N-N= 1.408014000455D+01 E-N=-1.325369397750D+01  KE=-9.877199908009D+00
 Leave Link  601 at Wed Oct 21 14:16:31 2020, MaxMem=  2684354560 cpu:               3.0 elap:               0.9
 (Enter /udrive/faculty/rpeverati/g16/g16/l9999.exe)

 Test job not archived.
 1\1\GINC-NODE61\FOpt\RAM1\ZDO\C1H4\RPEVERATI\21-Oct-2020\0\\#P Opt(Max
 Cyc=150) AM1 5D 7F Integral=UltraFineGrid SCF=(NoSymm,XQC,MaxCyc=120)
 IOp(1/33=1)\\TS search on BH76.\\0,1\C,0.,0.,0.\H,0.6418009482,0.64180
 09482,0.6418009482\H,-0.6418009482,-0.6418009482,0.6418009482\H,0.6418
 009482,-0.6418009482,-0.6418009482\H,-0.6418009482,0.6418009482,-0.641

 Normal termination of Gaussian 16 at Wed Oct 21 14:16:33 2020.
