 Gaussian 16, Revision A.03,
 Gaussian 16:  ES64L-G16RevA.03 25-Dec-2016

 ----------------------------------------------------------------------
 #P Opt(MaxCyc=150) AM1 5D 7F Integral=UltraFineGrid SCF=(NoSymm,XQC,Ma
 xCyc=120) IOp(1/33=1)
 ----------------------------------------------------------------------

 TstMul:  Mul=     1
 TstMul:  ICh=     0
 TstMul:  Mul=     1
 Symbolic Z-matrix:
 Charge =  0 Multiplicity = 1

 SCF Done:  E(RAM1) = -0.951193795843E-01 A.U. after   11 cycles
 SCF Done:  E(RAM1) = -0.972267851424E-01 A.U. after    9 cycles
 SCF Done:  E(RAM1) = -0.973015684740E-01 A.U. after    9 cycles
 SCF Done:  E(RAM1) = -0.973078153776E-01 A.U. after    8 cycles
 Optimization completed.
    -- Stationary point found.

                         Standard orientation:
 ---------------------------------------------------------------------
 Center     Atomic      Atomic             Coordinates (Angstroms)
 Number     Number       Type             X           Y           Z
 ---------------------------------------------------------------------
      1          6           0        0.000000    0.000000   -0.625288
      2          9           0        0.000000    0.000000    0.749970
      3          1           0        0.000000    1.056283   -0.999334
      4          1           0        0.914768   -0.528141   -0.999334
      5          1           0       -0.914768   -0.528141   -0.999334
 ---------------------------------------------------------------------

 The electronic state is 1-A1.
 Alpha  occ. eigenvalues --   -1.79420  -1.02406  -0.61134  -0.61134  -0.60303
 Alpha  occ. eigenvalues --   -0.44455  -0.44455
 Alpha virt. eigenvalues --    0.14067   0.14067   0.14368   0.17435

 Mulliken charges:
               1
     1  C   -0.040952
     2  F   -0.178388
     3  H    0.073113
     4  H    0.073113
     5  H    0.073113
 Sum of Mulliken charges =   0.00000

 Dipole moment (field-independent basis, Debye):
    X=             -0.0000    Y=             -0.0000    Z=             -1.6166  Tot=              1.6166
 N-N= 4.298414026274D+01 E-N=-3.578016748416D+01  KE=-3.931664018849D+01
 Leave Link  601 at Wed Oct 21 14:16:45 2020, MaxMem=  2684354560 cpu:               4.1 elap:               0.9
 (Enter /udrive/faculty/rpeverati/g16/g16/l9999.exe)

 Test job not archived.
 1\1\GINC-NODE59\FOpt\RAM1\ZDO\C1H3F1\RPEVERATI\21-Oct-2020\0\\#P Opt(M
 axCyc=150) AM1 5D 7F Integral=UltraFineGrid SCF=(NoSymm,XQC,MaxCyc=120
 ) IOp(1/33=1)\\TS search on BH76.\\0,1\C,0.,0.,0.0505030837\F,0.,0.,-1
 .3247556163\H,0.5281414525,-0.9147678293,0.4245484048\H,0.5281414525,0
 .9147678293,0.4245484048\H,-1.056282905,0.,0.4245484048\\Version=ES64L

 Normal termination of Gaussian 16 at Wed Oct 21 14:16:47 2020.
