 Gaussian 16, Revision A.03,

 ----------------------------------------------------------------------
 #P Opt(TS,MaxCyc=50,NoEigenTest,MaxStep=10,AddRedundant) AM1 5D 7F Int
 egral=UltraFineGrid SCF=(NoSymm,XQC,MaxCyc=120) IOp(1/33=1)
 ----------------------------------------------------------------------

 TstMul:  Mul=     2
 TstMul:  ICh=     0
 TstMul:  Mul=     2
 Symbolic Z-matrix:
 Charge =  0 Multiplicity = 2

 SCF Done:  E(UAM1) =  0.522192563649E-01 A.U. after   19 cycles
 SCF Done:  E(UAM1) =  0.475891048318E-01 A.U. after   16 cycles
 SCF Done:  E(UAM1) =  0.465851581313E-01 A.U. after   16 cycles
 SCF Done:  E(UAM1) =  0.460861957564E-01 A.U. after   16 cycles
 SCF Done:  E(UAM1) =  0.457442569205E-01 A.U. after   15 cycles
 SCF Done:  E(UAM1) =  0.454673991928E-01 A.U. after   15 cycles
 SCF Done:  E(UAM1) =  0.451156783483E-01 A.U. after   15 cycles
 SCF Done:  E(UAM1) =  0.441866949484E-01 A.U. after   15 cycles
 SCF Done:  E(UAM1) =  0.441050211479E-01 A.U. after   15 cycles
 SCF Done:  E(UAM1) =  0.447186828979E-01 A.U. after   15 cycles
 SCF Done:  E(UAM1) =  0.452289497093E-01 A.U. after   15 cycles
 SCF Done:  E(UAM1) =  0.455161166016E-01 A.U. after   16 cycles
 SCF Done:  E(UAM1) =  0.454810762835E-01 A.U. after   14 cycles
 SCF Done:  E(UAM1) =  0.454550399692E-01 A.U. after   15 cycles
 SCF Done:  E(UAM1) =  0.454443183611E-01 A.U. after   14 cycles
 SCF Done:  E(UAM1) =  0.454405036768E-01 A.U. after   14 cycles
 SCF Done:  E(UAM1) =  0.454400802969E-01 A.U. after   13 cycles
 SCF Done:  E(UAM1) =  0.454399017267E-01 A.U. after   13 cycles
 Optimization completed.
    -- Stationary point found.
 Normal termination of Gaussian 16 at Wed Oct 21 14:20:32 2020.
 Gaussian 16:  ES64L-G16RevA.03 25-Dec-2016

 ----------------------------------------------------------------------
 #P Freq AM1 5D 7F Integral=UltraFineGrid SCF=(NoSymm,XQC,MaxCyc=120) I
 Op(1/33=1) Geom=Check Guess=Read
 ----------------------------------------------------------------------

 TstMul:  Mul=     2
 TstMul:  ICh=     0
 TstMul:  Mul=     2
 Structure from the checkpoint file:  "MN_21_ch3fclts_BH76_AM1_SE.chk"
 Charge =  0 Multiplicity = 2

                         Standard orientation:
 ---------------------------------------------------------------------
 Center     Atomic      Atomic             Coordinates (Angstroms)
 Number     Number       Type             X           Y           Z
 ---------------------------------------------------------------------
      1         17           0        1.374634   -0.000568    0.000437
      2          9           0       -0.308766    0.002233   -0.001620
      3          6           0       -2.250169   -0.001071    0.000759
      4          1           0       -2.360436   -1.070508   -0.185980
      5          1           0       -2.362941    0.371451    1.020166
      6          1           0       -2.365501    0.695046   -0.831590
 ---------------------------------------------------------------------

 SCF Done:  E(UAM1) =  0.454399017268E-01 A.U. after    2 cycles

 The electronic state is 2-A.
 Alpha  occ. eigenvalues --   -1.70313  -1.37260  -1.04748  -0.64948  -0.58972
 Alpha  occ. eigenvalues --   -0.58971  -0.51917  -0.51917  -0.43652  -0.43652
 Alpha  occ. eigenvalues --   -0.35272
 Alpha virt. eigenvalues --    0.01752   0.14389   0.16314   0.16315
  Beta  occ. eigenvalues --   -1.71581  -1.34964  -0.99363  -0.64305  -0.58826
  Beta  occ. eigenvalues --   -0.58825  -0.51002  -0.51001  -0.43083  -0.43083
  Beta virt. eigenvalues --   -0.03228   0.08459   0.16779   0.17514   0.17515

 Mulliken charges and spin densities:
               1          2
     1  Cl  -0.003864   0.272207
     2  F   -0.094778  -0.102005
     3  C   -0.227481   0.969810
     4  H    0.108722  -0.046686
     5  H    0.108698  -0.046675
     6  H    0.108703  -0.046652
 Sum of Mulliken charges =  -0.00000   1.00000

 Dipole moment (field-independent basis, Debye):
    X=             -1.1172    Y=             -0.0023    Z=              0.0014  Tot=              1.1172
 N-N= 7.454662708797D+01 E-N=-7.158349393415D+01  KE=-6.144231590659D+01
  Exact polarizability:  62.649  -0.021   8.311   0.010   0.000   8.310
 Approx polarizability:  34.168  -0.021   4.626   0.012   0.000   4.625
 Leave Link  601 at Wed Oct 21 14:21:02 2020, MaxMem=  2684354560 cpu:               2.5 elap:               1.5
 (Enter /udrive/faculty/rpeverati/g16/g16/l701.exe)
 ... and contract with generalized density number  0.
 Compute integral second derivatives.
 Leave Link  701 at Wed Oct 21 14:21:05 2020, MaxMem=  2684354560 cpu:               4.8 elap:               1.7
 (Enter /udrive/faculty/rpeverati/g16/g16/l702.exe)
 L702 exits ... SP integral derivatives will be done elsewhere.

 ******    1 imaginary frequencies (negative Signs) ******

                      1                      2                      3
                      A                      A                      A
 Frequencies --   -661.2655                44.2505                44.2941
 Red. masses --     11.7074                 8.4518                 8.4472
 Frc consts  --      3.0162                 0.0098                 0.0098
 IR Inten    --    472.2918                 1.2864                 1.2865

                      4                      5                      6
                      A                      A                      A
 Frequencies --    567.9810               568.7767               771.9509
 Red. masses --      1.0587                 1.0588                 4.1675
 Frc consts  --      0.2012                 0.2018                 1.4632
 IR Inten    --      1.3627                 1.3613               292.9146

                      7                      8                      9
                      A                      A                      A
 Frequencies --   1032.1360              1345.1148              1345.1534
 Red. masses --      1.3409                 1.1092                 1.1092
 Frc consts  --      0.8416                 1.1824                 1.1825
 IR Inten    --      3.3394                 0.4956                 0.4944

                     10                     11                     12
                      A                      A                      A
 Frequencies --   3221.2864              3221.3549              3225.9585
 Red. masses --      1.1093                 1.1093                 1.0092
 Frc consts  --      6.7817                 6.7821                 6.1877
 IR Inten    --      8.7335                 8.7180                36.3822

 - Thermochemistry -
 -------------------
 Temperature   298.150 Kelvin.  Pressure   1.00000 Atm.
 Atom     1 has atomic number 17 and mass  34.96885

 Molecular mass:    68.99073 amu.
 Principal axes and moments of inertia in atomic units:
                           1         2         3
     Eigenvalues --    12.71926 522.69626 522.69718
           X            1.00000   0.00006  -0.00003
           Y           -0.00005   0.98450   0.17539
           Z            0.00004  -0.17539   0.98450
 This molecule is an asymmetric top.
 Rotational symmetry number  1.
 Rotational temperatures (Kelvin)      6.80967     0.16571     0.16571
 Rotational constants (GHZ):         141.89044     3.45275     3.45275
    1 imaginary frequencies ignored.
 Zero-point vibrational energy      92042.2 (Joules/Mol)
                                   21.99862 (Kcal/Mol)
 Warning -- explicit consideration of   4 degrees of freedom as
           vibrations may cause significant error
 Vibrational temperatures:     63.67    63.73   817.20   818.34  1110.67
          (Kelvin)           1485.01  1935.32  1935.38  4634.71  4634.81
                             4641.43

 Zero-point correction=                           0.035057 (Hartree/Particle)
 Thermal correction to Energy=                    0.040078
 Thermal correction to Enthalpy=                  0.041022
 Thermal correction to Gibbs Free Energy=         0.005745
 Sum of electronic and zero-point Energies=              0.080497
 Sum of electronic and thermal Energies=                 0.085518
 Sum of electronic and thermal Enthalpies=               0.086462
 Sum of electronic and thermal Free Energies=            0.051185

                     E (Thermal)             CV                S
                      KCal/Mol        Cal/Mol-Kelvin    Cal/Mol-Kelvin
 Total                   25.149             13.417             74.246
 Electronic               0.000              0.000              1.377
 Translational            0.889              2.981             38.612
 Rotational               0.889              2.981             22.768
 Vibrational             23.372              7.455             11.490
 Vibration     1          0.595              1.980              5.059
 Vibration     2          0.595              1.980              5.057
 Vibration     3          0.924              1.101              0.508
 Vibration     4          0.925              1.099              0.507

                           ! Non-Optimized Parameters !
 Normal termination of Gaussian 16 at Wed Oct 21 14:21:16 2020.
