 Gaussian 16, Revision A.03,
 Gaussian 16:  ES64L-G16RevA.03 25-Dec-2016

 ----------------------------------------------------------------------
 #P Opt(MaxCyc=150) AM1 5D 7F Integral=UltraFineGrid SCF=(NoSymm,XQC,Ma
 xCyc=120) IOp(1/33=1)
 ----------------------------------------------------------------------

 TstMul:  Mul=     1
 TstMul:  ICh=     0
 TstMul:  Mul=     1
 Symbolic Z-matrix:
 Charge =  0 Multiplicity = 1

 SCF Done:  E(RAM1) = -0.165842797788E-01 A.U. after    8 cycles
 SCF Done:  E(RAM1) = -0.168568785177E-01 A.U. after    7 cycles
 SCF Done:  E(RAM1) = -0.168720923403E-01 A.U. after    6 cycles
 Optimization completed.
    -- Stationary point found.

                         Standard orientation:
 ---------------------------------------------------------------------
 Center     Atomic      Atomic             Coordinates (Angstroms)
 Number     Number       Type             X           Y           Z
 ---------------------------------------------------------------------
      1          9           0        0.000000    0.000000   -1.077091
      2         17           0        0.000000    0.000000    0.570225
 ---------------------------------------------------------------------

 The electronic state is 1-SG.
 Alpha  occ. eigenvalues --   -1.72560  -1.39745  -0.66177  -0.60204  -0.60204
 Alpha  occ. eigenvalues --   -0.45526  -0.45526
 Alpha virt. eigenvalues --   -0.00310

 Mulliken charges:
               1
     1  F   -0.101827
     2  Cl   0.101827
 Sum of Mulliken charges =  -0.00000

 Dipole moment (field-independent basis, Debye):
    X=             -0.0000    Y=             -0.0000    Z=              0.9067  Tot=              0.9067
 N-N= 4.549276750719D+01 E-N=-2.715220596701D+01  KE=-5.206824637491D+01
 Leave Link  601 at Wed Oct 21 14:16:35 2020, MaxMem=  2684354560 cpu:               2.2 elap:               0.9
 (Enter /udrive/faculty/rpeverati/g16/g16/l9999.exe)

 Test job not archived.
 1\1\GINC-NODE62\FOpt\RAM1\ZDO\Cl1F1\RPEVERATI\21-Oct-2020\0\\#P Opt(Ma
 xCyc=150) AM1 5D 7F Integral=UltraFineGrid SCF=(NoSymm,XQC,MaxCyc=120)
  IOp(1/33=1)\\TS search on BH76.\\0,1\F,0.,0.,-1.0744774558\Cl,0.,0.,0
 .572838627\\Version=ES64L-G16RevA.03\State=1-SG\HF=-0.0168721\RMSD=5.1
 72e-10\RMSF=5.300e-08\Dipole=0.,0.,0.3567198\PG=C*V [C*(F1Cl1)]\\@

 Normal termination of Gaussian 16 at Wed Oct 21 14:16:37 2020.
