 Gaussian 16, Revision A.03,
 Gaussian 16:  ES64L-G16RevA.03 25-Dec-2016

 ----------------------------------------------------------------------
 #P Opt(MaxCyc=150) AM1 5D 7F Integral=UltraFineGrid SCF=(NoSymm,XQC,Ma
 xCyc=120) IOp(1/33=1)
 ----------------------------------------------------------------------

 TstMul:  Mul=     2
 TstMul:  ICh=     0
 TstMul:  Mul=     2
 Symbolic Z-matrix:
 Charge =  0 Multiplicity = 2

 SCF Done:  E(UAM1) =  0.478846290809E-01 A.U. after   10 cycles
 SCF Done:  E(UAM1) =  0.477104749238E-01 A.U. after    9 cycles
 SCF Done:  E(UAM1) =  0.477074105668E-01 A.U. after    7 cycles
 Optimization completed.
    -- Stationary point found.

                         Standard orientation:
 ---------------------------------------------------------------------
 Center     Atomic      Atomic             Coordinates (Angstroms)
 Number     Number       Type             X           Y           Z
 ---------------------------------------------------------------------
      1          6           0        0.000000    0.000000    0.000000
      2          1           0        0.000000    1.086311    0.000000
      3          1           0        0.940773   -0.543155    0.000000
      4          1           0       -0.940773   -0.543155    0.000000
 ---------------------------------------------------------------------

 The electronic state is 2-A2".
 Alpha  occ. eigenvalues --   -1.02935  -0.51338  -0.51338  -0.36332
 Alpha virt. eigenvalues --    0.15552   0.18023   0.18023
  Beta  occ. eigenvalues --   -0.96234  -0.50163  -0.50163
  Beta virt. eigenvalues --    0.05214   0.18748   0.19408   0.19408

 Mulliken charges and spin densities:
               1          2
     1  C   -0.307179   1.180424
     2  H    0.102393  -0.060141
     3  H    0.102393  -0.060141
     4  H    0.102393  -0.060141
 Sum of Mulliken charges =   0.00000   1.00000

 Dipole moment (field-independent basis, Debye):
    X=             -0.0000    Y=             -0.0000    Z=              0.0000  Tot=              0.0000
 N-N= 1.141459614783D+01 E-N=-9.137521259038D+00  KE=-9.211237906823D+00
 Leave Link  601 at Wed Oct 21 14:16:27 2020, MaxMem=  2684354560 cpu:               2.7 elap:               0.8
 (Enter /udrive/faculty/rpeverati/g16/g16/l9999.exe)

 Test job not archived.
 1\1\GINC-NODE60\FOpt\UAM1\ZDO\C1H3(2)\RPEVERATI\21-Oct-2020\0\\#P Opt(
 MaxCyc=150) AM1 5D 7F Integral=UltraFineGrid SCF=(NoSymm,XQC,MaxCyc=12
 0) IOp(1/33=1)\\TS search on BH76.\\0,2\C,0.,0.,0.\H,0.5431554452,0.94
 07728275,0.\H,0.5431554452,-0.9407728275,0.\H,-1.0863108904,0.,0.\\Ver
 sion=ES64L-G16RevA.03\State=2-A2"\HF=0.0477074\S2=0.761262\S2-1=0.\S2A

 Normal termination of Gaussian 16 at Wed Oct 21 14:16:30 2020.
