 Gaussian 16, Revision A.03,
 Gaussian 16:  ES64L-G16RevA.03 25-Dec-2016

 ----------------------------------------------------------------------
 #P Opt(MaxCyc=150) AM1 5D 7F Integral=UltraFineGrid SCF=(NoSymm,XQC,Ma
 xCyc=120) IOp(1/33=1)
 ----------------------------------------------------------------------

 TstMul:  Mul=     1
 TstMul:  ICh=     0
 TstMul:  Mul=     1
 Symbolic Z-matrix:
 Charge =  0 Multiplicity = 1

 SCF Done:  E(RAM1) = -0.887887911142E-01 A.U. after   12 cycles
 SCF Done:  E(RAM1) = -0.908542077369E-01 A.U. after    9 cycles
 SCF Done:  E(RAM1) = -0.909250551941E-01 A.U. after    9 cycles
 SCF Done:  E(RAM1) = -0.909399070575E-01 A.U. after    8 cycles
 Optimization completed.
    -- Stationary point found.

                         Standard orientation:
 ---------------------------------------------------------------------
 Center     Atomic      Atomic             Coordinates (Angstroms)
 Number     Number       Type             X           Y           Z
 ---------------------------------------------------------------------
      1          6           0       -0.047221    0.660353    0.000000
      2          8           0       -0.047221   -0.749981    0.000000
      3          1           0       -1.127390    0.951798    0.000000
      4          1           0        0.873809   -1.034717    0.000000
      5          1           0        0.457336    1.060326    0.914589
      6          1           0        0.457336    1.060326   -0.914589
 ---------------------------------------------------------------------

 The electronic state is 1-A'.
 Alpha  occ. eigenvalues --   -1.39072  -0.99169  -0.67183  -0.56778  -0.56187
 Alpha  occ. eigenvalues --   -0.45917  -0.40923
 Alpha virt. eigenvalues --    0.13888   0.15029   0.15551   0.16624   0.22954

 Mulliken charges:
               1
     1  C   -0.073243
     2  O   -0.326053
     3  H    0.097928
     4  H    0.195443
     5  H    0.052963
     6  H    0.052963
 Sum of Mulliken charges =   0.00000

 Dipole moment (field-independent basis, Debye):
    X=              1.2233    Y=              1.0636    Z=             -0.0000  Tot=              1.6210
 N-N= 3.923319577354D+01 E-N=-3.874566147291D+01  KE=-2.979802085336D+01
 Leave Link  601 at Wed Oct 21 14:16:54 2020, MaxMem=  2684354560 cpu:               2.8 elap:               0.9
 (Enter /udrive/faculty/rpeverati/g16/g16/l9999.exe)

 Test job not archived.
 1\1\GINC-NODE60\FOpt\RAM1\ZDO\C1H4O1\RPEVERATI\21-Oct-2020\0\\#P Opt(M
 axCyc=150) AM1 5D 7F Integral=UltraFineGrid SCF=(NoSymm,XQC,MaxCyc=120
 ) IOp(1/33=1)\\TS search on BH76.\\0,1\C,-0.0462641283,0.6650831424,0.
 \O,-0.0569688388,-0.7452099533,0.\H,-1.1241900357,0.9647185055,0.\H,0.
 8618733208,-1.0369281096,0.\H,0.4613137219,1.0612157101,0.914588598\H,

 Normal termination of Gaussian 16 at Wed Oct 21 14:16:56 2020.
