 Gaussian 16, Revision A.03,
 Gaussian 16:  ES64L-G16RevA.03 25-Dec-2016

 ----------------------------------------------------------------------
 #P Opt(MaxCyc=150) AM1 5D 7F Integral=UltraFineGrid SCF=(NoSymm,XQC,Ma
 xCyc=120) IOp(1/33=1)
 ----------------------------------------------------------------------

 TstMul:  Mul=     1
 TstMul:  ICh=    -1
 TstMul:  Mul=     1
 Symbolic Z-matrix:
 Charge = -1 Multiplicity = 1

 SCF Done:  E(RAM1) = -0.164894913893     A.U. after   11 cycles
 SCF Done:  E(RAM1) = -0.167841276398     A.U. after    9 cycles
 SCF Done:  E(RAM1) = -0.167970002464     A.U. after    8 cycles
 SCF Done:  E(RAM1) = -0.168287896999     A.U. after    9 cycles
 SCF Done:  E(RAM1) = -0.168347903516     A.U. after    9 cycles
 SCF Done:  E(RAM1) = -0.168367722949     A.U. after    8 cycles
 SCF Done:  E(RAM1) = -0.168372027210     A.U. after    8 cycles
 SCF Done:  E(RAM1) = -0.168375195608     A.U. after    8 cycles
 Optimization completed.
    -- Stationary point found.

                         Standard orientation:
 ---------------------------------------------------------------------
 Center     Atomic      Atomic             Coordinates (Angstroms)
 Number     Number       Type             X           Y           Z
 ---------------------------------------------------------------------
      1          9           0        0.000000    0.000000   -2.534428
      2          6           0        0.000000    0.000000   -1.150317
      3          1           0       -0.000000    1.052624   -0.769429
      4          1           0       -0.911599   -0.526312   -0.769429
      5          1           0        0.911599   -0.526312   -0.769429
      6         17           0        0.000000    0.000000    1.883532
 ---------------------------------------------------------------------

 The electronic state is 1-A1.
 Alpha  occ. eigenvalues --   -1.64747  -0.93121  -0.86309  -0.46085  -0.46085
 Alpha  occ. eigenvalues --   -0.45467  -0.29249  -0.29249  -0.12111  -0.12111
 Alpha  occ. eigenvalues --   -0.12042
 Alpha virt. eigenvalues --    0.29933   0.30698   0.30698   0.34087

 Mulliken charges:
               1
     1  F   -0.238308
     2  C   -0.054295
     3  H    0.095443
     4  H    0.095443
     5  H    0.095443
     6  Cl  -0.993727
 Sum of Mulliken charges =  -1.00000

 Dipole moment (field-independent basis, Debye):
    X=              0.0000    Y=             -0.0000    Z=             -6.8052  Tot=              6.8052
 N-N= 7.066408742136D+01 E-N=-6.552044622728D+01  KE=-6.461294680342D+01
 Leave Link  601 at Wed Oct 21 14:18:05 2020, MaxMem=  2684354560 cpu:               1.5 elap:               0.8
 (Enter /udrive/faculty/rpeverati/g16/g16/l9999.exe)

 Test job not archived.
 1\1\GINC-NODE52\FOpt\RAM1\ZDO\C1H3Cl1F1(1-)\RPEVERATI\21-Oct-2020\0\\#
 P Opt(MaxCyc=150) AM1 5D 7F Integral=UltraFineGrid SCF=(NoSymm,XQC,Max
 Cyc=120) IOp(1/33=1)\\TS search on BH76.\\-1,1\F,0.,0.,-1.8495112738\C
 ,0.,0.,-0.4654006175\H,-0.5263118133,0.9115988013,-0.0845122777\H,-0.5
 263118133,-0.9115988013,-0.0845122777\H,1.0526236267,0.,-0.0845122777\

 Normal termination of Gaussian 16 at Wed Oct 21 14:18:07 2020.
