 Gaussian 16, Revision A.03,
 Gaussian 16:  ES64L-G16RevA.03 25-Dec-2016

 ----------------------------------------------------------------------
 #P Opt(MaxCyc=150) AM1 5D 7F Integral=UltraFineGrid SCF=(NoSymm,XQC,Ma
 xCyc=120) IOp(1/33=1)
 ----------------------------------------------------------------------

 TstMul:  Mul=     1
 TstMul:  ICh=    -1
 TstMul:  Mul=     1
 Symbolic Z-matrix:
 Charge = -1 Multiplicity = 1

 SCF Done:  E(RAM1) = -0.103472920786     A.U. after   11 cycles
 SCF Done:  E(RAM1) = -0.107174463361     A.U. after   11 cycles
 SCF Done:  E(RAM1) = -0.107366713831     A.U. after    9 cycles
 SCF Done:  E(RAM1) = -0.107393599941     A.U. after    9 cycles
 SCF Done:  E(RAM1) = -0.107397616232     A.U. after    8 cycles
 SCF Done:  E(RAM1) = -0.107402623543     A.U. after    8 cycles
 SCF Done:  E(RAM1) = -0.107403064113     A.U. after    7 cycles
 Optimization completed.
    -- Stationary point found.

                         Standard orientation:
 ---------------------------------------------------------------------
 Center     Atomic      Atomic             Coordinates (Angstroms)
 Number     Number       Type             X           Y           Z
 ---------------------------------------------------------------------
      1          9           0        0.000000    0.000000   -1.826029
      2          6           0        0.000000    0.000000   -0.438900
      3          1           0       -0.000000    1.048811   -0.049401
      4          1           0       -0.908297   -0.524406   -0.049401
      5          1           0        0.908297   -0.524406   -0.049401
      6          9           0        0.000000    0.000000    2.135096
 ---------------------------------------------------------------------

 The electronic state is 1-A1.
 Alpha  occ. eigenvalues --   -1.62390  -1.13725  -0.83620  -0.43732  -0.43732
 Alpha  occ. eigenvalues --   -0.43100  -0.26861  -0.26861  -0.04933  -0.04933
 Alpha  occ. eigenvalues --   -0.04717
 Alpha virt. eigenvalues --    0.32142   0.33344   0.33344   0.37169

 Mulliken charges:
               1
     1  F   -0.257217
     2  C   -0.049655
     3  H    0.096904
     4  H    0.096904
     5  H    0.096904
     6  F   -0.983840
 Sum of Mulliken charges =  -1.00000

 Dipole moment (field-independent basis, Debye):
    X=             -0.0000    Y=              0.0000    Z=             -7.7393  Tot=              7.7393
 N-N= 7.665585174611D+01 E-N=-6.969569809120D+01  KE=-7.265874648323D+01
 Leave Link  601 at Wed Oct 21 14:17:49 2020, MaxMem=  2684354560 cpu:               2.4 elap:               0.9
 (Enter /udrive/faculty/rpeverati/g16/g16/l9999.exe)

 Test job not archived.
 1\1\GINC-NODE54\FOpt\RAM1\ZDO\C1H3F2(1-)\RPEVERATI\21-Oct-2020\0\\#P O
 pt(MaxCyc=150) AM1 5D 7F Integral=UltraFineGrid SCF=(NoSymm,XQC,MaxCyc
 =120) IOp(1/33=1)\\TS search on BH76.\\-1,1\F,0.,0.,-1.7796890589\C,0.
 ,0.,-0.3925604121\H,-0.5244055824,0.9082971125,-0.0030609105\H,-0.5244
 055824,-0.9082971125,-0.0030609105\H,1.0488111649,0.,-0.0030609105\F,0

 Normal termination of Gaussian 16 at Wed Oct 21 14:17:52 2020.
