 Gaussian 16, Revision A.03,

 ----------------------------------------------------------------------
 #P Opt(TS,MaxCyc=50,NoEigenTest,MaxStep=10,AddRedundant) AM1 5D 7F Int
 egral=UltraFineGrid SCF=(NoSymm,XQC,MaxCyc=120) IOp(1/33=1)
 ----------------------------------------------------------------------

 TstMul:  Mul=     1
 TstMul:  ICh=    -1
 TstMul:  Mul=     1
 Symbolic Z-matrix:
 Charge = -1 Multiplicity = 1

 SCF Done:  E(RAM1) = -0.376784411608E-01 A.U. after   12 cycles
 SCF Done:  E(RAM1) = -0.426786676986E-01 A.U. after   10 cycles
 SCF Done:  E(RAM1) = -0.426549919599E-01 A.U. after    9 cycles
 SCF Done:  E(RAM1) = -0.475797780774E-01 A.U. after   10 cycles
 SCF Done:  E(RAM1) = -0.524448676332E-01 A.U. after   10 cycles
 SCF Done:  E(RAM1) = -0.565909296781E-01 A.U. after   10 cycles
 SCF Done:  E(RAM1) = -0.597197859847E-01 A.U. after   10 cycles
 SCF Done:  E(RAM1) = -0.615200919639E-01 A.U. after   10 cycles
 SCF Done:  E(RAM1) = -0.618664545353E-01 A.U. after   10 cycles
 SCF Done:  E(RAM1) = -0.618719996594E-01 A.U. after    9 cycles
 SCF Done:  E(RAM1) = -0.618695525698E-01 A.U. after    8 cycles
 SCF Done:  E(RAM1) = -0.618626525301E-01 A.U. after    9 cycles
 SCF Done:  E(RAM1) = -0.618661311461E-01 A.U. after    8 cycles
 SCF Done:  E(RAM1) = -0.618655315629E-01 A.U. after    8 cycles
 SCF Done:  E(RAM1) = -0.618645465373E-01 A.U. after    7 cycles
 Optimization completed.
    -- Stationary point found.
 Normal termination of Gaussian 16 at Wed Oct 21 14:19:59 2020.
 Gaussian 16:  ES64L-G16RevA.03 25-Dec-2016

 ----------------------------------------------------------------------
 #P Freq AM1 5D 7F Integral=UltraFineGrid SCF=(NoSymm,XQC,MaxCyc=120) I
 Op(1/33=1) Geom=Check Guess=Read
 ----------------------------------------------------------------------

 TstMul:  Mul=     1
 TstMul:  ICh=    -1
 TstMul:  Mul=     1
 Structure from the checkpoint file:  "MN_39_fch3fts_BH76_AM1_SE.chk"
 Charge = -1 Multiplicity = 1

                         Standard orientation:
 ---------------------------------------------------------------------
 Center     Atomic      Atomic             Coordinates (Angstroms)
 Number     Number       Type             X           Y           Z
 ---------------------------------------------------------------------
      1          9           0        1.602057    0.000006    0.000005
      2          6           0        0.000115   -0.000012   -0.000002
      3          1           0       -0.000023    0.951543    0.612547
      4          1           0       -0.000023    0.054737   -1.130347
      5          1           0       -0.000024   -1.006311    0.517725
      6          9           0       -1.602126    0.000006    0.000005
 ---------------------------------------------------------------------

 SCF Done:  E(RAM1) = -0.618645465374E-01 A.U. after    2 cycles

 The electronic state is 1-A.
 Alpha  occ. eigenvalues --   -1.37829  -1.36955  -0.75507  -0.34309  -0.34309
 Alpha  occ. eigenvalues --   -0.33448  -0.20645  -0.20645  -0.15807  -0.15806
 Alpha  occ. eigenvalues --   -0.10076
 Alpha virt. eigenvalues --    0.37112   0.38584   0.38585   0.41022

 Mulliken charges:
               1
     1  F   -0.614633
     2  C    0.216908
     3  H    0.004227
     4  H    0.004223
     5  H    0.004229
     6  F   -0.614955
 Sum of Mulliken charges =  -1.00000

 Dipole moment (field-independent basis, Debye):
    X=              0.0027    Y=             -0.0001    Z=             -0.0000  Tot=              0.0027
 N-N= 8.068991737448D+01 E-N=-7.853263284744D+01  KE=-7.226420960558D+01
  Exact polarizability:  26.902   0.000  11.070   0.000   0.000  11.069
 Approx polarizability:  20.380   0.000   5.799   0.000  -0.000   5.798
 Leave Link  601 at Wed Oct 21 14:20:23 2020, MaxMem=  2684354560 cpu:               2.0 elap:               1.0
 (Enter /udrive/faculty/rpeverati/g16/g16/l701.exe)
 ... and contract with generalized density number  0.
 Compute integral second derivatives.
 Leave Link  701 at Wed Oct 21 14:20:25 2020, MaxMem=  2684354560 cpu:               2.7 elap:               1.0
 (Enter /udrive/faculty/rpeverati/g16/g16/l702.exe)
 L702 exits ... SP integral derivatives will be done elsewhere.

 ******    1 imaginary frequencies (negative Signs) ******

                      1                      2                      3
                      A                      A                      A
 Frequencies --   -259.0401               426.3231               426.3551
 Red. masses --     12.0207                 3.5842                 3.5844
 Frc consts  --      0.4752                 0.3838                 0.3839
 IR Inten    --   1475.6511                33.8949                33.8957

                      4                      5                      6
                      A                      A                      A
 Frequencies --    534.7558              1268.0968              1268.1268
 Red. masses --     17.4995                 1.2238                 1.2237
 Frc consts  --      2.9484                 1.1595                 1.1595
 IR Inten    --      0.0047                16.0756                16.0766

                      7                      8                      9
                      A                      A                      A
 Frequencies --   1601.9469              1601.9723              1691.0695
 Red. masses --      1.0268                 1.0268                 1.0731
 Frc consts  --      1.5524                 1.5525                 1.8081
 IR Inten    --      0.0000                 0.0000                40.7218

                     10                     11                     12
                      A                      A                      A
 Frequencies --   2929.5588              2938.0882              2938.1082
 Red. masses --      1.0124                 1.0975                 1.0975
 Frc consts  --      5.1194                 5.5822                 5.5823
 IR Inten    --      0.0002                85.8050                85.8051

 - Thermochemistry -
 -------------------
 Temperature   298.150 Kelvin.  Pressure   1.00000 Atm.
 Atom     1 has atomic number  9 and mass  18.99840

 Molecular mass:    53.02028 amu.
 Principal axes and moments of inertia in atomic units:
                           1         2         3
     Eigenvalues --    13.82750 355.18632 355.18687
           X            1.00000   0.00000   0.00000
           Y           -0.00000   1.00000  -0.00000
           Z           -0.00000   0.00000   1.00000
 This molecule is an asymmetric top.
 Rotational symmetry number  1.
 Rotational temperatures (Kelvin)      6.26389     0.24385     0.24385
 Rotational constants (GHZ):         130.51827     5.08111     5.08110
    1 imaginary frequencies ignored.
 Zero-point vibrational energy     105417.3 (Joules/Mol)
                                   25.19535 (Kcal/Mol)
 Warning -- explicit consideration of   3 degrees of freedom as
           vibrations may cause significant error
 Vibrational temperatures:    613.38   613.43   769.39  1824.51  1824.55
          (Kelvin)           2304.84  2304.88  2433.07  4214.98  4227.25
                             4227.28

 Zero-point correction=                           0.040151 (Hartree/Particle)
 Thermal correction to Energy=                    0.043787
 Thermal correction to Enthalpy=                  0.044731
 Thermal correction to Gibbs Free Energy=         0.015125
 Sum of electronic and zero-point Energies=             -0.021713
 Sum of electronic and thermal Energies=                -0.018078
 Sum of electronic and thermal Enthalpies=              -0.017133
 Sum of electronic and thermal Free Energies=           -0.046739

                     E (Thermal)             CV                S
                      KCal/Mol        Cal/Mol-Kelvin    Cal/Mol-Kelvin
 Total                   27.477             10.433             62.311
 Electronic               0.000              0.000              0.000
 Translational            0.889              2.981             37.827
 Rotational               0.889              2.981             22.083
 Vibrational             25.699              4.471              2.401
 Vibration     1          0.788              1.413              0.871
 Vibration     2          0.788              1.413              0.871
 Vibration     3          0.890              1.173              0.577

 Optimization completed.
    -- Stationary point found.
 Normal termination of Gaussian 16 at Wed Oct 21 14:20:32 2020.
