 Gaussian 16, Revision A.03,
 Gaussian 16:  ES64L-G16RevA.03 25-Dec-2016

 ----------------------------------------------------------------------
 #P Opt(MaxCyc=150) AM1 5D 7F Integral=UltraFineGrid SCF=(NoSymm,XQC,Ma
 xCyc=120) IOp(1/33=1)
 ----------------------------------------------------------------------

 TstMul:  Mul=     1
 TstMul:  ICh=    -1
 TstMul:  Mul=     1
 Symbolic Z-matrix:
 Charge = -1 Multiplicity = 1

 SCF Done:  E(RAM1) = -0.434682490190E-01 A.U. after   12 cycles
 SCF Done:  E(RAM1) = -0.464453963855E-01 A.U. after   10 cycles
 SCF Done:  E(RAM1) = -0.467642316139E-01 A.U. after   10 cycles
 SCF Done:  E(RAM1) = -0.471503966502E-01 A.U. after   11 cycles
 SCF Done:  E(RAM1) = -0.471898705571E-01 A.U. after   10 cycles
 SCF Done:  E(RAM1) = -0.471616924935E-01 A.U. after    9 cycles
 SCF Done:  E(RAM1) = -0.472695209409E-01 A.U. after   10 cycles
 SCF Done:  E(RAM1) = -0.472826620446E-01 A.U. after    9 cycles
 SCF Done:  E(RAM1) = -0.472832405205E-01 A.U. after    8 cycles
 Optimization completed.
    -- Stationary point found.

                         Standard orientation:
 ---------------------------------------------------------------------
 Center     Atomic      Atomic             Coordinates (Angstroms)
 Number     Number       Type             X           Y           Z
 ---------------------------------------------------------------------
      1         17           0        0.000000    0.000000    1.568775
      2          6           0        0.000000    0.000000   -0.286073
      3          1           0        0.000000    1.067117   -0.569836
      4          1           0        0.924150   -0.533558   -0.569836
      5          1           0       -0.924150   -0.533558   -0.569836
      6          9           0        0.000000    0.000000   -2.582580
 ---------------------------------------------------------------------

 The electronic state is 1-A1.
 Alpha  occ. eigenvalues --   -1.19224  -1.15828  -0.86047  -0.36356  -0.36356
 Alpha  occ. eigenvalues --   -0.34070  -0.25019  -0.25019  -0.09746  -0.09746
 Alpha  occ. eigenvalues --   -0.08234
 Alpha virt. eigenvalues --    0.22707   0.33959   0.33959   0.35079

 Mulliken charges:
               1
     1  Cl  -0.410645
     2  C   -0.013901
     3  H    0.106156
     4  H    0.106156
     5  H    0.106156
     6  F   -0.893922
 Sum of Mulliken charges =  -1.00000

 Dipole moment (field-independent basis, Debye):
    X=              0.0000    Y=              0.0000    Z=              7.1158  Tot=              7.1158
 N-N= 7.067534439647D+01 E-N=-6.613488233646D+01  KE=-6.519744110334D+01
 Leave Link  601 at Wed Oct 21 14:18:21 2020, MaxMem=  2684354560 cpu:               2.9 elap:               0.8
 (Enter /udrive/faculty/rpeverati/g16/g16/l9999.exe)

 Test job not archived.
 1\1\GINC-NODE52\FOpt\RAM1\ZDO\C1H3Cl1F1(1-)\RPEVERATI\21-Oct-2020\0\\#
 P Opt(MaxCyc=150) AM1 5D 7F Integral=UltraFineGrid SCF=(NoSymm,XQC,Max
 Cyc=120) IOp(1/33=1)\\TS search on BH76.\\-1,1\Cl,0.,0.,2.0703100718\C
 ,0.,0.,0.2154619308\H,-0.5335582607,-0.9241500164,-0.0683010366\H,-0.5
 335582607,0.9241500164,-0.0683010366\H,1.0671165215,0.,-0.0683010366\F

 Normal termination of Gaussian 16 at Wed Oct 21 14:18:23 2020.
