 Gaussian 16, Revision A.03,

 ----------------------------------------------------------------------
 #P Opt(TS,MaxCyc=50,NoEigenTest,MaxStep=10,AddRedundant) AM1 5D 7F Int
 egral=UltraFineGrid SCF=(NoSymm,XQC,MaxCyc=120) IOp(1/33=1)
 ----------------------------------------------------------------------

 TstMul:  Mul=     1
 TstMul:  ICh=    -1
 TstMul:  Mul=     1
 Symbolic Z-matrix:
 Charge = -1 Multiplicity = 1

 SCF Done:  E(RAM1) = -0.469980198842E-01 A.U. after   11 cycles
 SCF Done:  E(RAM1) = -0.497478334310E-01 A.U. after   10 cycles
 SCF Done:  E(RAM1) = -0.478103188124E-01 A.U. after   10 cycles
 SCF Done:  E(RAM1) = -0.478915513687E-01 A.U. after   10 cycles
 SCF Done:  E(RAM1) = -0.477184486897E-01 A.U. after   10 cycles
 SCF Done:  E(RAM1) = -0.474432259615E-01 A.U. after   10 cycles
 SCF Done:  E(RAM1) = -0.472343014455E-01 A.U. after   10 cycles
 SCF Done:  E(RAM1) = -0.471847583212E-01 A.U. after   10 cycles
 SCF Done:  E(RAM1) = -0.471822695490E-01 A.U. after    9 cycles
 SCF Done:  E(RAM1) = -0.471839594733E-01 A.U. after    8 cycles
 SCF Done:  E(RAM1) = -0.471846957396E-01 A.U. after    8 cycles
 Optimization completed.
    -- Stationary point found.
 Normal termination of Gaussian 16 at Wed Oct 21 14:19:27 2020.
 Gaussian 16:  ES64L-G16RevA.03 25-Dec-2016

 ----------------------------------------------------------------------
 #P Freq AM1 5D 7F Integral=UltraFineGrid SCF=(NoSymm,XQC,MaxCyc=120) I
 Op(1/33=1) Geom=Check Guess=Read
 ----------------------------------------------------------------------

 TstMul:  Mul=     1
 TstMul:  ICh=    -1
 TstMul:  Mul=     1
 Structure from the checkpoint file:  "MN_37_fch3clts_BH76_AM1_SE.chk"
 Charge = -1 Multiplicity = 1

                         Standard orientation:
 ---------------------------------------------------------------------
 Center     Atomic      Atomic             Coordinates (Angstroms)
 Number     Number       Type             X           Y           Z
 ---------------------------------------------------------------------
      1          9           0        0.000000    0.000000   -2.535321
      2          6           0        0.000000    0.000000   -0.340066
      3          1           0       -0.000000    1.076311   -0.574367
      4          1           0       -0.932113   -0.538156   -0.574367
      5          1           0        0.932113   -0.538156   -0.574367
      6         17           0        0.000000    0.000000    1.563611
 ---------------------------------------------------------------------

 SCF Done:  E(RAM1) = -0.471846957398E-01 A.U. after    2 cycles

 The electronic state is 1-A1.
 Alpha  occ. eigenvalues --   -1.21606  -1.13396  -0.85454  -0.35913  -0.35913
 Alpha  occ. eigenvalues --   -0.32354  -0.24115  -0.24115  -0.11784  -0.11784
 Alpha  occ. eigenvalues --   -0.09657
 Alpha virt. eigenvalues --    0.23144   0.34310   0.34310   0.34659

 Mulliken charges:
               1
     1  F   -0.851513
     2  C    0.029370
     3  H    0.101221
     4  H    0.101221
     5  H    0.101221
     6  Cl  -0.481521
 Sum of Mulliken charges =  -1.00000

 Dipole moment (field-independent basis, Debye):
    X=              0.0000    Y=             -0.0000    Z=              5.8465  Tot=              5.8465
 N-N= 7.089913993845D+01 E-N=-6.660505538578D+01  KE=-6.516576656400D+01
  Exact polarizability:   8.388   0.000   8.388   0.000  -0.000  61.902
 Approx polarizability:   4.650   0.000   4.650   0.000  -0.000  43.504
 Leave Link  601 at Wed Oct 21 14:19:54 2020, MaxMem=  2684354560 cpu:               4.6 elap:               1.2
 (Enter /udrive/faculty/rpeverati/g16/g16/l701.exe)
 ... and contract with generalized density number  0.
 Compute integral second derivatives.
 Leave Link  701 at Wed Oct 21 14:19:55 2020, MaxMem=  2684354560 cpu:               5.2 elap:               1.2
 (Enter /udrive/faculty/rpeverati/g16/g16/l702.exe)
 L702 exits ... SP integral derivatives will be done elsewhere.

 ******    1 imaginary frequencies (negative Signs) ******

                      1                      2                      3
                     A1                      E                      E
 Frequencies --   -265.1591               209.7222               209.7222
 Red. masses --     13.2104                 3.9896                 3.9896
 Frc consts  --      0.5472                 0.1034                 0.1034
 IR Inten    --   1191.6294                21.8588                21.8588

                      4                      5                      6
                     A1                      E                      E
 Frequencies --    382.3240               959.7394               959.7394
 Red. masses --     20.7377                 1.0712                 1.0712
 Frc consts  --      1.7860                 0.5813                 0.5813
 IR Inten    --    149.1565                 7.6220                 7.6220

                      7                      8                      9
                     A1                      E                      E
 Frequencies --   1200.3608              1352.3335              1352.3335
 Red. masses --      1.0506                 1.0996                 1.0996
 Frc consts  --      0.8919                 1.1849                 1.1849
 IR Inten    --     41.5426                 2.1717                 2.1717

                     10                     11                     12
                      E                      E                     A1
 Frequencies --   3151.2946              3151.2946              3183.0061
 Red. masses --      1.1049                 1.1049                 1.0139
 Frc consts  --      6.4646                 6.4646                 6.0522
 IR Inten    --      2.6380                 2.6380                 3.7300

 - Thermochemistry -
 -------------------
 Temperature   298.150 Kelvin.  Pressure   1.00000 Atm.
 Atom     1 has atomic number  9 and mass  18.99840

 Molecular mass:    68.99073 amu.
 Principal axes and moments of inertia in atomic units:
                           1         2         3
     Eigenvalues --    12.50777 756.14822 756.14822
           X            0.00000   0.63552   0.77208
           Y            0.00000   0.77208  -0.63552
           Z            1.00000   0.00000   0.00000
 This molecule is a prolate symmetric top.
 Rotational symmetry number  3.
 Rotational temperatures (Kelvin)      6.92481     0.11455     0.11455
 Rotational constants (GHZ):         144.28962     2.38676     2.38676
    1 imaginary frequencies ignored.
 Zero-point vibrational energy      96370.4 (Joules/Mol)
                                   23.03307 (Kcal/Mol)
 Warning -- explicit consideration of   3 degrees of freedom as
           vibrations may cause significant error
 Vibrational temperatures:    301.74   301.74   550.08  1380.85  1380.85
          (Kelvin)           1727.05  1945.71  1945.71  4534.01  4534.01
                             4579.64

 Zero-point correction=                           0.036706 (Hartree/Particle)
 Thermal correction to Energy=                    0.041077
 Thermal correction to Enthalpy=                  0.042021
 Thermal correction to Gibbs Free Energy=         0.010976
 Sum of electronic and zero-point Energies=             -0.010479
 Sum of electronic and thermal Energies=                -0.006107
 Sum of electronic and thermal Enthalpies=              -0.005163
 Sum of electronic and thermal Free Energies=           -0.036209

                     E (Thermal)             CV                S
                      KCal/Mol        Cal/Mol-Kelvin    Cal/Mol-Kelvin
 Total                   25.776             12.422             65.340
 Electronic               0.000              0.000              0.000
 Translational            0.889              2.981             38.612
 Rotational               0.889              2.981             21.302
 Vibrational             23.999              6.460              5.427
 Vibration     1          0.642              1.826              2.046
 Vibration     2          0.642              1.826              2.046
 Vibration     3          0.752              1.508              1.030

 Optimization completed.
    -- Stationary point found.
 Normal termination of Gaussian 16 at Wed Oct 21 14:20:05 2020.
