 Gaussian 16, Revision A.03,
 Gaussian 16:  ES64L-G16RevA.03 25-Dec-2016

 ----------------------------------------------------------------------
 #P Opt(MaxCyc=150) AM1 5D 7F Integral=UltraFineGrid SCF=(NoSymm,XQC,Ma
 xCyc=120) IOp(1/33=1)
 ----------------------------------------------------------------------

 TstMul:  Mul=     1
 TstMul:  ICh=     0
 TstMul:  Mul=     1
 Symbolic Z-matrix:
 Charge =  0 Multiplicity = 1

 SCF Done:  E(RAM1) = -0.346557079546E-01 A.U. after    6 cycles
 SCF Done:  E(RAM1) = -0.356269186291E-01 A.U. after    5 cycles
 SCF Done:  E(RAM1) = -0.358778798813E-01 A.U. after    5 cycles
 Optimization completed.
    -- Stationary point found.

                         Standard orientation:
 ---------------------------------------------------------------------
 Center     Atomic      Atomic             Coordinates (Angstroms)
 Number     Number       Type             X           Y           Z
 ---------------------------------------------------------------------
      1          9           0        0.000000    0.000000    0.713494
      2          9           0        0.000000    0.000000   -0.713494
 ---------------------------------------------------------------------

 The electronic state is 1-SGG.
 Alpha  occ. eigenvalues --   -1.77695  -1.64928  -0.70785  -0.64193  -0.64193
 Alpha  occ. eigenvalues --   -0.52481  -0.52481
 Alpha virt. eigenvalues --    0.02082

 Mulliken charges:
               1
     1  F    0.000000
     2  F    0.000000
 Sum of Mulliken charges =   0.00000

 Dipole moment (field-independent basis, Debye):
    X=             -0.0000    Y=              0.0000    Z=              0.0000  Tot=              0.0000
 N-N= 5.132000109989D+01 E-N=-3.079255834644D+01  KE=-5.898409015703D+01
 Leave Link  601 at Wed Oct 21 14:16:45 2020, MaxMem=  2684354560 cpu:               2.3 elap:               1.0
 (Enter /udrive/faculty/rpeverati/g16/g16/l9999.exe)

 Test job not archived.
 1\1\GINC-NODE51\FOpt\RAM1\ZDO\F2\RPEVERATI\21-Oct-2020\0\\#P Opt(MaxCy
 c=150) AM1 5D 7F Integral=UltraFineGrid SCF=(NoSymm,XQC,MaxCyc=120) IO
 p(1/33=1)\\TS search on BH76.\\0,1\F,0.,0.,0.7134943233\F,0.,0.,-0.713
 4943233\\Version=ES64L-G16RevA.03\State=1-SGG\HF=-0.0358779\RMSD=9.880
 e-13\RMSF=1.565e-05\Dipole=0.,0.,0.\PG=D*H [C*(F1.F1)]\\@

 Normal termination of Gaussian 16 at Wed Oct 21 14:16:47 2020.
