 Gaussian 16, Revision A.03,
 Gaussian 16:  ES64L-G16RevA.03 25-Dec-2016

 ----------------------------------------------------------------------
 #P Opt(MaxCyc=150) AM1 5D 7F Integral=UltraFineGrid SCF=(NoSymm,XQC,Ma
 xCyc=120) IOp(1/33=1)
 ----------------------------------------------------------------------

 TstMul:  Mul=     1
 TstMul:  ICh=     0
 TstMul:  Mul=     1
 Symbolic Z-matrix:
 Charge =  0 Multiplicity = 1

 SCF Done:  E(RAM1) = -0.471088145206E-02 A.U. after    9 cycles
 SCF Done:  E(RAM1) = -0.908494613684E-02 A.U. after    8 cycles
 SCF Done:  E(RAM1) = -0.908985278928E-02 A.U. after    7 cycles
 Optimization completed.
    -- Stationary point found.

                         Standard orientation:
 ---------------------------------------------------------------------
 Center     Atomic      Atomic             Coordinates (Angstroms)
 Number     Number       Type             X           Y           Z
 ---------------------------------------------------------------------
      1          8           0        0.000000    0.000000    0.501959
      2          6           0        0.000000    0.000000   -0.669279
 ---------------------------------------------------------------------

 The electronic state is 1-SG.
 Alpha  occ. eigenvalues --   -1.51607  -0.81079  -0.59892  -0.59892  -0.48905
 Alpha virt. eigenvalues --    0.03454   0.03454   0.19406

 Mulliken charges:
               1
     1  O   -0.198920
     2  C    0.198920
 Sum of Mulliken charges =   0.00000

 Dipole moment (field-independent basis, Debye):
    X=             -0.0000    Y=              0.0000    Z=             -0.0616  Tot=              0.0616
 N-N= 2.505262936830D+01 E-N=-1.534637296497D+01  KE=-2.674957232455D+01
 Leave Link  601 at Wed Oct 21 14:16:40 2020, MaxMem=  2684354560 cpu:               2.6 elap:               0.8
 (Enter /udrive/faculty/rpeverati/g16/g16/l9999.exe)

 Test job not archived.
 1\1\GINC-NODE51\FOpt\RAM1\ZDO\C1O1\RPEVERATI\21-Oct-2020\0\\#P Opt(Max
 Cyc=150) AM1 5D 7F Integral=UltraFineGrid SCF=(NoSymm,XQC,MaxCyc=120)
 IOp(1/33=1)\\TS search on BH76.\\0,1\O,0.,0.,0.5049332667\C,0.,0.,-0.6
 663053279\\Version=ES64L-G16RevA.03\State=1-SG\HF=-0.0090899\RMSD=1.06
 3e-10\RMSF=1.069e-06\Dipole=0.,0.,-0.0242335\PG=C*V [C*(C1O1)]\\@

 Normal termination of Gaussian 16 at Wed Oct 21 14:16:43 2020.
