 Gaussian 16, Revision A.03,
 Gaussian 16:  ES64L-G16RevA.03 25-Dec-2016

 ----------------------------------------------------------------------
 #P Opt(MaxCyc=150) AM1 5D 7F Integral=UltraFineGrid SCF=(NoSymm,XQC,Ma
 xCyc=120) IOp(1/33=1)
 ----------------------------------------------------------------------

 TstMul:  Mul=     1
 TstMul:  ICh=     0
 TstMul:  Mul=     1
 Symbolic Z-matrix:
 Charge =  0 Multiplicity = 1

 SCF Done:  E(RAM1) =  0.495216285390E-01 A.U. after   12 cycles
 SCF Done:  E(RAM1) =  0.493779848343E-01 A.U. after    9 cycles
 SCF Done:  E(RAM1) =  0.493746789349E-01 A.U. after    8 cycles
 Optimization completed.
    -- Stationary point found.

                         Standard orientation:
 ---------------------------------------------------------------------
 Center     Atomic      Atomic             Coordinates (Angstroms)
 Number     Number       Type             X           Y           Z
 ---------------------------------------------------------------------
      1          6           0        0.000000    0.000000   -0.503736
      2          7           0        0.000000    0.000000    0.656450
      3          1           0        0.000000    0.000000   -1.572729
 ---------------------------------------------------------------------

 The electronic state is 1-SG.
 Alpha  occ. eigenvalues --   -1.34568  -0.78463  -0.51411  -0.50263  -0.50263
 Alpha virt. eigenvalues --    0.06341   0.06341   0.11166   0.23675

 Mulliken charges:
               1
     1  C   -0.192632
     2  N   -0.046278
     3  H    0.238910
 Sum of Mulliken charges =  -0.00000

 Dipole moment (field-independent basis, Debye):
    X=              0.0000    Y=              0.0000    Z=             -2.3615  Tot=              2.3615
 N-N= 2.251135756797D+01 E-N=-1.735403798212D+01  KE=-2.027060784926D+01
 Leave Link  601 at Wed Oct 21 14:16:58 2020, MaxMem=  2684354560 cpu:               3.6 elap:               0.9
 (Enter /udrive/faculty/rpeverati/g16/g16/l9999.exe)

 Test job not archived.
 1\1\GINC-NODE53\FOpt\RAM1\ZDO\C1H1N1\RPEVERATI\21-Oct-2020\0\\#P Opt(M
 axCyc=150) AM1 5D 7F Integral=UltraFineGrid SCF=(NoSymm,XQC,MaxCyc=120
 ) IOp(1/33=1)\\TS search on BH76.\\0,1\C,0.,0.,-0.5017363281\N,0.,0.,0
 .6584496733\H,0.,0.,-1.5707293577\\Version=ES64L-G16RevA.03\State=1-SG
 \HF=0.0493747\RMSD=4.880e-09\RMSF=1.045e-05\Dipole=0.,0.,-0.9290664\PG

 Normal termination of Gaussian 16 at Wed Oct 21 14:16:59 2020.
