 Gaussian 16, Revision A.03,
 Gaussian 16:  ES64L-G16RevA.03 25-Dec-2016

 ----------------------------------------------------------------------
 #P Opt(MaxCyc=150) AM1 5D 7F Integral=UltraFineGrid SCF=(NoSymm,XQC,Ma
 xCyc=120) IOp(1/33=1)
 ----------------------------------------------------------------------

 TstMul:  Mul=     1
 TstMul:  ICh=     0
 TstMul:  Mul=     1
 Symbolic Z-matrix:
 Charge =  0 Multiplicity = 1

 SCF Done:  E(RAM1) =  0.219431367340E-02 A.U. after    9 cycles
 SCF Done:  E(RAM1) =  0.193279744438E-02 A.U. after    7 cycles
 SCF Done:  E(RAM1) =  0.191128933371E-02 A.U. after    6 cycles
 SCF Done:  E(RAM1) =  0.190906377219E-02 A.U. after    6 cycles
 Optimization completed.
    -- Stationary point found.

                         Standard orientation:
 ---------------------------------------------------------------------
 Center     Atomic      Atomic             Coordinates (Angstroms)
 Number     Number       Type             X           Y           Z
 ---------------------------------------------------------------------
      1         16           0        0.000000    0.000000    0.098794
      2          1           0       -0.000000    0.979195   -0.790354
      3          1           0       -0.000000   -0.979195   -0.790354
 ---------------------------------------------------------------------

 The electronic state is 1-A1.
 Alpha  occ. eigenvalues --   -0.72438  -0.56648  -0.44941  -0.34882
 Alpha virt. eigenvalues --    0.03299   0.06225

 Mulliken charges:
               1
     1  S   -0.096692
     2  H    0.048346
     3  H    0.048346
 Sum of Mulliken charges =   0.00000

 Dipole moment (field-independent basis, Debye):
    X=             -0.0000    Y=             -0.0000    Z=             -1.8599  Tot=              1.8599
 N-N= 1.219543016891D+01 E-N=-7.344534684884D+00  KE=-1.286434975622D+01
 Leave Link  601 at Wed Oct 21 14:16:57 2020, MaxMem=  2684354560 cpu:               3.0 elap:               1.0
 (Enter /udrive/faculty/rpeverati/g16/g16/l9999.exe)

 Test job not archived.
 1\1\GINC-NODE56\FOpt\RAM1\ZDO\H2S1\RPEVERATI\21-Oct-2020\0\\#P Opt(Max
 Cyc=150) AM1 5D 7F Integral=UltraFineGrid SCF=(NoSymm,XQC,MaxCyc=120)
 IOp(1/33=1)\\TS search on BH76.\\0,1\S,0.,0.,0.080167953\H,0.,0.979195
 1741,-0.8089803159\H,0.,-0.9791951741,-0.8089803159\\Version=ES64L-G16
 RevA.03\State=1-A1\HF=0.0019091\RMSD=1.161e-09\RMSF=1.323e-05\Dipole=0

 Normal termination of Gaussian 16 at Wed Oct 21 14:16:59 2020.
