 Gaussian 16, Revision A.03,
 Gaussian 16:  ES64L-G16RevA.03 25-Dec-2016

 ----------------------------------------------------------------------
 #P Opt(MaxCyc=150) AM1 5D 7F Integral=UltraFineGrid SCF=(NoSymm,XQC,Ma
 xCyc=120) IOp(1/33=1)
 ----------------------------------------------------------------------

 TstMul:  Mul=     1
 TstMul:  ICh=     0
 TstMul:  Mul=     1
 Symbolic Z-matrix:
 Charge =  0 Multiplicity = 1

 SCF Done:  E(RAM1) = -0.943275784450E-01 A.U. after    9 cycles
 SCF Done:  E(RAM1) = -0.943807406264E-01 A.U. after    7 cycles
 SCF Done:  E(RAM1) = -0.943839015192E-01 A.U. after    6 cycles
 Optimization completed.
    -- Stationary point found.

                         Standard orientation:
 ---------------------------------------------------------------------
 Center     Atomic      Atomic             Coordinates (Angstroms)
 Number     Number       Type             X           Y           Z
 ---------------------------------------------------------------------
      1          8           0        0.000000    0.000000    0.118987
      2          1           0       -0.000000    0.755285   -0.475948
      3          1           0       -0.000000   -0.755285   -0.475948
 ---------------------------------------------------------------------

 The electronic state is 1-A1.
 Alpha  occ. eigenvalues --   -1.33844  -0.66879  -0.54946  -0.45804
 Alpha virt. eigenvalues --    0.16230   0.22750

 Mulliken charges:
               1
     1  O   -0.382775
     2  H    0.191387
     3  H    0.191387
 Sum of Mulliken charges =   0.00000

 Dipole moment (field-independent basis, Debye):
    X=             -0.0000    Y=              0.0000    Z=             -1.8606  Tot=              1.8606
 N-N= 1.803248144678D+01 E-N=-8.782736309579D+00  KE=-2.144153052923D+01
 Leave Link  601 at Wed Oct 21 14:16:46 2020, MaxMem=  2684354560 cpu:               3.3 elap:               0.9
 (Enter /udrive/faculty/rpeverati/g16/g16/l9999.exe)

 Test job not archived.
 1\1\GINC-NODE55\FOpt\RAM1\ZDO\H2O1\RPEVERATI\21-Oct-2020\0\\#P Opt(Max
 Cyc=150) AM1 5D 7F Integral=UltraFineGrid SCF=(NoSymm,XQC,MaxCyc=120)
 IOp(1/33=1)\\TS search on BH76.\\0,1\O,0.,0.,0.1232839346\H,0.,0.75528
 52952,-0.4716516453\H,0.,-0.7552852952,-0.4716516453\\Version=ES64L-G1
 6RevA.03\State=1-A1\HF=-0.0943839\RMSD=1.999e-10\RMSF=5.521e-05\Dipole

 Normal termination of Gaussian 16 at Wed Oct 21 14:16:48 2020.
