 Gaussian 16, Revision A.03,
 Gaussian 16:  ES64L-G16RevA.03 25-Dec-2016

 ----------------------------------------------------------------------
 #P Opt(MaxCyc=150) AM1 5D 7F Integral=UltraFineGrid SCF=(NoSymm,XQC,Ma
 xCyc=120) IOp(1/33=1)
 ----------------------------------------------------------------------

 TstMul:  Mul=     1
 TstMul:  ICh=     0
 TstMul:  Mul=     1
 Symbolic Z-matrix:
 Charge =  0 Multiplicity = 1

 SCF Done:  E(RAM1) = -0.391842801168E-01 A.U. after    8 cycles
 SCF Done:  E(RAM1) = -0.392227137959E-01 A.U. after    6 cycles
 SCF Done:  E(RAM1) = -0.392239402882E-01 A.U. after    5 cycles
 Optimization completed.
    -- Stationary point found.

                         Standard orientation:
 ---------------------------------------------------------------------
 Center     Atomic      Atomic             Coordinates (Angstroms)
 Number     Number       Type             X           Y           Z
 ---------------------------------------------------------------------
      1         17           0        0.000000    0.000000    0.071311
      2          1           0        0.000000    0.000000   -1.212286
 ---------------------------------------------------------------------

 The electronic state is 1-SG.
 Alpha  occ. eigenvalues --   -1.36105  -0.61592  -0.45323  -0.45323
 Alpha virt. eigenvalues --    0.06859

 Mulliken charges:
               1
     1  Cl  -0.168060
     2  H    0.168060
 Sum of Mulliken charges =   0.00000

 Dipole moment (field-independent basis, Debye):
    X=              0.0000    Y=             -0.0000    Z=             -1.3841  Tot=              1.3841
 N-N= 1.661951485540D+01 E-N=-4.093047730722D+00  KE=-2.345754905139D+01
 Leave Link  601 at Wed Oct 21 14:16:46 2020, MaxMem=  2684354560 cpu:               1.9 elap:               0.9
 (Enter /udrive/faculty/rpeverati/g16/g16/l9999.exe)

 Test job not archived.
 1\1\GINC-NODE56\FOpt\RAM1\ZDO\Cl1H1\RPEVERATI\21-Oct-2020\0\\#P Opt(Ma
 xCyc=150) AM1 5D 7F Integral=UltraFineGrid SCF=(NoSymm,XQC,MaxCyc=120)
  IOp(1/33=1)\\TS search on BH76.\\0,1\Cl,0.,0.,0.0753772351\H,0.,0.,-1
 .2082196992\\Version=ES64L-G16RevA.03\State=1-SG\HF=-0.0392239\RMSD=5.
 116e-10\RMSF=5.545e-08\Dipole=0.,0.,-0.5445346\PG=C*V [C*(H1Cl1)]\\@

 Normal termination of Gaussian 16 at Wed Oct 21 14:16:48 2020.
