 Gaussian 16, Revision A.03,

 ----------------------------------------------------------------------
 #P Opt(TS,MaxCyc=50,NoEigenTest,MaxStep=10,AddRedundant) AM1 5D 7F Int
 egral=UltraFineGrid SCF=(NoSymm,XQC,MaxCyc=120) IOp(1/33=1)
 ----------------------------------------------------------------------

 TstMul:  Mul=     2
 TstMul:  ICh=     0
 TstMul:  Mul=     2
 Symbolic Z-matrix:
 Charge =  0 Multiplicity = 2

 SCF Done:  E(UAM1) =  0.455326627420E-01 A.U. after    9 cycles
 SCF Done:  E(UAM1) =  0.449455366208E-01 A.U. after    7 cycles
 SCF Done:  E(UAM1) =  0.448984795231E-01 A.U. after    7 cycles
 Optimization completed.
    -- Stationary point found.
 Normal termination of Gaussian 16 at Wed Oct 21 14:16:44 2020.
 Gaussian 16:  ES64L-G16RevA.03 25-Dec-2016

 ----------------------------------------------------------------------
 #P Freq AM1 5D 7F Integral=UltraFineGrid SCF=(NoSymm,XQC,MaxCyc=120) I
 Op(1/33=1) Geom=Check Guess=Read
 ----------------------------------------------------------------------

 TstMul:  Mul=     2
 TstMul:  ICh=     0
 TstMul:  Mul=     2
 Structure from the checkpoint file:  "MN_45_hclhts_BH76_AM1_SE.chk"
 Charge =  0 Multiplicity = 2

                         Standard orientation:
 ---------------------------------------------------------------------
 Center     Atomic      Atomic             Coordinates (Angstroms)
 Number     Number       Type             X           Y           Z
 ---------------------------------------------------------------------
      1          1           0        0.000000    0.000000    1.447682
      2         17           0        0.000000    0.000000    0.000000
      3          1           0        0.000000    0.000000   -1.447682
 ---------------------------------------------------------------------

 SCF Done:  E(UAM1) =  0.448984795231E-01 A.U. after    2 cycles

 The electronic state is 2-SGG.
 Alpha  occ. eigenvalues --   -1.35049  -0.66310  -0.44933  -0.44933  -0.36991
 Alpha virt. eigenvalues --    0.06800
  Beta  occ. eigenvalues --   -1.35860  -0.61916  -0.45167  -0.45167
  Beta virt. eigenvalues --   -0.02426   0.15680

 Mulliken charges and spin densities:
               1          2
     1  H    0.081531   0.577656
     2  Cl  -0.163063  -0.155312
     3  H    0.081531   0.577656
 Sum of Mulliken charges =  -0.00000   1.00000

 Dipole moment (field-independent basis, Debye):
    X=              0.0000    Y=              0.0000    Z=              0.0000  Tot=              0.0000
 N-N= 1.924290328611D+01 E-N=-8.302726803835D+00  KE=-2.393003565444D+01
  Exact polarizability:   0.092  -0.000   0.092  -0.000   0.000  40.003
 Approx polarizability:   0.031  -0.000   0.031  -0.000   0.000  25.026
 Leave Link  601 at Wed Oct 21 14:17:05 2020, MaxMem=  2684354560 cpu:               3.7 elap:               0.9
 (Enter /udrive/faculty/rpeverati/g16/g16/l701.exe)
 ... and contract with generalized density number  0.
 Compute integral second derivatives.
 Leave Link  701 at Wed Oct 21 14:17:07 2020, MaxMem=  2684354560 cpu:               3.8 elap:               1.0
 (Enter /udrive/faculty/rpeverati/g16/g16/l702.exe)
 L702 exits ... SP integral derivatives will be done elsewhere.

 ******    3 imaginary frequencies (negative Signs) ******

                      1                      2                      3
                     SGU                    PIU                    PIU
 Frequencies --  -1005.3942              -754.0068              -754.0068
 Red. masses --      1.0641                 1.0641                 1.0641
 Frc consts  --      0.6338                 0.3565                 0.3565
 IR Inten    --    808.8332                33.8267                33.8267

                      4
                     SGG
 Frequencies --   1852.6626
 Red. masses --      1.0078
 Frc consts  --      2.0381
 IR Inten    --      0.0000

 - Thermochemistry -
 -------------------
 Temperature   298.150 Kelvin.  Pressure   1.00000 Atm.
 Atom     1 has atomic number  1 and mass   1.00783

 Molecular mass:    36.98450 amu.
 Principal axes and moments of inertia in atomic units:
                           1         2         3
     Eigenvalues --     0.00000  15.08548  15.08548
           X           -0.00000   1.00000   0.00000
           Y            0.00000   0.00000   1.00000
           Z            1.00000   0.00000   0.00000
 This molecule is a prolate symmetric top.
 Rotational symmetry number  2.
 Rotational temperature (Kelvin)      5.74154
 Rotational constant (GHZ):         119.634340
    3 imaginary frequencies ignored.
 Zero-point vibrational energy      11081.4 (Joules/Mol)
                                    2.64851 (Kcal/Mol)
 Vibrational temperatures:   2665.57
          (Kelvin)

 Zero-point correction=                           0.004221 (Hartree/Particle)
 Thermal correction to Energy=                    0.006582
 Thermal correction to Enthalpy=                  0.007526
 Thermal correction to Gibbs Free Energy=        -0.014611
 Sum of electronic and zero-point Energies=              0.049119
 Sum of electronic and thermal Energies=                 0.051481
 Sum of electronic and thermal Enthalpies=               0.052425
 Sum of electronic and thermal Free Energies=            0.030288

                     E (Thermal)             CV                S
                      KCal/Mol        Cal/Mol-Kelvin    Cal/Mol-Kelvin
 Total                    4.130              4.989             46.592
 Electronic               0.000              0.000              1.377
 Translational            0.889              2.981             36.753
 Rotational               0.592              1.987              8.459
 Vibrational              2.649              0.021              0.003

 Optimization completed.
    -- Stationary point found.
 Normal termination of Gaussian 16 at Wed Oct 21 14:17:14 2020.
