 Gaussian 16, Revision A.03,
 Gaussian 16:  ES64L-G16RevA.03 25-Dec-2016

 ----------------------------------------------------------------------
 #P Opt(MaxCyc=150) AM1 5D 7F Integral=UltraFineGrid SCF=(NoSymm,XQC,Ma
 xCyc=120) IOp(1/33=1)
 ----------------------------------------------------------------------

 TstMul:  Mul=     1
 TstMul:  ICh=     0
 TstMul:  Mul=     1
 Symbolic Z-matrix:
 Charge =  0 Multiplicity = 1

 SCF Done:  E(RAM1) = -0.574379471027E-02 A.U. after    2 cycles
 SCF Done:  E(RAM1) = -0.816129811871E-02 A.U. after    2 cycles
 SCF Done:  E(RAM1) = -0.826113338391E-02 A.U. after    2 cycles
 Optimization completed.
    -- Stationary point found.

                         Standard orientation:
 ---------------------------------------------------------------------
 Center     Atomic      Atomic             Coordinates (Angstroms)
 Number     Number       Type             X           Y           Z
 ---------------------------------------------------------------------
      1          1           0        0.000000    0.000000    0.338296
      2          1           0        0.000000    0.000000   -0.338296
 ---------------------------------------------------------------------

 The electronic state is 1-SGG.
 Alpha  occ. eigenvalues --   -0.54817
 Alpha virt. eigenvalues --    0.18270

 Mulliken charges:
               1
     1  H   -0.000000
     2  H    0.000000
 Sum of Mulliken charges =   0.00000

 Dipole moment (field-independent basis, Debye):
    X=              0.0000    Y=              0.0000    Z=             -0.0000  Tot=              0.0000
 N-N= 1.526268649249D+00 E-N=-8.084526326742D-01  KE=-1.164267964313D+00
 Leave Link  601 at Wed Oct 21 14:16:39 2020, MaxMem=  2684354560 cpu:               2.1 elap:               0.8
 (Enter /udrive/faculty/rpeverati/g16/g16/l9999.exe)

 Test job not archived.
 1\1\GINC-NODE55\FOpt\RAM1\ZDO\H2\RPEVERATI\21-Oct-2020\0\\#P Opt(MaxCy
 c=150) AM1 5D 7F Integral=UltraFineGrid SCF=(NoSymm,XQC,MaxCyc=120) IO
 p(1/33=1)\\TS search on BH76.\\0,1\H,0.,0.,0.3382956789\H,0.,0.,-0.338
 2956789\\Version=ES64L-G16RevA.03\State=1-SGG\HF=-0.0082611\RMSD=9.615
 e-17\RMSF=2.544e-06\Dipole=0.,0.,0.\PG=D*H [C*(H1.H1)]\\@

 Normal termination of Gaussian 16 at Wed Oct 21 14:16:41 2020.
