 Gaussian 16, Revision A.03,

 ----------------------------------------------------------------------
 #P Opt(TS,MaxCyc=50,NoEigenTest,MaxStep=10,AddRedundant) AM1 5D 7F Int
 egral=UltraFineGrid SCF=(NoSymm,XQC,MaxCyc=120) IOp(1/33=1)
 ----------------------------------------------------------------------

 TstMul:  Mul=     1
 TstMul:  ICh=     0
 TstMul:  Mul=     1
 Symbolic Z-matrix:
 Charge =  0 Multiplicity = 1

 SCF Done:  E(RAM1) =  0.191364910330     A.U. after   14 cycles
 SCF Done:  E(RAM1) =  0.191238997963     A.U. after   12 cycles
 SCF Done:  E(RAM1) =  0.189217260250     A.U. after   12 cycles
 SCF Done:  E(RAM1) =  0.188748370794     A.U. after   11 cycles
 SCF Done:  E(RAM1) =  0.188749980291     A.U. after   10 cycles
 SCF Done:  E(RAM1) =  0.188750074742     A.U. after   10 cycles
 Optimization completed.
    -- Stationary point found.
 Normal termination of Gaussian 16 at Wed Oct 21 14:18:06 2020.
 Gaussian 16:  ES64L-G16RevA.03 25-Dec-2016

 ----------------------------------------------------------------------
 #P Freq AM1 5D 7F Integral=UltraFineGrid SCF=(NoSymm,XQC,MaxCyc=120) I
 Op(1/33=1) Geom=Check Guess=Read
 ----------------------------------------------------------------------

 TstMul:  Mul=     1
 TstMul:  ICh=     0
 TstMul:  Mul=     1
 Structure from the checkpoint file:  "MN_49_hcnts_BH76_AM1_SE.chk"
 Charge =  0 Multiplicity = 1

                         Standard orientation:
 ---------------------------------------------------------------------
 Center     Atomic      Atomic             Coordinates (Angstroms)
 Number     Number       Type             X           Y           Z
 ---------------------------------------------------------------------
      1          6           0        0.085671    0.643674    0.000000
      2          7           0        0.085671   -0.572832    0.000000
      3          1           0       -1.113722    0.147785    0.000000
 ---------------------------------------------------------------------

 SCF Done:  E(RAM1) =  0.188750074742     A.U. after    2 cycles

 The electronic state is 1-A'.
 Alpha  occ. eigenvalues --   -1.37100  -0.68046  -0.58279  -0.49531  -0.42655
 Alpha virt. eigenvalues --    0.00561   0.04344   0.04803   0.18749

 Mulliken charges:
               1
     1  C   -0.091133
     2  N   -0.205806
     3  H    0.296939
 Sum of Mulliken charges =  -0.00000

 Dipole moment (field-independent basis, Debye):
    X=             -2.1804    Y=             -0.0323    Z=              0.0000  Tot=              2.1807
 N-N= 2.255899703882D+01 E-N=-1.730499073775D+01  KE=-2.032329779327D+01
  Exact polarizability:  10.808   0.369  19.589   0.000  -0.000   4.387
 Approx polarizability:   7.965   0.147  20.776   0.000  -0.000   2.953
 Leave Link  601 at Wed Oct 21 14:18:33 2020, MaxMem=  2684354560 cpu:               2.8 elap:               1.3
 (Enter /udrive/faculty/rpeverati/g16/g16/l701.exe)
 ... and contract with generalized density number  0.
 Compute integral second derivatives.
 Leave Link  701 at Wed Oct 21 14:18:35 2020, MaxMem=  2684354560 cpu:               7.8 elap:               1.5
 (Enter /udrive/faculty/rpeverati/g16/g16/l702.exe)
 L702 exits ... SP integral derivatives will be done elsewhere.

 ******    1 imaginary frequencies (negative Signs) ******

                      1                      2                      3
                     A'                     A'                     A'
 Frequencies --  -1407.4660              2102.8144              2401.4757
 Red. masses --      1.1860                 3.8283                 1.2889
 Frc consts  --      1.3842                 9.9737                 4.3794
 IR Inten    --     22.3953               160.9396                76.2399

 - Thermochemistry -
 -------------------
 Temperature   298.150 Kelvin.  Pressure   1.00000 Atm.
 Atom     1 has atomic number  6 and mass  12.00000

 Molecular mass:    27.01090 amu.
 Principal axes and moments of inertia in atomic units:
                           1         2         3
     Eigenvalues --     4.96920  34.25400  39.22320
           X           -0.02260   0.99974   0.00000
           Y            0.99974   0.02260   0.00000
           Z            0.00000   0.00000   1.00000
 This molecule is an asymmetric top.
 Rotational symmetry number  1.
 Rotational temperatures (Kelvin)     17.43015     2.52858     2.20823
 Rotational constants (GHZ):         363.18543    52.68702    46.01209
    1 imaginary frequencies ignored.
 Zero-point vibrational energy      26941.6 (Joules/Mol)
                                    6.43921 (Kcal/Mol)
 Vibrational temperatures:   3025.48  3455.19
          (Kelvin)

 Zero-point correction=                           0.010262 (Hartree/Particle)
 Thermal correction to Energy=                    0.013095
 Thermal correction to Enthalpy=                  0.014039
 Thermal correction to Gibbs Free Energy=        -0.010844
 Sum of electronic and zero-point Energies=              0.199012
 Sum of electronic and thermal Energies=                 0.201845
 Sum of electronic and thermal Enthalpies=               0.202789
 Sum of electronic and thermal Free Energies=            0.177906

                     E (Thermal)             CV                S
                      KCal/Mol        Cal/Mol-Kelvin    Cal/Mol-Kelvin
 Total                    8.217              5.972             52.370
 Electronic               0.000              0.000              0.000
 Translational            0.889              2.981             35.816
 Rotational               0.889              2.981             16.553
 Vibrational              6.440              0.010              0.001

 Optimization completed.
    -- Stationary point found.
 Normal termination of Gaussian 16 at Wed Oct 21 14:18:45 2020.
