 Gaussian 16, Revision A.03,

 ----------------------------------------------------------------------
 #P Opt(TS,MaxCyc=50,NoEigenTest,MaxStep=10,AddRedundant) AM1 5D 7F Int
 egral=UltraFineGrid SCF=(NoSymm,XQC,MaxCyc=120) IOp(1/33=1)
 ----------------------------------------------------------------------

 TstMul:  Mul=     2
 TstMul:  ICh=     0
 TstMul:  Mul=     2
 Symbolic Z-matrix:
 Charge =  0 Multiplicity = 2

 SCF Done:  E(UAM1) =  0.444465067817E-01 A.U. after   14 cycles
 SCF Done:  E(UAM1) =  0.443902266466E-01 A.U. after    9 cycles
 SCF Done:  E(UAM1) =  0.443717514149E-01 A.U. after   10 cycles
 SCF Done:  E(UAM1) =  0.445289957380E-01 A.U. after   11 cycles
 SCF Done:  E(UAM1) =  0.446608264328E-01 A.U. after   10 cycles
 SCF Done:  E(UAM1) =  0.447468076277E-01 A.U. after   10 cycles
 SCF Done:  E(UAM1) =  0.447791869151E-01 A.U. after   10 cycles
 SCF Done:  E(UAM1) =  0.448029560873E-01 A.U. after   10 cycles
 SCF Done:  E(UAM1) =  0.448341419942E-01 A.U. after   10 cycles
 SCF Done:  E(UAM1) =  0.448341169414E-01 A.U. after    8 cycles
 SCF Done:  E(UAM1) =  0.448405497714E-01 A.U. after    9 cycles
 Optimization completed.
    -- Stationary point found.
 Normal termination of Gaussian 16 at Wed Oct 28 14:21:09 2020.
 Gaussian 16:  ES64L-G16RevA.03 25-Dec-2016

 ----------------------------------------------------------------------
 #P Freq AM1 5D 7F Integral=UltraFineGrid SCF=(NoSymm,XQC,MaxCyc=120) I
 Op(1/33=1) Geom=Check Guess=Read
 ----------------------------------------------------------------------

 TstMul:  Mul=     2
 TstMul:  ICh=     0
 TstMul:  Mul=     2
 Structure from the checkpoint file:  "MN_52_hf2ts_BH76_AM1_SE.chk"
 Charge =  0 Multiplicity = 2

                         Standard orientation:
 ---------------------------------------------------------------------
 Center     Atomic      Atomic             Coordinates (Angstroms)
 Number     Number       Type             X           Y           Z
 ---------------------------------------------------------------------
      1          1           0        0.000000    0.000000   -2.444619
      2          9           0        0.000000    0.000000   -0.581058
      3          9           0        0.000000    0.000000    0.852682
 ---------------------------------------------------------------------

 SCF Done:  E(UAM1) =  0.448405497714E-01 A.U. after    2 cycles

 The electronic state is 2-SG.
 Alpha  occ. eigenvalues --   -1.77104  -1.64928  -0.71305  -0.63673  -0.63673
 Alpha  occ. eigenvalues --   -0.52221  -0.52221  -0.41866
 Alpha virt. eigenvalues --    0.02126
  Beta  occ. eigenvalues --   -1.76831  -1.64500  -0.70405  -0.63597  -0.63597
  Beta  occ. eigenvalues --   -0.52116  -0.52116
  Beta virt. eigenvalues --   -0.00509   0.07476

 Mulliken charges and spin densities:
               1          2
     1  H    0.015478   0.965941
     2  F   -0.004055  -0.057116
     3  F   -0.011423   0.091175
 Sum of Mulliken charges =  -0.00000   1.00000

 Dipole moment (field-independent basis, Debye):
    X=              0.0000    Y=             -0.0000    Z=             -0.2311  Tot=              0.2311
 N-N= 5.460310582646D+01 E-N=-3.635102204825D+01  KE=-5.946397751465D+01
  Exact polarizability:   0.058  -0.000   0.058   0.000   0.000  17.114
 Approx polarizability:   0.018   0.000   0.018  -0.000   0.000  13.124
 Leave Link  601 at Wed Oct 28 14:21:12 2020, MaxMem=  2684354560 cpu:               0.3 elap:               0.1
 (Enter /udrive/faculty/rpeverati/g16/g16/l701.exe)
 ... and contract with generalized density number  0.
 Compute integral second derivatives.
 Leave Link  701 at Wed Oct 28 14:21:12 2020, MaxMem=  2684354560 cpu:               0.9 elap:               0.1
 (Enter /udrive/faculty/rpeverati/g16/g16/l702.exe)
 L702 exits ... SP integral derivatives will be done elsewhere.

                      1                      2                      3
                     PI                     PI                     SG
 Frequencies --     42.9923                42.9923               224.4708
 Red. masses --      1.3543                 1.3543                 1.0471
 Frc consts  --      0.0015                 0.0015                 0.0311
 IR Inten    --      0.2087                 0.2087                47.2415

                      4
                     SG
 Frequencies --   1311.8796
 Red. masses --     15.2545
 Frc consts  --     15.4681
 IR Inten    --     12.2343

 - Thermochemistry -
 -------------------
 Temperature   298.150 Kelvin.  Pressure   1.00000 Atm.
 Atom     1 has atomic number  1 and mass   1.00783

 Molecular mass:    39.00463 amu.
 Principal axes and moments of inertia in atomic units:
                           1         2         3
     Eigenvalues --     0.00000  93.07626  93.07626
           X            0.00000   0.00000   1.00000
           Y            0.00000   1.00000   0.00000
           Z            1.00000   0.00000   0.00000
 This molecule is a prolate symmetric top.
 Rotational symmetry number  1.
 Rotational temperature (Kelvin)      0.93057
 Rotational constant (GHZ):          19.389920
 Zero-point vibrational energy       9703.7 (Joules/Mol)
                                    2.31924 (Kcal/Mol)
 Warning -- explicit consideration of   3 degrees of freedom as
           vibrations may cause significant error
 Vibrational temperatures:     61.86    61.86   322.96  1887.50
          (Kelvin)

 Zero-point correction=                           0.003696 (Hartree/Particle)
 Thermal correction to Energy=                    0.008290
 Thermal correction to Enthalpy=                  0.009234
 Thermal correction to Gibbs Free Energy=        -0.021138
 Sum of electronic and zero-point Energies=              0.048537
 Sum of electronic and thermal Energies=                 0.053130
 Sum of electronic and thermal Enthalpies=               0.054074
 Sum of electronic and thermal Free Energies=            0.023703

                     E (Thermal)             CV                S
                      KCal/Mol        Cal/Mol-Kelvin    Cal/Mol-Kelvin
 Total                    5.202             10.874             63.923
 Electronic               0.000              0.000              1.377
 Translational            0.889              2.981             36.912
 Rotational               0.592              1.987             13.452
 Vibrational              3.721              5.906             12.181
 Vibration     1          0.595              1.980              5.116
 Vibration     2          0.595              1.980              5.116
 Vibration     3          0.649              1.804              1.923

                           ! Non-Optimized Parameters !
 Normal termination of Gaussian 16 at Wed Oct 28 14:21:13 2020.
