 Gaussian 16, Revision A.03,

 ----------------------------------------------------------------------
 #P Opt(TS,MaxCyc=50,NoEigenTest,MaxStep=10,AddRedundant) AM1 5D 7F Int
 egral=UltraFineGrid SCF=(NoSymm,XQC,MaxCyc=120) IOp(1/33=1)
 ----------------------------------------------------------------------

 TstMul:  Mul=     2
 TstMul:  ICh=     0
 TstMul:  Mul=     2
 Symbolic Z-matrix:
 Charge =  0 Multiplicity = 2

 SCF Done:  E(UAM1) =  0.695503358045E-01 A.U. after   18 cycles
 SCF Done:  E(UAM1) =  0.668053721115E-01 A.U. after   13 cycles
 SCF Done:  E(UAM1) =  0.678628769922E-01 A.U. after   14 cycles
 SCF Done:  E(UAM1) =  0.687009803129E-01 A.U. after   14 cycles
 SCF Done:  E(UAM1) =  0.693607951837E-01 A.U. after   14 cycles
 SCF Done:  E(UAM1) =  0.698864030226E-01 A.U. after   14 cycles
 SCF Done:  E(UAM1) =  0.703165567396E-01 A.U. after   14 cycles
 SCF Done:  E(UAM1) =  0.706827289904E-01 A.U. after   14 cycles
 SCF Done:  E(UAM1) =  0.710084201397E-01 A.U. after   13 cycles
 SCF Done:  E(UAM1) =  0.713093545751E-01 A.U. after   13 cycles
 SCF Done:  E(UAM1) =  0.739043689712E-01 A.U. after   12 cycles
 SCF Done:  E(UAM1) =  0.739219640701E-01 A.U. after   12 cycles
 SCF Done:  E(UAM1) =  0.739348818548E-01 A.U. after   12 cycles
 SCF Done:  E(UAM1) =  0.739440636663E-01 A.U. after   12 cycles
 SCF Done:  E(UAM1) =  0.739503151737E-01 A.U. after   12 cycles
 SCF Done:  E(UAM1) =  0.739543133255E-01 A.U. after   12 cycles
 SCF Done:  E(UAM1) =  0.739566159829E-01 A.U. after   12 cycles
 SCF Done:  E(UAM1) =  0.739576738344E-01 A.U. after   12 cycles
 SCF Done:  E(UAM1) =  0.739578555152E-01 A.U. after   11 cycles
 Optimization completed.
    -- Stationary point found.
 Normal termination of Gaussian 16 at Wed Oct 21 14:28:42 2020.
 Gaussian 16:  ES64L-G16RevA.03 25-Dec-2016

 ----------------------------------------------------------------------
 #P Freq AM1 5D 7F Integral=UltraFineGrid SCF=(NoSymm,XQC,MaxCyc=120) I
 Op(1/33=1) Geom=Check Guess=Read
 ----------------------------------------------------------------------

 TstMul:  Mul=     2
 TstMul:  ICh=     0
 TstMul:  Mul=     2
 Structure from the checkpoint file:  "MN_51_hcots_BH76_AM1_SE.chk"
 Charge =  0 Multiplicity = 2

                         Standard orientation:
 ---------------------------------------------------------------------
 Center     Atomic      Atomic             Coordinates (Angstroms)
 Number     Number       Type             X           Y           Z
 ---------------------------------------------------------------------
      1          1           0       -2.279239    3.138650    0.000000
      2          6           0        0.162803    0.445091    0.000000
      3          8           0        0.162803   -0.726149   -0.000000
 ---------------------------------------------------------------------

 SCF Done:  E(UAM1) =  0.739578555152E-01 A.U. after    2 cycles

 The electronic state is 2-A'.
 Alpha  occ. eigenvalues --   -1.51608  -0.81080  -0.59893  -0.59892  -0.48915
 Alpha  occ. eigenvalues --   -0.41676
 Alpha virt. eigenvalues --    0.03453   0.03453   0.19405
  Beta  occ. eigenvalues --   -1.51607  -0.81079  -0.59892  -0.59892  -0.48906
  Beta virt. eigenvalues --    0.03442   0.03453   0.05540   0.19406

 Mulliken charges and spin densities:
               1          2
     1  H   -0.000025   0.999930
     2  C    0.198937   0.000019
     3  O   -0.198912   0.000051
 Sum of Mulliken charges =  -0.00000   1.00000

 Dipole moment (field-independent basis, Debye):
    X=              0.0002    Y=              0.0613    Z=              0.0000  Tot=              0.0613
 N-N= 2.678724756670D+01 E-N=-1.781378264765D+01  KE=-2.716838815610D+01
  Exact polarizability:   4.053  -0.010  15.012   0.000   0.000   4.043
 Approx polarizability:   2.795  -0.007  15.435   0.000   0.000   2.789
 Leave Link  601 at Wed Oct 21 14:29:16 2020, MaxMem=  2684354560 cpu:               3.3 elap:               1.1
 (Enter /udrive/faculty/rpeverati/g16/g16/l701.exe)
 ... and contract with generalized density number  0.
 Compute integral second derivatives.
 Leave Link  701 at Wed Oct 21 14:29:19 2020, MaxMem=  2684354560 cpu:               5.0 elap:               1.6
 (Enter /udrive/faculty/rpeverati/g16/g16/l702.exe)
 L702 exits ... SP integral derivatives will be done elsewhere.

 ******    1 imaginary frequencies (negative Signs) ******

                      1                      2                      3
                     A'                     A'                     A'
 Frequencies --    -45.2704                 4.7002              2267.4256
 Red. masses --      1.0623                 2.4233                13.4388
 Frc consts  --      0.0013                 0.0000                40.7077
 IR Inten    --      0.0002                 0.0102               199.1184

 - Thermochemistry -
 -------------------
 Temperature   298.150 Kelvin.  Pressure   1.00000 Atm.
 Atom     1 has atomic number  1 and mass   1.00783

 Molecular mass:    29.00274 amu.
 Principal axes and moments of inertia in atomic units:
                           1         2         3
     Eigenvalues --     8.14366  85.44428  93.58794
           X           -0.40331   0.91506   0.00000
           Y            0.91506   0.40331   0.00000
           Z            0.00000   0.00000   1.00000
 This molecule is an asymmetric top.
 Rotational symmetry number  1.
 Rotational temperatures (Kelvin)     10.63574     1.01369     0.92548
 Rotational constants (GHZ):         221.61291    21.12185    19.28391
    1 imaginary frequencies ignored.
 Zero-point vibrational energy      13590.3 (Joules/Mol)
                                    3.24817 (Kcal/Mol)
 Warning -- explicit consideration of   1 degrees of freedom as
           vibrations may cause significant error
 Vibrational temperatures:      6.76  3262.32
          (Kelvin)

 Zero-point correction=                           0.005176 (Hartree/Particle)
 Thermal correction to Energy=                    0.008943
 Thermal correction to Enthalpy=                  0.009887
 Thermal correction to Gibbs Free Energy=        -0.021345
 Sum of electronic and zero-point Energies=              0.079134
 Sum of electronic and thermal Energies=                 0.082900
 Sum of electronic and thermal Enthalpies=               0.083845
 Sum of electronic and thermal Free Energies=            0.052613

                     E (Thermal)             CV                S
                      KCal/Mol        Cal/Mol-Kelvin    Cal/Mol-Kelvin
 Total                    5.612              7.953             65.733
 Electronic               0.000              0.000              1.377
 Translational            0.889              2.981             36.028
 Rotational               0.889              2.981             18.816
 Vibrational              3.834              1.991              9.512
 Vibration     1          0.593              1.987              9.511

 Optimization completed on the basis of negligible forces.
    -- Stationary point found.
 Normal termination of Gaussian 16 at Wed Oct 21 14:29:29 2020.
