 Gaussian 16, Revision A.03,

 ----------------------------------------------------------------------
 #P Opt(TS,MaxCyc=50,NoEigenTest,MaxStep=10,AddRedundant) AM1 5D 7F Int
 egral=UltraFineGrid SCF=(NoSymm,XQC,MaxCyc=120) IOp(1/33=1)
 ----------------------------------------------------------------------

 TstMul:  Mul=     2
 TstMul:  ICh=     0
 TstMul:  Mul=     2
 Symbolic Z-matrix:
 Charge =  0 Multiplicity = 2

 SCF Done:  E(UAM1) =  0.308718187803E-01 A.U. after   18 cycles
 SCF Done:  E(UAM1) =  0.305537798222E-01 A.U. after   11 cycles
 SCF Done:  E(UAM1) =  0.305782193261E-01 A.U. after   11 cycles
 SCF Done:  E(UAM1) =  0.224223027063E-01 A.U. after   13 cycles
 SCF Done:  E(UAM1) =  0.147761746013E-01 A.U. after   13 cycles
 SCF Done:  E(UAM1) =  0.853113243878E-02 A.U. after   13 cycles
 SCF Done:  E(UAM1) =  0.437334221941E-02 A.U. after   13 cycles
 SCF Done:  E(UAM1) =  0.271245388959E-02 A.U. after   13 cycles
 SCF Done:  E(UAM1) =  0.303616552833E-02 A.U. after   13 cycles
 SCF Done:  E(UAM1) =  0.322959052065E-02 A.U. after   13 cycles
 SCF Done:  E(UAM1) =  0.299887460378E-02 A.U. after   13 cycles
 SCF Done:  E(UAM1) =  0.260852869572E-02 A.U. after   14 cycles
 SCF Done:  E(UAM1) =  0.217292124626E-02 A.U. after   14 cycles
 SCF Done:  E(UAM1) =  0.179689835376E-02 A.U. after   14 cycles
 SCF Done:  E(UAM1) =  0.160523545502E-02 A.U. after   13 cycles
 SCF Done:  E(UAM1) =  0.162232359781E-02 A.U. after   13 cycles
 SCF Done:  E(UAM1) =  0.160724684197E-02 A.U. after   13 cycles
 SCF Done:  E(UAM1) =  0.160692669275E-02 A.U. after   11 cycles
 Optimization completed.
    -- Stationary point found.
 Normal termination of Gaussian 16 at Wed Oct 28 14:21:44 2020.
 Gaussian 16:  ES64L-G16RevA.03 25-Dec-2016

 ----------------------------------------------------------------------
 #P Freq AM1 5D 7F Integral=UltraFineGrid SCF=(NoSymm,XQC,MaxCyc=120) I
 Op(1/33=1) Geom=Check Guess=Read
 ----------------------------------------------------------------------

 TstMul:  Mul=     2
 TstMul:  ICh=     0
 TstMul:  Mul=     2
 Structure from the checkpoint file:  "MN_53_hfch3ts_BH76_AM1_SE.chk"
 Charge =  0 Multiplicity = 2

                         Standard orientation:
 ---------------------------------------------------------------------
 Center     Atomic      Atomic             Coordinates (Angstroms)
 Number     Number       Type             X           Y           Z
 ---------------------------------------------------------------------
      1          1           0        0.633560    1.656343    0.000000
      2          9           0       -0.035170    0.676903    0.000000
      3          6           0       -0.035170   -0.741841    0.000000
      4          1           0        1.021158   -1.101505    0.000000
      5          1           0       -0.563587   -1.097960    0.916840
      6          1           0       -0.563587   -1.097960   -0.916840
 ---------------------------------------------------------------------

 SCF Done:  E(UAM1) =  0.160692669277E-02 A.U. after    2 cycles

 The electronic state is 2-A'.
 Alpha  occ. eigenvalues --   -1.82693  -1.04739  -0.68494  -0.62006  -0.61788
 Alpha  occ. eigenvalues --   -0.47067  -0.46248  -0.27091
 Alpha virt. eigenvalues --    0.13855   0.14336   0.14500   0.16507
  Beta  occ. eigenvalues --   -1.81033  -1.03209  -0.66484  -0.60884  -0.60475
  Beta  occ. eigenvalues --   -0.46039  -0.45478
  Beta virt. eigenvalues --    0.09927   0.14932   0.15003   0.16053   0.21569

 Mulliken charges and spin densities:
               1          2
     1  H   -0.067608   0.681902
     2  F   -0.032857   0.078351
     3  C   -0.134907   0.256530
     4  H    0.078792  -0.017204
     5  H    0.078290   0.000211
     6  H    0.078290   0.000211
 Sum of Mulliken charges =  -0.00000   1.00000

 Dipole moment (field-independent basis, Debye):
    X=             -0.0826    Y=             -1.4205    Z=              0.0000  Tot=              1.4229
 N-N= 4.704862004148D+01 E-N=-4.298813416061D+01  KE=-3.946860724328D+01
  Exact polarizability:  11.709   7.414  32.971   0.000   0.000   9.555
 Approx polarizability:   6.381   3.092  14.913   0.000   0.000   5.268
 Leave Link  601 at Wed Oct 28 14:21:46 2020, MaxMem=  2684354560 cpu:               0.3 elap:               0.1
 (Enter /udrive/faculty/rpeverati/g16/g16/l701.exe)
 ... and contract with generalized density number  0.
 Compute integral second derivatives.
 Leave Link  701 at Wed Oct 28 14:21:46 2020, MaxMem=  2684354560 cpu:               0.9 elap:               0.1
 (Enter /udrive/faculty/rpeverati/g16/g16/l702.exe)
 L702 exits ... SP integral derivatives will be done elsewhere.

 ******    2 imaginary frequencies (negative Signs) ******

                      1                      2                      3
                     A'                     A"                     A'
 Frequencies --  -1841.6788               -62.4558               453.5582
 Red. masses --      1.1767                 1.1252                 1.1227
 Frc consts  --      2.3514                 0.0026                 0.1361
 IR Inten    --   2158.2369                 0.2246                 2.8493

                      4                      5                      6
                     A"                     A'                     A'
 Frequencies --   1116.2381              1131.6959              1274.1262
 Red. masses --      1.2387                 1.2653                 3.0143
 Frc consts  --      0.9093                 0.9548                 2.8831
 IR Inten    --      0.0321                 3.3797                 2.1512

                      7                      8                      9
                     A'                     A"                     A'
 Frequencies --   1365.7643              1368.4007              1436.1359
 Red. masses --      1.0669                 1.0713                 1.2973
 Frc consts  --      1.1726                 1.1820                 1.5765
 IR Inten    --      0.4530                 0.1800                 3.0104

                     10                     11                     12
                     A"                     A'                     A'
 Frequencies --   3061.6533              3065.1617              3138.1979
 Red. masses --      1.0921                 1.0913                 1.0229
 Frc consts  --      6.0317                 6.0409                 5.9354
 IR Inten    --      0.0513                 0.3852                 3.1313

 - Thermochemistry -
 -------------------
 Temperature   298.150 Kelvin.  Pressure   1.00000 Atm.
 Atom     1 has atomic number  1 and mass   1.00783

 Molecular mass:    35.02970 amu.
 Principal axes and moments of inertia in atomic units:
                           1         2         3
     Eigenvalues --    13.43048  83.30571  84.63496
           X            0.05470   0.99850   0.00000
           Y            0.99850  -0.05470   0.00000
           Z            0.00000   0.00000   1.00000
 This molecule is an asymmetric top.
 Rotational symmetry number  1.
 Rotational temperatures (Kelvin)      6.44905     1.03971     1.02338
 Rotational constants (GHZ):         134.37648    21.66408    21.32383
    2 imaginary frequencies ignored.
 Zero-point vibrational energy     104140.5 (Joules/Mol)
                                   24.89018 (Kcal/Mol)
 Warning -- explicit consideration of   1 degrees of freedom as
           vibrations may cause significant error
 Vibrational temperatures:    652.57  1606.02  1628.26  1833.18  1965.03
          (Kelvin)           1968.82  2066.28  4405.04  4410.08  4515.17

 Zero-point correction=                           0.039665 (Hartree/Particle)
 Thermal correction to Energy=                    0.042840
 Thermal correction to Enthalpy=                  0.043784
 Thermal correction to Gibbs Free Energy=         0.016159
 Sum of electronic and zero-point Energies=              0.041272
 Sum of electronic and thermal Energies=                 0.044447
 Sum of electronic and thermal Enthalpies=               0.045391
 Sum of electronic and thermal Free Energies=            0.017766

                     E (Thermal)             CV                S
                      KCal/Mol        Cal/Mol-Kelvin    Cal/Mol-Kelvin
 Total                   26.882              8.327             58.142
 Electronic               0.000              0.000              1.377
 Translational            0.889              2.981             36.591
 Rotational               0.889              2.981             19.188
 Vibrational             25.105              2.365              0.985
 Vibration     1          0.812              1.353              0.785

 Optimization completed.
    -- Stationary point found.
 Normal termination of Gaussian 16 at Wed Oct 28 14:21:47 2020.
