 Gaussian 16, Revision A.03,
 Gaussian 16:  ES64L-G16RevA.03 25-Dec-2016

 ----------------------------------------------------------------------
 #P Opt(MaxCyc=150) AM1 5D 7F Integral=UltraFineGrid SCF=(NoSymm,XQC,Ma
 xCyc=120) IOp(1/33=1)
 ----------------------------------------------------------------------

 TstMul:  Mul=     2
 TstMul:  ICh=     0
 TstMul:  Mul=     2
 Symbolic Z-matrix:
 Charge =  0 Multiplicity = 2

 SCF Done:  E(UAM1) =  0.229469059082E-02 A.U. after   16 cycles
 SCF Done:  E(UAM1) = -0.274533534483E-02 A.U. after   15 cycles
 SCF Done:  E(UAM1) = -0.327935834000E-02 A.U. after   14 cycles
 SCF Done:  E(UAM1) = -0.328868430916E-02 A.U. after   12 cycles
 Optimization completed.
    -- Stationary point found.

                         Standard orientation:
 ---------------------------------------------------------------------
 Center     Atomic      Atomic             Coordinates (Angstroms)
 Number     Number       Type             X           Y           Z
 ---------------------------------------------------------------------
      1          1           0       -0.635023    1.421553    0.000000
      2          6           0        0.045359    0.579346    0.000000
      3          8           0        0.045359   -0.612204    0.000000
 ---------------------------------------------------------------------

 The electronic state is 2-A'.
 Alpha  occ. eigenvalues --   -1.47749  -0.89086  -0.64040  -0.58070  -0.56625
 Alpha  occ. eigenvalues --   -0.33508
 Alpha virt. eigenvalues --    0.02730   0.10942   0.21283
  Beta  occ. eigenvalues --   -1.45327  -0.85040  -0.61251  -0.55962  -0.52659
  Beta virt. eigenvalues --    0.04257   0.04631   0.12626   0.24533

 Mulliken charges and spin densities:
               1          2
     1  H    0.158838   0.111627
     2  C    0.011044   0.671527
     3  O   -0.169882   0.216846
 Sum of Mulliken charges =   0.00000   1.00000

 Dipole moment (field-independent basis, Debye):
    X=             -1.1534    Y=              1.6304    Z=              0.0000  Tot=              1.9971
 N-N= 2.827318703864D+01 E-N=-2.062538123837D+01  KE=-2.743440235921D+01
 Leave Link  601 at Wed Oct 21 14:17:22 2020, MaxMem=  2684354560 cpu:               1.6 elap:               0.8
 (Enter /udrive/faculty/rpeverati/g16/g16/l9999.exe)

 Test job not archived.
 1\1\GINC-NODE51\FOpt\UAM1\ZDO\C1H1O1(2)\RPEVERATI\21-Oct-2020\0\\#P Op
 t(MaxCyc=150) AM1 5D 7F Integral=UltraFineGrid SCF=(NoSymm,XQC,MaxCyc=
 120) IOp(1/33=1)\\TS search on BH76.\\0,2\H,-0.823755287,1.2945511339,
 0.\C,-0.0346864369,0.553199634,0.\O,0.1281094383,-0.6271770723,0.\\Ver
 sion=ES64L-G16RevA.03\State=2-A'\HF=-0.0032887\S2=0.753679\S2-1=0.\S2A

 Normal termination of Gaussian 16 at Wed Oct 21 14:17:24 2020.
