 Gaussian 16, Revision A.03,
 Gaussian 16:  ES64L-G16RevA.03 25-Dec-2016

 ----------------------------------------------------------------------
 #P Opt(MaxCyc=150) AM1 5D 7F Integral=UltraFineGrid SCF=(NoSymm,XQC,Ma
 xCyc=120) IOp(1/33=1)
 ----------------------------------------------------------------------

 TstMul:  Mul=     1
 TstMul:  ICh=     0
 TstMul:  Mul=     1
 Symbolic Z-matrix:
 Charge =  0 Multiplicity = 1

 SCF Done:  E(RAM1) = -0.110026721608     A.U. after    8 cycles
 SCF Done:  E(RAM1) = -0.117833513357     A.U. after    6 cycles
 SCF Done:  E(RAM1) = -0.118314966808     A.U. after    6 cycles
 Optimization completed.
    -- Stationary point found.

                         Standard orientation:
 ---------------------------------------------------------------------
 Center     Atomic      Atomic             Coordinates (Angstroms)
 Number     Number       Type             X           Y           Z
 ---------------------------------------------------------------------
      1          9           0        0.000000    0.000000    0.082613
      2          1           0        0.000000    0.000000   -0.743513
 ---------------------------------------------------------------------

 The electronic state is 1-SG.
 Alpha  occ. eigenvalues --   -1.82831  -0.63291  -0.51769  -0.51769
 Alpha virt. eigenvalues --    0.24637

 Mulliken charges:
               1
     1  F   -0.289008
     2  H    0.289008
 Sum of Mulliken charges =  -0.00000

 Dipole moment (field-independent basis, Debye):
    X=             -0.0000    Y=              0.0000    Z=             -1.7357  Tot=              1.7357
 N-N= 2.152253790536D+01 E-N=-4.943369859711D+00  KE=-3.134511909280D+01
 Leave Link  601 at Wed Oct 21 14:17:27 2020, MaxMem=  2684354560 cpu:               2.1 elap:               0.8
 (Enter /udrive/faculty/rpeverati/g16/g16/l9999.exe)

 Test job not archived.
 1\1\GINC-NODE61\FOpt\RAM1\ZDO\F1H1\RPEVERATI\21-Oct-2020\0\\#P Opt(Max
 Cyc=150) AM1 5D 7F Integral=UltraFineGrid SCF=(NoSymm,XQC,MaxCyc=120)
 IOp(1/33=1)\\TS search on BH76.\\0,1\F,0.,0.,0.0469099168\H,0.,0.,-0.7
 792160334\\Version=ES64L-G16RevA.03\State=1-SG\HF=-0.118315\RMSD=2.464
 e-10\RMSF=1.175e-04\Dipole=0.,0.,-0.6828629\PG=C*V [C*(H1F1)]\\@

 Normal termination of Gaussian 16 at Wed Oct 21 14:17:29 2020.
