 Gaussian 16, Revision A.03,
 Gaussian 16:  ES64L-G16RevA.03 25-Dec-2016

 ----------------------------------------------------------------------
 #P Opt(MaxCyc=150) AM1 5D 7F Integral=UltraFineGrid SCF=(NoSymm,XQC,Ma
 xCyc=120) IOp(1/33=1)
 ----------------------------------------------------------------------

 TstMul:  Mul=     2
 TstMul:  ICh=     0
 TstMul:  Mul=     2
 Symbolic Z-matrix:
 Charge =  0 Multiplicity = 2

 SCF Done:  E(UAM1) =  0.705683140109E-01 A.U. after   17 cycles
 SCF Done:  E(UAM1) =  0.666434786245E-01 A.U. after   15 cycles
 SCF Done:  E(UAM1) =  0.659082906879E-01 A.U. after   15 cycles
 SCF Done:  E(UAM1) =  0.659073262682E-01 A.U. after   12 cycles
 Optimization completed.
    -- Stationary point found.

                         Standard orientation:
 ---------------------------------------------------------------------
 Center     Atomic      Atomic             Coordinates (Angstroms)
 Number     Number       Type             X           Y           Z
 ---------------------------------------------------------------------
      1          7           0       -0.050756    0.658569    0.000000
      2          7           0       -0.050756   -0.493242    0.000000
      3          1           0        0.710588   -1.157294    0.000000
 ---------------------------------------------------------------------

 The electronic state is 2-A'.
 Alpha  occ. eigenvalues --   -1.47063  -0.91219  -0.64801  -0.55617  -0.55266
 Alpha  occ. eigenvalues --   -0.34847
 Alpha virt. eigenvalues --    0.03799   0.11409   0.25144
  Beta  occ. eigenvalues --   -1.44439  -0.87427  -0.58912  -0.54403  -0.50665
  Beta virt. eigenvalues --    0.02705   0.05411   0.13748   0.28590

 Mulliken charges and spin densities:
               1          2
     1  N   -0.056340   0.691339
     2  N   -0.137217   0.142676
     3  H    0.193557   0.165985
 Sum of Mulliken charges =  -0.00000   1.00000

 Dipole moment (field-independent basis, Debye):
    X=              1.4934    Y=             -1.4667    Z=             -0.0000  Tot=              2.0932
 N-N= 2.795848625896D+01 E-N=-2.202239530750D+01  KE=-2.531617498801D+01
 Leave Link  601 at Wed Oct 21 14:18:01 2020, MaxMem=  2684354560 cpu:               2.1 elap:               0.8
 (Enter /udrive/faculty/rpeverati/g16/g16/l9999.exe)

 Test job not archived.
 1\1\GINC-NODE62\FOpt\UAM1\ZDO\H1N2(2)\RPEVERATI\21-Oct-2020\0\\#P Opt(
 MaxCyc=150) AM1 5D 7F Integral=UltraFineGrid SCF=(NoSymm,XQC,MaxCyc=12
 0) IOp(1/33=1)\\TS search on BH76.\\0,2\N,-0.1180167172,0.6711700973,0
 .\N,0.0167568243,-0.4727286836,0.\H,0.8505716484,-1.0431341863,0.\\Ver
 sion=ES64L-G16RevA.03\State=2-A'\HF=0.0659073\S2=0.755891\S2-1=0.\S2A=

 Normal termination of Gaussian 16 at Wed Oct 21 14:18:03 2020.
