 Gaussian 16, Revision A.03,

 ----------------------------------------------------------------------
 #P Opt(TS,MaxCyc=50,NoEigenTest,MaxStep=10,AddRedundant) AM1 5D 7F Int
 egral=UltraFineGrid SCF=(NoSymm,XQC,MaxCyc=120) IOp(1/33=1)
 ----------------------------------------------------------------------

 TstMul:  Mul=     2
 TstMul:  ICh=     0
 TstMul:  Mul=     2
 Symbolic Z-matrix:
 Charge =  0 Multiplicity = 2

 SCF Done:  E(UAM1) =  0.162914285680     A.U. after    8 cycles
 SCF Done:  E(UAM1) =  0.252284819138E-01 A.U. after   31 cycles
 SCF Done:  E(UAM1) =  0.252284819138E-01 A.U. after    9 cycles
 SCF Done:  E(UAM1) =  0.243344337295E-01 A.U. after    9 cycles
 SCF Done:  E(UAM1) =  0.204194792067E-01 A.U. after    7 cycles
 SCF Done:  E(UAM1) =  0.141485704792E-01 A.U. after    7 cycles
 SCF Done:  E(UAM1) =  0.885366070527E-02 A.U. after    7 cycles
 SCF Done:  E(UAM1) =  0.506815110885E-02 A.U. after    7 cycles
 SCF Done:  E(UAM1) =  0.351780191011E-02 A.U. after    7 cycles
 SCF Done:  E(UAM1) =  0.351502111410E-02 A.U. after    6 cycles
 Optimization completed.
    -- Stationary point found.
 Normal termination of Gaussian 16 at Wed Oct 28 14:22:02 2020.
 Gaussian 16:  ES64L-G16RevA.03 25-Dec-2016

 ----------------------------------------------------------------------
 #P Freq AM1 5D 7F Integral=UltraFineGrid SCF=(NoSymm,XQC,MaxCyc=120) I
 Op(1/33=1) Geom=Check Guess=Read
 ----------------------------------------------------------------------

 TstMul:  Mul=     2
 TstMul:  ICh=     0
 TstMul:  Mul=     2
 Structure from the checkpoint file:  "MN_54_hfhts_BH76_AM1_SE.chk"
 Charge =  0 Multiplicity = 2

                         Standard orientation:
 ---------------------------------------------------------------------
 Center     Atomic      Atomic             Coordinates (Angstroms)
 Number     Number       Type             X           Y           Z
 ---------------------------------------------------------------------
      1          1           0        0.000000    0.000000    0.957873
      2          9           0        0.000000    0.000000    0.000000
      3          1           0        0.000000    0.000000   -0.957873
 ---------------------------------------------------------------------

 SCF Done:  E(UAM1) =  0.351502111412E-02 A.U. after    2 cycles

 The electronic state is 2-SGG.
 Alpha  occ. eigenvalues --   -1.87588  -0.79695  -0.56100  -0.56100  -0.21148
 Alpha virt. eigenvalues --    0.20250
  Beta  occ. eigenvalues --   -1.85831  -0.77044  -0.53799  -0.53799
  Beta virt. eigenvalues --    0.16015   0.28604

 Mulliken charges and spin densities:
               1          2
     1  H    0.026136   0.459296
     2  F   -0.052272   0.081408
     3  H    0.026136   0.459296
 Sum of Mulliken charges =   0.00000   1.00000

 Dipole moment (field-independent basis, Debye):
    X=             -0.0000    Y=             -0.0000    Z=              0.0000  Tot=              0.0000
 N-N= 2.493395430225D+01 E-N=-1.104349834603D+01  KE=-3.110634497573D+01
  Exact polarizability:   0.153   0.000   0.153  -0.000  -0.000  33.965
 Approx polarizability:   0.069   0.000   0.069  -0.000  -0.000  10.934
 Leave Link  601 at Wed Oct 28 14:22:05 2020, MaxMem=  2684354560 cpu:               0.6 elap:               0.1
 (Enter /udrive/faculty/rpeverati/g16/g16/l701.exe)
 ... and contract with generalized density number  0.
 Compute integral second derivatives.
 Leave Link  701 at Wed Oct 28 14:22:05 2020, MaxMem=  2684354560 cpu:               1.1 elap:               0.1
 (Enter /udrive/faculty/rpeverati/g16/g16/l702.exe)
 L702 exits ... SP integral derivatives will be done elsewhere.

 ******    1 imaginary frequencies (negative Signs) ******

                      1                      2                      3
                     SGU                    PIU                    PIU
 Frequencies --  -2558.6768                50.2617                50.2617
 Red. masses --      1.1085                 1.1085                 1.1085
 Frc consts  --      4.2758                 0.0016                 0.0016
 IR Inten    --  14277.8134                25.6473                25.6473

                      4
                     SGG
 Frequencies --   2906.4976
 Red. masses --      1.0078
 Frc consts  --      5.0162
 IR Inten    --      0.0000

 - Thermochemistry -
 -------------------
 Temperature   298.150 Kelvin.  Pressure   1.00000 Atm.
 Atom     1 has atomic number  1 and mass   1.00783

 Molecular mass:    21.01405 amu.
 Principal axes and moments of inertia in atomic units:
                           1         2         3
     Eigenvalues --     0.00000   6.60433   6.60433
           X           -0.00000   0.70711   0.70711
           Y           -0.00000   0.70711  -0.70711
           Z            1.00000   0.00000   0.00000
 This molecule is a prolate symmetric top.
 Rotational symmetry number  2.
 Rotational temperature (Kelvin)     13.11473
 Rotational constant (GHZ):         273.266545
    1 imaginary frequencies ignored.
 Zero-point vibrational energy      17986.0 (Joules/Mol)
                                    4.29875 (Kcal/Mol)
 Warning -- explicit consideration of   2 degrees of freedom as
           vibrations may cause significant error
 Vibrational temperatures:     72.32    72.32  4181.80
          (Kelvin)

 Zero-point correction=                           0.006850 (Hartree/Particle)
 Thermal correction to Energy=                    0.010880
 Thermal correction to Enthalpy=                  0.011824
 Thermal correction to Gibbs Free Energy=        -0.013300
 Sum of electronic and zero-point Energies=              0.010366
 Sum of electronic and thermal Energies=                 0.014395
 Sum of electronic and thermal Enthalpies=               0.015339
 Sum of electronic and thermal Free Energies=           -0.009785

                     E (Thermal)             CV                S
                      KCal/Mol        Cal/Mol-Kelvin    Cal/Mol-Kelvin
 Total                    6.827              8.923             52.877
 Electronic               0.000              0.000              1.377
 Translational            0.889              2.981             35.068
 Rotational               0.592              1.987              6.818
 Vibrational              5.346              3.955              9.614
 Vibration     1          0.595              1.977              4.807
 Vibration     2          0.595              1.977              4.807

 Optimization completed.
    -- Stationary point found.
 Normal termination of Gaussian 16 at Wed Oct 28 14:22:05 2020.
