 Gaussian 16, Revision A.03,

 ----------------------------------------------------------------------
 #P Opt(TS,MaxCyc=50,NoEigenTest,MaxStep=10,AddRedundant) AM1 5D 7F Int
 egral=UltraFineGrid SCF=(NoSymm,XQC,MaxCyc=120) IOp(1/33=1)
 ----------------------------------------------------------------------

 TstMul:  Mul=     2
 TstMul:  ICh=     0
 TstMul:  Mul=     2
 Symbolic Z-matrix:
 Charge =  0 Multiplicity = 2

 SCF Done:  E(UAM1) =  0.104473692799     A.U. after   19 cycles
 SCF Done:  E(UAM1) =  0.105581786052     A.U. after   16 cycles
 SCF Done:  E(UAM1) =  0.106402980861     A.U. after   15 cycles
 SCF Done:  E(UAM1) =  0.106963822854     A.U. after   16 cycles
 SCF Done:  E(UAM1) =  0.107203023645     A.U. after   15 cycles
 SCF Done:  E(UAM1) =  0.107229655403     A.U. after   15 cycles
 SCF Done:  E(UAM1) =  0.107230743711     A.U. after   14 cycles
 SCF Done:  E(UAM1) =  0.107230425801     A.U. after   12 cycles
 SCF Done:  E(UAM1) =  0.107229519114     A.U. after   13 cycles
 SCF Done:  E(UAM1) =  0.107229690950     A.U. after   13 cycles
 Optimization completed.
    -- Stationary point found.
 Normal termination of Gaussian 16 at Wed Oct 21 14:18:27 2020.
 Gaussian 16:  ES64L-G16RevA.03 25-Dec-2016

 ----------------------------------------------------------------------
 #P Freq AM1 5D 7F Integral=UltraFineGrid SCF=(NoSymm,XQC,MaxCyc=120) I
 Op(1/33=1) Geom=Check Guess=Read
 ----------------------------------------------------------------------

 TstMul:  Mul=     2
 TstMul:  ICh=     0
 TstMul:  Mul=     2
 Structure from the checkpoint file:  "MN_59_hn2ts_BH76_AM1_SE.chk"
 Charge =  0 Multiplicity = 2

                         Standard orientation:
 ---------------------------------------------------------------------
 Center     Atomic      Atomic             Coordinates (Angstroms)
 Number     Number       Type             X           Y           Z
 ---------------------------------------------------------------------
      1          7           0        0.078882   -0.664705    0.000000
      2          7           0        0.078882    0.445672    0.000000
      3          1           0       -1.104348    1.533230    0.000000
 ---------------------------------------------------------------------

 SCF Done:  E(UAM1) =  0.107229690950     A.U. after    2 cycles

 The electronic state is 2-A'.
 Alpha  occ. eigenvalues --   -1.51813  -0.80713  -0.61455  -0.59427  -0.54808
 Alpha  occ. eigenvalues --   -0.36713
 Alpha virt. eigenvalues --    0.03329   0.03578   0.22028
  Beta  occ. eigenvalues --   -1.51407  -0.79414  -0.59605  -0.59147  -0.53426
  Beta virt. eigenvalues --    0.00887   0.03674   0.09330   0.23120

 Mulliken charges and spin densities:
               1          2
     1  N   -0.006371   0.161760
     2  N    0.018851  -0.040169
     3  H   -0.012480   0.878410
 Sum of Mulliken charges =   0.00000   1.00000

 Dipole moment (field-independent basis, Debye):
    X=             -0.0620    Y=              0.0543    Z=              0.0000  Tot=              0.0824
 N-N= 2.740864927421D+01 E-N=-2.125486369014D+01  KE=-2.486868216243D+01
  Exact polarizability:   6.868  -5.339  20.886  -0.000  -0.000   2.348
 Approx polarizability:   3.854  -2.832  20.241  -0.000   0.000   1.722
 Leave Link  601 at Wed Oct 21 14:18:54 2020, MaxMem=  2684354560 cpu:               1.7 elap:               0.6
 (Enter /udrive/faculty/rpeverati/g16/g16/l701.exe)
 ... and contract with generalized density number  0.
 Compute integral second derivatives.
 Leave Link  701 at Wed Oct 21 14:18:55 2020, MaxMem=  2684354560 cpu:               3.2 elap:               0.7
 (Enter /udrive/faculty/rpeverati/g16/g16/l702.exe)
 L702 exits ... SP integral derivatives will be done elsewhere.

 ******    1 imaginary frequencies (negative Signs) ******

                      1                      2                      3
                     A'                     A'                     A'
 Frequencies --   -949.3284               340.9914              2657.5669
 Red. masses --      1.0550                 1.4574                12.9797
 Frc consts  --      0.5602                 0.0998                54.0109
 IR Inten    --     93.4303                 3.9974                41.5580

 - Thermochemistry -
 -------------------
 Temperature   298.150 Kelvin.  Pressure   1.00000 Atm.
 Atom     1 has atomic number  7 and mass  14.00307

 Molecular mass:    29.01397 amu.
 Principal axes and moments of inertia in atomic units:
                           1         2         3
     Eigenvalues --     3.61736  41.44833  45.06570
           X           -0.18151   0.98339   0.00000
           Y            0.98339   0.18151   0.00000
           Z            0.00000   0.00000   1.00000
 This molecule is an asymmetric top.
 Rotational symmetry number  1.
 Rotational temperatures (Kelvin)     23.94394     2.08968     1.92195
 Rotational constants (GHZ):         498.91083    43.54195    40.04690
    1 imaginary frequencies ignored.
 Zero-point vibrational energy      17935.4 (Joules/Mol)
                                    4.28665 (Kcal/Mol)
 Warning -- explicit consideration of   1 degrees of freedom as
           vibrations may cause significant error
 Vibrational temperatures:    490.61  3823.65
          (Kelvin)

 Zero-point correction=                           0.006831 (Hartree/Particle)
 Thermal correction to Energy=                    0.010035
 Thermal correction to Enthalpy=                  0.010979
 Thermal correction to Gibbs Free Energy=        -0.015238
 Sum of electronic and zero-point Energies=              0.114061
 Sum of electronic and thermal Energies=                 0.117265
 Sum of electronic and thermal Enthalpies=               0.118209
 Sum of electronic and thermal Free Energies=            0.091992

                     E (Thermal)             CV                S
                      KCal/Mol        Cal/Mol-Kelvin    Cal/Mol-Kelvin
 Total                    6.297              7.556             55.179
 Electronic               0.000              0.000              1.377
 Translational            0.889              2.981             36.030
 Rotational               0.889              2.981             16.565
 Vibrational              4.520              1.594              1.208
 Vibration     1          0.721              1.594              1.208

 Optimization completed.
    -- Stationary point found.
 Normal termination of Gaussian 16 at Wed Oct 21 14:19:00 2020.
