 Gaussian 16, Revision A.03,

 ----------------------------------------------------------------------
 #P Opt(TS,MaxCyc=50,NoEigenTest,MaxStep=10,AddRedundant) AM1 5D 7F Int
 egral=UltraFineGrid SCF=(NoSymm,XQC,MaxCyc=120) IOp(1/33=1)
 ----------------------------------------------------------------------

 TstMul:  Mul=     2
 TstMul:  ICh=     0
 TstMul:  Mul=     2
 Symbolic Z-matrix:
 Charge =  0 Multiplicity = 2

 SCF Done:  E(UAM1) =  0.131848280741     A.U. after   23 cycles
 SCF Done:  E(UAM1) =  0.124257679739     A.U. after   19 cycles
 SCF Done:  E(UAM1) =  0.130988009534     A.U. after   19 cycles
 SCF Done:  E(UAM1) =  0.134103198717     A.U. after   20 cycles
 SCF Done:  E(UAM1) =  0.135147958593     A.U. after   20 cycles
 SCF Done:  E(UAM1) =  0.135515790764     A.U. after   20 cycles
 SCF Done:  E(UAM1) =  0.135736138341     A.U. after   19 cycles
 SCF Done:  E(UAM1) =  0.135755251958     A.U. after   17 cycles
 SCF Done:  E(UAM1) =  0.135753568568     A.U. after   16 cycles
 SCF Done:  E(UAM1) =  0.135752347376     A.U. after   16 cycles
 SCF Done:  E(UAM1) =  0.135752139264     A.U. after   15 cycles
 Optimization completed.
    -- Stationary point found.
 Normal termination of Gaussian 16 at Wed Oct 21 14:20:42 2020.
 Gaussian 16:  ES64L-G16RevA.03 25-Dec-2016

 ----------------------------------------------------------------------
 #P Freq AM1 5D 7F Integral=UltraFineGrid SCF=(NoSymm,XQC,MaxCyc=120) I
 Op(1/33=1) Geom=Check Guess=Read
 ----------------------------------------------------------------------

 TstMul:  Mul=     2
 TstMul:  ICh=     0
 TstMul:  Mul=     2
 Structure from the checkpoint file:  "MN_68_n2ohts_BH76_AM1_SE.chk"
 Charge =  0 Multiplicity = 2

                         Standard orientation:
 ---------------------------------------------------------------------
 Center     Atomic      Atomic             Coordinates (Angstroms)
 Number     Number       Type             X           Y           Z
 ---------------------------------------------------------------------
      1          1           0       -0.010375   -2.248214    0.000000
      2          8           0       -0.589125   -0.845594    0.000000
      3          7           0        0.000000    0.190877    0.000000
      4          7           0        0.674767    1.096690    0.000000
 ---------------------------------------------------------------------

 SCF Done:  E(UAM1) =  0.135752139264     A.U. after    2 cycles

 The electronic state is 2-A'.
 Alpha  occ. eigenvalues --   -1.56817  -1.42370  -0.87902  -0.70523  -0.69861
 Alpha  occ. eigenvalues --   -0.65026  -0.47808  -0.44836  -0.34370
 Alpha virt. eigenvalues --    0.00915   0.01471   0.05728   0.28710
  Beta  occ. eigenvalues --   -1.56573  -1.41896  -0.87376  -0.69926  -0.69734
  Beta  occ. eigenvalues --   -0.63494  -0.45791  -0.44538
  Beta virt. eigenvalues --   -0.00146   0.01913   0.05247   0.10732   0.29854

 Mulliken charges and spin densities:
               1          2
     1  H   -0.003584   0.822513
     2  O   -0.240207  -0.040136
     3  N    0.306378  -0.020562
     4  N   -0.062587   0.238186
 Sum of Mulliken charges =   0.00000   1.00000

 Dipole moment (field-independent basis, Debye):
    X=              0.3314    Y=              0.4083    Z=              0.0000  Tot=              0.5259
 N-N= 5.722644342488D+01 E-N=-5.574930517024D+01  KE=-4.444367450011D+01
  Exact polarizability:  11.994  13.030  48.212   0.000   0.000   2.614
 Approx polarizability:  14.732  18.634  42.047   0.000   0.000   1.823
 Leave Link  601 at Wed Oct 21 14:21:19 2020, MaxMem=  2684354560 cpu:               4.7 elap:               1.1
 (Enter /udrive/faculty/rpeverati/g16/g16/l701.exe)
 ... and contract with generalized density number  0.
 Compute integral second derivatives.
 Leave Link  701 at Wed Oct 21 14:21:21 2020, MaxMem=  2684354560 cpu:               5.3 elap:               1.4
 (Enter /udrive/faculty/rpeverati/g16/g16/l702.exe)
 L702 exits ... SP integral derivatives will be done elsewhere.

 ******    1 imaginary frequencies (negative Signs) ******

                      1                      2                      3
                     A'                     A'                     A"
 Frequencies --  -1612.3346               319.9041               500.1584
 Red. masses --      1.1332                 1.4825                10.3573
 Frc consts  --      1.7357                 0.0894                 1.5265
 IR Inten    --    467.7509                 3.9488                10.9140

                      4                      5                      6
                     A'                     A'                     A'
 Frequencies --    584.8125              1501.2086              2571.2335
 Red. masses --      3.2643                 9.4357                13.6972
 Frc consts  --      0.6578                12.5287                53.3538
 IR Inten    --     20.8076                64.7205               556.8614

 - Thermochemistry -
 -------------------
 Temperature   298.150 Kelvin.  Pressure   1.00000 Atm.
 Atom     1 has atomic number  1 and mass   1.00783

 Molecular mass:    45.00889 amu.
 Principal axes and moments of inertia in atomic units:
                           1         2         3
     Eigenvalues --     5.32829 157.86491 163.19321
           X            0.49427   0.86931   0.00000
           Y            0.86931  -0.49427   0.00000
           Z            0.00000   0.00000   1.00000
 This molecule is an asymmetric top.
 Rotational symmetry number  1.
 Rotational temperatures (Kelvin)     16.25547     0.54866     0.53074
 Rotational constants (GHZ):         338.70904    11.43219    11.05892
    1 imaginary frequencies ignored.
 Zero-point vibrational energy      32761.6 (Joules/Mol)
                                    7.83022 (Kcal/Mol)
 Warning -- explicit consideration of   3 degrees of freedom as
           vibrations may cause significant error
 Vibrational temperatures:    460.27   719.62   841.41  2159.90  3699.43
          (Kelvin)

 Zero-point correction=                           0.012478 (Hartree/Particle)
 Thermal correction to Energy=                    0.016104
 Thermal correction to Enthalpy=                  0.017048
 Thermal correction to Gibbs Free Energy=        -0.011806
 Sum of electronic and zero-point Energies=              0.148230
 Sum of electronic and thermal Energies=                 0.151856
 Sum of electronic and thermal Enthalpies=               0.152800
 Sum of electronic and thermal Free Energies=            0.123946

                     E (Thermal)             CV                S
                      KCal/Mol        Cal/Mol-Kelvin    Cal/Mol-Kelvin
 Total                   10.105              9.987             60.729
 Electronic               0.000              0.000              1.377
 Translational            0.889              2.981             37.338
 Rotational               0.889              2.981             19.557
 Vibrational              8.328              4.025              2.457
 Vibration     1          0.706              1.635              1.311
 Vibration     2          0.856              1.250              0.658
 Vibration     3          0.942              1.064              0.477

 Optimization completed.
    -- Stationary point found.
 Normal termination of Gaussian 16 at Wed Oct 21 14:21:33 2020.
