 Gaussian 16, Revision A.03,

 ----------------------------------------------------------------------
 #P Opt(TS,MaxCyc=50,NoEigenTest,MaxStep=10,AddRedundant) AM1 5D 7F Int
 egral=UltraFineGrid SCF=(NoSymm,XQC,MaxCyc=120) IOp(1/33=1)
 ----------------------------------------------------------------------

 TstMul:  Mul=     1
 TstMul:  ICh=    -1
 TstMul:  Mul=     1
 Symbolic Z-matrix:
 Charge = -1 Multiplicity = 1

 SCF Done:  E(RAM1) = -0.678246222880E-01 A.U. after   13 cycles
 SCF Done:  E(RAM1) = -0.754488395654E-01 A.U. after   11 cycles
 SCF Done:  E(RAM1) = -0.715228640612E-01 A.U. after   12 cycles
 SCF Done:  E(RAM1) = -0.700652123605E-01 A.U. after   12 cycles
 SCF Done:  E(RAM1) = -0.685797370239E-01 A.U. after   12 cycles
 SCF Done:  E(RAM1) = -0.672644958629E-01 A.U. after   12 cycles
 SCF Done:  E(RAM1) = -0.660943743770E-01 A.U. after   12 cycles
 SCF Done:  E(RAM1) = -0.650746686525E-01 A.U. after   12 cycles
 SCF Done:  E(RAM1) = -0.642493465891E-01 A.U. after   11 cycles
 SCF Done:  E(RAM1) = -0.637610001617E-01 A.U. after   11 cycles
 SCF Done:  E(RAM1) = -0.642348939816E-01 A.U. after   11 cycles
 SCF Done:  E(RAM1) = -0.640723836049E-01 A.U. after   11 cycles
 SCF Done:  E(RAM1) = -0.640627749835E-01 A.U. after   10 cycles
 SCF Done:  E(RAM1) = -0.643423855506E-01 A.U. after   11 cycles
 SCF Done:  E(RAM1) = -0.644086735975E-01 A.U. after   12 cycles
 SCF Done:  E(RAM1) = -0.644400324551E-01 A.U. after   11 cycles
 SCF Done:  E(RAM1) = -0.642502167054E-01 A.U. after   11 cycles
 SCF Done:  E(RAM1) = -0.644400121685E-01 A.U. after   11 cycles
 SCF Done:  E(RAM1) = -0.644435156966E-01 A.U. after   10 cycles
 Optimization completed.
    -- Stationary point found.
 Normal termination of Gaussian 16 at Wed Oct 21 14:23:40 2020.
 Gaussian 16:  ES64L-G16RevA.03 25-Dec-2016

 ----------------------------------------------------------------------
 #P Freq AM1 5D 7F Integral=UltraFineGrid SCF=(NoSymm,XQC,MaxCyc=120) I
 Op(1/33=1) Geom=Check Guess=Read
 ----------------------------------------------------------------------

 TstMul:  Mul=     1
 TstMul:  ICh=    -1
 TstMul:  Mul=     1
 Structure from the checkpoint file:  "MN_63_hoch3fts_BH76_AM1_SE.chk"
 Charge = -1 Multiplicity = 1

                         Standard orientation:
 ---------------------------------------------------------------------
 Center     Atomic      Atomic             Coordinates (Angstroms)
 Number     Number       Type             X           Y           Z
 ---------------------------------------------------------------------
      1          9           0        1.767897   -0.015037   -0.000001
      2          6           0       -0.066173    0.013283   -0.000000
      3          1           0        0.039726    1.118877    0.001668
      4          1           0        0.026784   -0.540762   -0.958637
      5          1           0        0.026751   -0.543589    0.957003
      6          8           0       -1.696750    0.101039   -0.000009
      7          1           0       -2.033299   -0.787198    0.000047
 ---------------------------------------------------------------------

 SCF Done:  E(RAM1) = -0.644435156965E-01 A.U. after    2 cycles

 The electronic state is 1-A.
 Alpha  occ. eigenvalues --   -1.27249  -1.07498  -0.76641  -0.40561  -0.33130
 Alpha  occ. eigenvalues --   -0.30973  -0.26625  -0.19313  -0.14131  -0.13968
 Alpha  occ. eigenvalues --   -0.09636
 Alpha virt. eigenvalues --    0.34825   0.36936   0.38246   0.38448   0.44479

 Mulliken charges:
               1
     1  F   -0.758740
     2  C    0.162670
     3  H    0.065013
     4  H    0.037228
     5  H    0.037182
     6  O   -0.652657
     7  H    0.109305
 Sum of Mulliken charges =  -1.00000

 Dipole moment (field-independent basis, Debye):
    X=             -2.2794    Y=             -1.1123    Z=              0.0001  Tot=              2.5363
 N-N= 7.530927830076D+01 E-N=-7.818574615363D+01  KE=-6.256721158411D+01
  Exact polarizability:  37.496   2.225  13.500  -0.000  -0.000   9.754
 Approx polarizability:  26.964   0.748   8.134  -0.000  -0.000   5.277
 Leave Link  601 at Wed Oct 21 14:24:11 2020, MaxMem=  2684354560 cpu:               5.3 elap:               1.2
 (Enter /udrive/faculty/rpeverati/g16/g16/l701.exe)
 ... and contract with generalized density number  0.
 Compute integral second derivatives.
 Leave Link  701 at Wed Oct 21 14:24:13 2020, MaxMem=  2684354560 cpu:               6.8 elap:               1.3
 (Enter /udrive/faculty/rpeverati/g16/g16/l702.exe)
 L702 exits ... SP integral derivatives will be done elsewhere.

 ******    1 imaginary frequencies (negative Signs) ******

                      1                      2                      3
                      A                      A                      A
 Frequencies --   -840.6142               235.8200               352.2888
 Red. masses --     11.8807                 1.0559                 3.4883
 Frc consts  --      4.9464                 0.0346                 0.2551
 IR Inten    --   1589.8368                45.2745                24.0578

                      4                      5                      6
                      A                      A                      A
 Frequencies --    374.4492               428.2077              1150.6147
 Red. masses --      4.0797                10.4950                 1.0764
 Frc consts  --      0.3370                 1.1338                 0.8396
 IR Inten    --     43.3981                56.8636                 3.3093

                      7                      8                      9
                      A                      A                      A
 Frequencies --   1306.9502              1319.2621              1418.0196
 Red. masses --      1.1700                 1.2037                 1.0227
 Frc consts  --      1.1775                 1.2343                 1.2116
 IR Inten    --      6.7788                12.2248                 6.8549

                     10                     11                     12
                      A                      A                      A
 Frequencies --   1435.7149              1524.6175              3091.6792
 Red. masses --      1.0491                 1.0668                 1.1023
 Frc consts  --      1.2740                 1.4609                 6.2079
 IR Inten    --      4.3104                32.2850                29.5300

                     13                     14                     15
                      A                      A                      A
 Frequencies --   3092.2053              3114.3354              3626.4306
 Red. masses --      1.0392                 1.0700                 1.0650
 Frc consts  --      5.8542                 6.1145                 8.2518
 IR Inten    --      8.9611                 4.3764                 5.4122

 - Thermochemistry -
 -------------------
 Temperature   298.150 Kelvin.  Pressure   1.00000 Atm.
 Atom     1 has atomic number  9 and mass  18.99840

 Molecular mass:    51.02462 amu.
 Principal axes and moments of inertia in atomic units:
                           1         2         3
     Eigenvalues --    15.92926 397.30710 400.02913
           X            0.99988   0.01575  -0.00000
           Y           -0.01575   0.99988   0.00001
           Z            0.00000  -0.00001   1.00000
 This molecule is an asymmetric top.
 Rotational symmetry number  1.
 Rotational temperatures (Kelvin)      5.43741     0.21800     0.21652
 Rotational constants (GHZ):         113.29725     4.54243     4.51152
    1 imaginary frequencies ignored.
 Zero-point vibrational energy     134404.0 (Joules/Mol)
                                   32.12333 (Kcal/Mol)
 Warning -- explicit consideration of   4 degrees of freedom as
           vibrations may cause significant error
 Vibrational temperatures:    339.29   506.86   538.75   616.10  1655.48
          (Kelvin)           1880.41  1898.12  2040.21  2065.67  2193.58
                             4448.24  4448.99  4480.83  5217.62

 Zero-point correction=                           0.051192 (Hartree/Particle)
 Thermal correction to Energy=                    0.055567
 Thermal correction to Enthalpy=                  0.056511
 Thermal correction to Gibbs Free Energy=         0.025520
 Sum of electronic and zero-point Energies=             -0.013252
 Sum of electronic and thermal Energies=                -0.008876
 Sum of electronic and thermal Enthalpies=              -0.007932
 Sum of electronic and thermal Free Energies=           -0.038923

                     E (Thermal)             CV                S
                      KCal/Mol        Cal/Mol-Kelvin    Cal/Mol-Kelvin
 Total                   34.869             13.037             65.227
 Electronic               0.000              0.000              0.000
 Translational            0.889              2.981             37.712
 Rotational               0.889              2.981             22.453
 Vibrational             33.091              7.075              5.061
 Vibration     1          0.655              1.786              1.834
 Vibration     2          0.729              1.571              1.156
 Vibration     3          0.746              1.525              1.062
 Vibration     4          0.790              1.409              0.865

 Optimization completed.
    -- Stationary point found.
 Normal termination of Gaussian 16 at Wed Oct 21 14:24:24 2020.
