 Gaussian 16, Revision A.03,
 Gaussian 16:  ES64L-G16RevA.03 25-Dec-2016

 ----------------------------------------------------------------------
 #P Opt(MaxCyc=150) AM1 5D 7F Integral=UltraFineGrid SCF=(NoSymm,XQC,Ma
 xCyc=120) IOp(1/33=1)
 ----------------------------------------------------------------------

 TstMul:  Mul=     2
 TstMul:  ICh=     0
 TstMul:  Mul=     2
 Symbolic Z-matrix:
 Charge =  0 Multiplicity = 2

 SCF Done:  E(UAM1) =  0.630022778806E-01 A.U. after   10 cycles
 SCF Done:  E(UAM1) =  0.628755098199E-01 A.U. after    8 cycles
 SCF Done:  E(UAM1) =  0.628443684090E-01 A.U. after    8 cycles
 Optimization completed.
    -- Stationary point found.

                         Standard orientation:
 ---------------------------------------------------------------------
 Center     Atomic      Atomic             Coordinates (Angstroms)
 Number     Number       Type             X           Y           Z
 ---------------------------------------------------------------------
      1         16           0        0.000000    0.000000    0.077405
      2          1           0        0.000000    0.000000   -1.238477
 ---------------------------------------------------------------------

 Unable to determine electronic state:  partially filled degenerate orbitals.
 Alpha  occ. eigenvalues --   -0.70377  -0.50872  -0.45384  -0.37087
 Alpha virt. eigenvalues --    0.03956
  Beta  occ. eigenvalues --   -0.64808  -0.44780  -0.32504
  Beta virt. eigenvalues --   -0.08056   0.05704

 Mulliken charges and spin densities:
               1          2
     1  S   -0.036536   1.094795
     2  H    0.036536  -0.094795
 Sum of Mulliken charges =   0.00000   1.00000

 Dipole moment (field-independent basis, Debye):
    X=              0.0000    Y=             -0.0000    Z=             -1.2765  Tot=              1.2765
 N-N= 9.562529020292D+00 E-N=-3.461757207795D+00  KE=-1.207948964798D+01
 Leave Link  601 at Wed Oct 21 14:17:27 2020, MaxMem=  2684354560 cpu:               3.6 elap:               0.7
 (Enter /udrive/faculty/rpeverati/g16/g16/l9999.exe)

 Test job not archived.
 1\1\GINC-NODE59\FOpt\UAM1\ZDO\H1S1(2)\RPEVERATI\21-Oct-2020\0\\#P Opt(
 MaxCyc=150) AM1 5D 7F Integral=UltraFineGrid SCF=(NoSymm,XQC,MaxCyc=12
 0) IOp(1/33=1)\\TS search on BH76.\\0,2\S,0.,0.,0.0666745035\H,0.,0.,-
 1.249207237\\Version=ES64L-G16RevA.03\HF=0.0628444\S2=0.759048\S2-1=0.
 \S2A=0.75\RMSD=2.942e-11\RMSF=3.344e-06\Dipole=0.,0.,-0.5022286\PG=C*V

 Normal termination of Gaussian 16 at Wed Oct 21 14:17:29 2020.
