 Gaussian 16, Revision A.03,
 Gaussian 16:  ES64L-G16RevA.03 25-Dec-2016

 ----------------------------------------------------------------------
 #P Opt(MaxCyc=150) AM1 5D 7F Integral=UltraFineGrid SCF=(NoSymm,XQC,Ma
 xCyc=120) IOp(1/33=1)
 ----------------------------------------------------------------------

 TstMul:  Mul=     1
 TstMul:  ICh=    -1
 TstMul:  Mul=     1
 Symbolic Z-matrix:
 Charge = -1 Multiplicity = 1

 SCF Done:  E(RAM1) = -0.131708457693     A.U. after   12 cycles
 SCF Done:  E(RAM1) = -0.135683917056     A.U. after   11 cycles
 SCF Done:  E(RAM1) = -0.135981759977     A.U. after   11 cycles
 SCF Done:  E(RAM1) = -0.136011059840     A.U. after   10 cycles
 SCF Done:  E(RAM1) = -0.136026382141     A.U. after   10 cycles
 SCF Done:  E(RAM1) = -0.136047458915     A.U. after   11 cycles
 SCF Done:  E(RAM1) = -0.136111616102     A.U. after   12 cycles
 SCF Done:  E(RAM1) = -0.136303913797     A.U. after   11 cycles
 SCF Done:  E(RAM1) = -0.136724751254     A.U. after   13 cycles
 SCF Done:  E(RAM1) = -0.136372655253     A.U. after   12 cycles
 SCF Done:  E(RAM1) = -0.151238667393     A.U. after   12 cycles
 SCF Done:  E(RAM1) = -0.151281957020     A.U. after   11 cycles
 SCF Done:  E(RAM1) = -0.151346769006     A.U. after   11 cycles
 SCF Done:  E(RAM1) = -0.151449979853     A.U. after   10 cycles
 SCF Done:  E(RAM1) = -0.151462596252     A.U. after   11 cycles
 SCF Done:  E(RAM1) = -0.151473390169     A.U. after   12 cycles
 SCF Done:  E(RAM1) = -0.151485838267     A.U. after   11 cycles
 SCF Done:  E(RAM1) = -0.151494439214     A.U. after   11 cycles
 SCF Done:  E(RAM1) = -0.151496874130     A.U. after   10 cycles
 SCF Done:  E(RAM1) = -0.151498250850     A.U. after   11 cycles
 Optimization completed.
    -- Stationary point found.

                         Standard orientation:
 ---------------------------------------------------------------------
 Center     Atomic      Atomic             Coordinates (Angstroms)
 Number     Number       Type             X           Y           Z
 ---------------------------------------------------------------------
      1          9           0        1.363284   -0.557457   -0.000733
      2          6           0        0.642340    0.615497    0.000828
      3          1           0        0.905997    1.210235   -0.904833
      4          1           0       -0.895849    0.304416   -0.002398
      5          1           0        0.904974    1.207019    0.908859
      6          8           0       -1.905651   -0.050171   -0.001051
      7          1           0       -1.793517   -0.996173    0.008411
 ---------------------------------------------------------------------

 The electronic state is 1-A.
 Alpha  occ. eigenvalues --   -1.53631  -1.06043  -0.71015  -0.40203  -0.35833
 Alpha  occ. eigenvalues --   -0.35422  -0.33177  -0.27993  -0.20568  -0.19322
 Alpha  occ. eigenvalues --   -0.05497
 Alpha virt. eigenvalues --    0.39984   0.40596   0.41829   0.44379   0.47737

 Mulliken charges:
               1
     1  F   -0.259716
     2  C   -0.512820
     3  H   -0.030760
     4  H    0.301786
     5  H   -0.030752
     6  O   -0.595987
     7  H    0.128249
 Sum of Mulliken charges =  -1.00000

 Dipole moment (field-independent basis, Debye):
    X=              1.3421    Y=             -1.1871    Z=              0.0102  Tot=              1.7918
 N-N= 7.464879095874D+01 E-N=-7.692618301144D+01  KE=-6.170028030016D+01
 Leave Link  601 at Wed Oct 21 14:38:06 2020, MaxMem=  2684354560 cpu:               5.8 elap:               1.6
 (Enter /udrive/faculty/rpeverati/g16/g16/l9999.exe)

 Test job not archived.
 1\1\GINC-NODE55\FOpt\RAM1\ZDO\C1H4F1O1(1-)\RPEVERATI\21-Oct-2020\0\\#P
  Opt(MaxCyc=150) AM1 5D 7F Integral=UltraFineGrid SCF=(NoSymm,XQC,MaxC
 yc=120) IOp(1/33=1)\\TS search on BH76.\\-1,1\F,1.0940062076,0.4479180
 088,0.7809324549\C,0.4102099514,0.0561026149,-0.3479993366\H,0.7734146
 031,-0.948578472,-0.6676053528\H,-1.12946412,-0.0098953348,-0.05159238

 Normal termination of Gaussian 16 at Wed Oct 21 14:38:09 2020.
