 Gaussian 16, Revision A.03,
 Gaussian 16:  ES64L-G16RevA.03 25-Dec-2016

 ----------------------------------------------------------------------
 #P Opt(MaxCyc=150) AM1 5D 7F Integral=UltraFineGrid SCF=(NoSymm,XQC,Ma
 xCyc=120) IOp(1/33=1)
 ----------------------------------------------------------------------

 TstMul:  Mul=     1
 TstMul:  ICh=    -1
 TstMul:  Mul=     1
 Symbolic Z-matrix:
 Charge = -1 Multiplicity = 1

 SCF Done:  E(RAM1) = -0.132533387740     A.U. after   13 cycles
 SCF Done:  E(RAM1) = -0.137002428800     A.U. after   12 cycles
 SCF Done:  E(RAM1) = -0.144576695442     A.U. after   11 cycles
 SCF Done:  E(RAM1) = -0.177909644668     A.U. after   12 cycles
 SCF Done:  E(RAM1) = -0.190685426080     A.U. after   12 cycles
 SCF Done:  E(RAM1) = -0.178835107385     A.U. after   12 cycles
 SCF Done:  E(RAM1) = -0.199594009583     A.U. after   12 cycles
 SCF Done:  E(RAM1) = -0.202130515929     A.U. after   12 cycles
 SCF Done:  E(RAM1) = -0.202484694508     A.U. after   12 cycles
 SCF Done:  E(RAM1) = -0.204718971163     A.U. after   12 cycles
 SCF Done:  E(RAM1) = -0.204902147778     A.U. after   11 cycles
 SCF Done:  E(RAM1) = -0.204924779082     A.U. after   11 cycles
 SCF Done:  E(RAM1) = -0.204945682621     A.U. after   11 cycles
 SCF Done:  E(RAM1) = -0.204958213194     A.U. after   10 cycles
 SCF Done:  E(RAM1) = -0.205000129703     A.U. after   12 cycles
 SCF Done:  E(RAM1) = -0.205016612366     A.U. after   11 cycles
 SCF Done:  E(RAM1) = -0.205017828618     A.U. after    9 cycles
 SCF Done:  E(RAM1) = -0.205017940142     A.U. after    9 cycles
 Optimization completed.
    -- Stationary point found.

                         Standard orientation:
 ---------------------------------------------------------------------
 Center     Atomic      Atomic             Coordinates (Angstroms)
 Number     Number       Type             X           Y           Z
 ---------------------------------------------------------------------
      1          6           0       -1.471838   -0.337643   -0.000006
      2          8           0       -0.621118    0.670125    0.000009
      3          1           0       -2.569609   -0.020077   -0.008657
      4          1           0       -1.367532   -1.038275   -0.899614
      5          1           0       -1.379032   -1.028663    0.908246
      6          1           0        1.187590    0.069097   -0.000006
      7          9           0        1.992062   -0.146359   -0.000000
 ---------------------------------------------------------------------

 The electronic state is 1-A.
 Alpha  occ. eigenvalues --   -1.62668  -1.06214  -0.69271  -0.44547  -0.33039
 Alpha  occ. eigenvalues --   -0.33037  -0.31016  -0.30959  -0.28997  -0.09989
 Alpha  occ. eigenvalues --   -0.09818
 Alpha virt. eigenvalues --    0.38414   0.38989   0.38999   0.46310   0.51692

 Mulliken charges:
               1
     1  C    0.145933
     2  O   -0.784093
     3  H   -0.108135
     4  H   -0.116573
     5  H   -0.116541
     6  H    0.335068
     7  F   -0.355660
 Sum of Mulliken charges =  -1.00000

 Dipole moment (field-independent basis, Debye):
    X=              1.8204    Y=             -1.4947    Z=             -0.0003  Tot=              2.3554
 N-N= 7.378157181474D+01 E-N=-7.493836108142D+01  KE=-6.184375577362D+01
 Leave Link  601 at Wed Oct 21 14:19:53 2020, MaxMem=  2684354560 cpu:               1.7 elap:               0.6
 (Enter /udrive/faculty/rpeverati/g16/g16/l9999.exe)

 Test job not archived.
 1\1\GINC-NODE06\FOpt\RAM1\ZDO\C1H4F1O1(1-)\RPEVERATI\21-Oct-2020\0\\#P
  Opt(MaxCyc=150) AM1 5D 7F Integral=UltraFineGrid SCF=(NoSymm,XQC,MaxC
 yc=120) IOp(1/33=1)\\TS search on BH76.\\-1,1\C,-1.4540912134,-0.37230
 41491,-0.0003146482\O,-0.6806386675,0.6959106415,0.0027271564\H,-2.572
 4324362,-0.1371966535,-0.0081242897\H,-1.2981137004,-1.0606031931,-0.9

 Normal termination of Gaussian 16 at Wed Oct 21 14:19:55 2020.
