 Gaussian 16, Revision A.03,
 Gaussian 16:  ES64L-G16RevA.03 25-Dec-2016

 ----------------------------------------------------------------------
 #P Opt(MaxCyc=150) AM1 5D 7F Integral=UltraFineGrid SCF=(NoSymm,XQC,Ma
 xCyc=120) IOp(1/33=1)
 ----------------------------------------------------------------------

 TstMul:  Mul=     1
 TstMul:  ICh=     0
 TstMul:  Mul=     1
 Symbolic Z-matrix:
 Charge =  0 Multiplicity = 1

 SCF Done:  E(RAM1) =  0.457050032580E-01 A.U. after   12 cycles
 SCF Done:  E(RAM1) =  0.453197775203E-01 A.U. after   10 cycles
 SCF Done:  E(RAM1) =  0.453158498125E-01 A.U. after    8 cycles
 Optimization completed.
    -- Stationary point found.

                         Standard orientation:
 ---------------------------------------------------------------------
 Center     Atomic      Atomic             Coordinates (Angstroms)
 Number     Number       Type             X           Y           Z
 ---------------------------------------------------------------------
      1          7           0        0.000000    0.000000   -1.196199
      2          7           0        0.000000    0.000000   -0.068481
      3          8           0        0.000000    0.000000    1.106596
 ---------------------------------------------------------------------

 The electronic state is 1-SG.
 Alpha  occ. eigenvalues --   -1.58379  -1.43301  -0.86281  -0.70867  -0.70867
 Alpha  occ. eigenvalues --   -0.63786  -0.44423  -0.44423
 Alpha virt. eigenvalues --    0.01551   0.01551   0.05451   0.29053

 Mulliken charges:
               1
     1  N   -0.076458
     2  N    0.356676
     3  O   -0.280218
 Sum of Mulliken charges =  -0.00000

 Dipole moment (field-independent basis, Debye):
    X=              0.0000    Y=              0.0000    Z=             -0.6371  Tot=              0.6371
 N-N= 5.337290822444D+01 E-N=-4.897706238785D+01  KE=-4.403160460666D+01
 Leave Link  601 at Wed Oct 21 14:17:40 2020, MaxMem=  2684354560 cpu:               2.5 elap:               1.1
 (Enter /udrive/faculty/rpeverati/g16/g16/l9999.exe)

 Test job not archived.
 1\1\GINC-NODE59\FOpt\RAM1\ZDO\N2O1\RPEVERATI\21-Oct-2020\0\\#P Opt(Max
 Cyc=150) AM1 5D 7F Integral=UltraFineGrid SCF=(NoSymm,XQC,MaxCyc=120)
 IOp(1/33=1)\\TS search on BH76.\\0,1\N,0.,0.,-1.1964537375\N,0.,0.,-0.
 0687354374\O,0.,0.,1.106341289\\Version=ES64L-G16RevA.03\State=1-SG\HF
 =0.0453158\RMSD=2.026e-09\RMSF=7.343e-05\Dipole=0.,0.,-0.2506549\PG=C*

 Normal termination of Gaussian 16 at Wed Oct 21 14:17:41 2020.
