 Gaussian 16, Revision A.03,
 Gaussian 16:  ES64L-G16RevA.03 25-Dec-2016

 ----------------------------------------------------------------------
 #P Opt(MaxCyc=150) AM1 5D 7F Integral=UltraFineGrid SCF=(NoSymm,XQC,Ma
 xCyc=120) IOp(1/33=1)
 ----------------------------------------------------------------------

 TstMul:  Mul=     1
 TstMul:  ICh=     0
 TstMul:  Mul=     1
 Symbolic Z-matrix:
 Charge =  0 Multiplicity = 1

 SCF Done:  E(RAM1) =  0.785895034669E-01 A.U. after   11 cycles
 SCF Done:  E(RAM1) =  0.778108022600E-01 A.U. after    9 cycles
 SCF Done:  E(RAM1) =  0.778015857891E-01 A.U. after    8 cycles
 Optimization completed.
    -- Stationary point found.

                         Standard orientation:
 ---------------------------------------------------------------------
 Center     Atomic      Atomic             Coordinates (Angstroms)
 Number     Number       Type             X           Y           Z
 ---------------------------------------------------------------------
      1          6           0        0.000000    0.000000   -0.742359
      2          7           0        0.000000    0.000000    0.435901
      3          1           0        0.000000    0.000000    1.402848
 ---------------------------------------------------------------------

 The electronic state is 1-SG.
 Alpha  occ. eigenvalues --   -1.35164  -0.83186  -0.50028  -0.50028  -0.46210
 Alpha virt. eigenvalues --    0.07705   0.07705   0.10836   0.27685

 Mulliken charges:
               1
     1  C    0.118844
     2  N   -0.391927
     3  H    0.273083
 Sum of Mulliken charges =   0.00000

 Dipole moment (field-independent basis, Debye):
    X=              0.0000    Y=             -0.0000    Z=              2.3668  Tot=              2.3668
 N-N= 2.277442984198D+01 E-N=-1.753424616812D+01  KE=-2.056671256479D+01
 Leave Link  601 at Wed Oct 21 14:17:21 2020, MaxMem=  2684354560 cpu:               3.3 elap:               0.8
 (Enter /udrive/faculty/rpeverati/g16/g16/l9999.exe)

 Test job not archived.
 1\1\GINC-NODE63\FOpt\RAM1\ZDO\C1H1N1\RPEVERATI\21-Oct-2020\0\\#P Opt(M
 axCyc=150) AM1 5D 7F Integral=UltraFineGrid SCF=(NoSymm,XQC,MaxCyc=120
 ) IOp(1/33=1)\\TS search on BH76.\\0,1\C,0.,0.,-0.7358958899\N,0.,0.,0
 .4423639849\H,0.,0.,1.4093115792\\Version=ES64L-G16RevA.03\State=1-SG\
 HF=0.0778016\RMSD=1.420e-09\RMSF=1.190e-04\Dipole=0.,0.,0.9311673\PG=C

 Normal termination of Gaussian 16 at Wed Oct 21 14:17:22 2020.
