 Gaussian 16, Revision A.03,
 Gaussian 16:  ES64L-G16RevA.03 25-Dec-2016

 ----------------------------------------------------------------------
 #P Opt(MaxCyc=150) AM1 5D 7F Integral=UltraFineGrid SCF=(NoSymm,XQC,Ma
 xCyc=120) IOp(1/33=1)
 ----------------------------------------------------------------------

 TstMul:  Mul=     3
 TstMul:  ICh=     0
 TstMul:  Mul=     3
 Symbolic Z-matrix:
 Charge =  0 Multiplicity = 3

 SCF Done:  E(UAM1) =  0.123856595658     A.U. after   10 cycles
 SCF Done:  E(UAM1) =  0.122093969771     A.U. after    8 cycles
 SCF Done:  E(UAM1) =  0.122079614205     A.U. after    8 cycles
 Optimization completed.
    -- Stationary point found.

                         Standard orientation:
 ---------------------------------------------------------------------
 Center     Atomic      Atomic             Coordinates (Angstroms)
 Number     Number       Type             X           Y           Z
 ---------------------------------------------------------------------
      1          7           0        0.000000    0.000000    0.123358
      2          1           0        0.000000    0.000000   -0.863505
 ---------------------------------------------------------------------

 The electronic state is 3-SG.
 Alpha  occ. eigenvalues --   -1.14764  -0.54016  -0.46773  -0.46773
 Alpha virt. eigenvalues --    0.15609
  Beta  occ. eigenvalues --   -0.95752  -0.47639
  Beta virt. eigenvalues --    0.03863   0.03863   0.19252

 Mulliken charges and spin densities:
               1          2
     1  N   -0.082346   2.065842
     2  H    0.082346  -0.065842
 Sum of Mulliken charges =  -0.00000   2.00000

 Dipole moment (field-independent basis, Debye):
    X=              0.0000    Y=              0.0000    Z=             -1.3344  Tot=              1.3344
 N-N= 1.014037470231D+01 E-N=-3.413886542510D+00  KE=-1.256554437357D+01
 Leave Link  601 at Wed Oct 21 14:17:50 2020, MaxMem=  2684354560 cpu:               2.4 elap:               1.0
 (Enter /udrive/faculty/rpeverati/g16/g16/l9999.exe)

 Test job not archived.
 1\1\GINC-NODE55\FOpt\UAM1\ZDO\H1N1(3)\RPEVERATI\21-Oct-2020\0\\#P Opt(
 MaxCyc=150) AM1 5D 7F Integral=UltraFineGrid SCF=(NoSymm,XQC,MaxCyc=12
 0) IOp(1/33=1)\\TS search on BH76.\\0,3\N,0.,0.,0.104656239\H,0.,0.,-0
 .8822070071\\Version=ES64L-G16RevA.03\State=3-SG\HF=0.1220796\S2=2.005
 844\S2-1=0.\S2A=2.\RMSD=1.595e-12\RMSF=5.653e-07\Dipole=0.,0.,-0.52500

 Normal termination of Gaussian 16 at Wed Oct 21 14:17:53 2020.
