 Gaussian 16, Revision A.03,
 Gaussian 16:  ES64L-G16RevA.03 25-Dec-2016

 ----------------------------------------------------------------------
 #P Opt(MaxCyc=150) AM1 5D 7F Integral=UltraFineGrid SCF=(NoSymm,XQC,Ma
 xCyc=120) IOp(1/33=1)
 ----------------------------------------------------------------------

 TstMul:  Mul=     1
 TstMul:  ICh=     0
 TstMul:  Mul=     1
 Symbolic Z-matrix:
 Charge =  0 Multiplicity = 1

 SCF Done:  E(RAM1) =  0.180343022003E-01 A.U. after    6 cycles
 SCF Done:  E(RAM1) =  0.177752337488E-01 A.U. after    5 cycles
 SCF Done:  E(RAM1) =  0.177705429273E-01 A.U. after    4 cycles
 Optimization completed.
    -- Stationary point found.

                         Standard orientation:
 ---------------------------------------------------------------------
 Center     Atomic      Atomic             Coordinates (Angstroms)
 Number     Number       Type             X           Y           Z
 ---------------------------------------------------------------------
      1          7           0        0.000000    0.000000    0.552827
      2          7           0        0.000000    0.000000   -0.552827
 ---------------------------------------------------------------------

 The electronic state is 1-SGG.
 Alpha  occ. eigenvalues --   -1.52119  -0.78755  -0.59506  -0.59506  -0.52636
 Alpha virt. eigenvalues --    0.03685   0.03685   0.22165

 Mulliken charges:
               1
     1  N   -0.000000
     2  N    0.000000
 Sum of Mulliken charges =  -0.00000

 Dipole moment (field-independent basis, Debye):
    X=              0.0000    Y=             -0.0000    Z=             -0.0000  Tot=              0.0000
 N-N= 2.455930259671D+01 E-N=-1.660069234224D+01  KE=-2.443194430479D+01
 Leave Link  601 at Wed Oct 21 14:17:27 2020, MaxMem=  2684354560 cpu:               1.8 elap:               0.6
 (Enter /udrive/faculty/rpeverati/g16/g16/l9999.exe)

 Test job not archived.
 1\1\GINC-NODE58\FOpt\RAM1\ZDO\N2\RPEVERATI\21-Oct-2020\0\\#P Opt(MaxCy
 c=150) AM1 5D 7F Integral=UltraFineGrid SCF=(NoSymm,XQC,MaxCyc=120) IO
 p(1/33=1)\\TS search on BH76.\\0,1\N,0.,0.,0.5528273062\N,0.,0.,-0.552
 8273062\\Version=ES64L-G16RevA.03\State=1-SGG\HF=0.0177705\RMSD=2.475e
 -09\RMSF=3.163e-08\Dipole=0.,0.,0.\PG=D*H [C*(N1.N1)]\\@

 Normal termination of Gaussian 16 at Wed Oct 21 14:17:28 2020.
