 Gaussian 16, Revision A.03,
 Gaussian 16:  ES64L-G16RevA.03 25-Dec-2016

 ----------------------------------------------------------------------
 #P Opt(MaxCyc=150) AM1 5D 7F Integral=UltraFineGrid SCF=(NoSymm,XQC,Ma
 xCyc=120) IOp(1/33=1)
 ----------------------------------------------------------------------

 TstMul:  Mul=     1
 TstMul:  ICh=    -1
 TstMul:  Mul=     1
 Symbolic Z-matrix:
 Charge = -1 Multiplicity = 1

 SCF Done:  E(RAM1) = -0.222164038564E-01 A.U. after    8 cycles
 SCF Done:  E(RAM1) = -0.224728866711E-01 A.U. after    6 cycles
 SCF Done:  E(RAM1) = -0.224816591850E-01 A.U. after    5 cycles
 Optimization completed.
    -- Stationary point found.

                         Standard orientation:
 ---------------------------------------------------------------------
 Center     Atomic      Atomic             Coordinates (Angstroms)
 Number     Number       Type             X           Y           Z
 ---------------------------------------------------------------------
      1          8           0        0.000000    0.000000    0.104894
      2          1           0        0.000000    0.000000   -0.839149
 ---------------------------------------------------------------------

 The electronic state is 1-SG.
 Alpha  occ. eigenvalues --   -0.83910  -0.20259  -0.03226  -0.03226
 Alpha virt. eigenvalues --    0.58835

 Mulliken charges:
               1
     1  O   -1.020200
     2  H    0.020200
 Sum of Mulliken charges =  -1.00000

 Dipole moment (field-independent basis, Debye):
    X=              0.0000    Y=              0.0000    Z=             -1.2014  Tot=              1.2014
 N-N= 1.475710699704D+01 E-N=-4.809840419441D+00  KE=-2.253691552121D+01
 Leave Link  601 at Wed Oct 21 14:17:53 2020, MaxMem=  2684354560 cpu:               2.9 elap:               0.9
 (Enter /udrive/faculty/rpeverati/g16/g16/l9999.exe)

 Test job not archived.
 1\1\GINC-NODE56\FOpt\RAM1\ZDO\H1O1(1-)\RPEVERATI\21-Oct-2020\0\\#P Opt
 (MaxCyc=150) AM1 5D 7F Integral=UltraFineGrid SCF=(NoSymm,XQC,MaxCyc=1
 20) IOp(1/33=1)\\TS search on BH76.\\-1,1\O,0.,0.,0.097893262\H,0.,0.,
 -0.8461498381\\Version=ES64L-G16RevA.03\State=1-SG\HF=-0.0224817\RMSD=
 9.076e-09\RMSF=4.335e-07\Dipole=0.,0.,-0.4726516\PG=C*V [C*(H1O1)]\\@

 Normal termination of Gaussian 16 at Wed Oct 21 14:17:55 2020.
