 Gaussian 16, Revision A.03,
 Gaussian 16:  ES64L-G16RevA.03 25-Dec-2016

 ----------------------------------------------------------------------
 #P Opt(MaxCyc=150) AM1 5D 7F Integral=UltraFineGrid SCF=(NoSymm,XQC,Ma
 xCyc=120) IOp(1/33=1)
 ----------------------------------------------------------------------

 TstMul:  Mul=     2
 TstMul:  ICh=     0
 TstMul:  Mul=     2
 Symbolic Z-matrix:
 Charge =  0 Multiplicity = 2

 SCF Done:  E(UAM1) =  0.572272898704E-01 A.U. after   12 cycles
 SCF Done:  E(UAM1) =  0.543479165843E-01 A.U. after    9 cycles
 SCF Done:  E(UAM1) =  0.542791799764E-01 A.U. after   10 cycles
 SCF Done:  E(UAM1) =  0.542777554147E-01 A.U. after    8 cycles
 Optimization completed.
    -- Stationary point found.

                         Standard orientation:
 ---------------------------------------------------------------------
 Center     Atomic      Atomic             Coordinates (Angstroms)
 Number     Number       Type             X           Y           Z
 ---------------------------------------------------------------------
      1         15           0       -0.000000    0.000000    0.105818
      2          1           0       -0.000000    1.018019   -0.793635
      3          1           0       -0.000000   -1.018019   -0.793635
 ---------------------------------------------------------------------

 The electronic state is 2-B1.
 Alpha  occ. eigenvalues --   -0.74512  -0.48634  -0.41103  -0.35646
 Alpha virt. eigenvalues --    0.05086   0.06857
  Beta  occ. eigenvalues --   -0.72537  -0.48323  -0.39830
  Beta virt. eigenvalues --   -0.06630   0.05476   0.07128

 Mulliken charges and spin densities:
               1          2
     1  P   -0.054512   1.056023
     2  H    0.027256  -0.028012
     3  H    0.027256  -0.028012
 Sum of Mulliken charges =   0.00000   1.00000

 Dipole moment (field-independent basis, Debye):
    X=              0.0000    Y=             -0.0000    Z=             -2.0745  Tot=              2.0745
 N-N= 9.047978868225D+00 E-N=-6.171039556365D+00  KE=-8.210520547799D+00
 Leave Link  601 at Wed Oct 21 14:18:24 2020, MaxMem=  2684354560 cpu:               3.6 elap:               1.0
 (Enter /udrive/faculty/rpeverati/g16/g16/l9999.exe)

 Test job not archived.
 1\1\GINC-NODE56\FOpt\UAM1\ZDO\H2P1(2)\RPEVERATI\21-Oct-2020\0\\#P Opt(
 MaxCyc=150) AM1 5D 7F Integral=UltraFineGrid SCF=(NoSymm,XQC,MaxCyc=12
 0) IOp(1/33=1)\\TS search on BH76.\\0,2\P,0.,0.,0.0599025919\H,0.,1.01
 80186255,-0.8395500943\H,0.,-1.0180186255,-0.8395500943\\Version=ES64L
 -G16RevA.03\State=2-B1\HF=0.0542778\S2=0.751578\S2-1=0.\S2A=0.750001\R

 Normal termination of Gaussian 16 at Wed Oct 21 14:18:26 2020.
