 Gaussian 16, Revision A.03,

 ----------------------------------------------------------------------
 #P Opt(TS,MaxCyc=50,NoEigenTest,MaxStep=10,AddRedundant) AM1 5D 7F Int
 egral=UltraFineGrid SCF=(NoSymm,XQC,MaxCyc=120) IOp(1/33=1)
 ----------------------------------------------------------------------

 TstMul:  Mul=     2
 TstMul:  ICh=     0
 TstMul:  Mul=     2
 Symbolic Z-matrix:
 Charge =  0 Multiplicity = 2

 SCF Done:  E(UAM1) =  0.290641169405E-01 A.U. after   11 cycles
 SCF Done:  E(UAM1) =  0.280417405182E-01 A.U. after   10 cycles
 SCF Done:  E(UAM1) =  0.272517122667E-01 A.U. after   10 cycles
 SCF Done:  E(UAM1) =  0.267443918352E-01 A.U. after   10 cycles
 SCF Done:  E(UAM1) =  0.264933352056E-01 A.U. after   10 cycles
 SCF Done:  E(UAM1) =  0.264386939137E-01 A.U. after    9 cycles
 SCF Done:  E(UAM1) =  0.264371428324E-01 A.U. after    8 cycles
 Optimization completed.
    -- Stationary point found.
 Normal termination of Gaussian 16 at Wed Oct 21 14:19:42 2020.
 Gaussian 16:  ES64L-G16RevA.03 25-Dec-2016

 ----------------------------------------------------------------------
 #P Freq AM1 5D 7F Integral=UltraFineGrid SCF=(NoSymm,XQC,MaxCyc=120) I
 Op(1/33=1) Geom=Check Guess=Read
 ----------------------------------------------------------------------

 TstMul:  Mul=     2
 TstMul:  ICh=     0
 TstMul:  Mul=     2
 Structure from the checkpoint file:  "MN_78_RKT01_BH76_AM1_SE.chk"
 Charge =  0 Multiplicity = 2

                         Standard orientation:
 ---------------------------------------------------------------------
 Center     Atomic      Atomic             Coordinates (Angstroms)
 Number     Number       Type             X           Y           Z
 ---------------------------------------------------------------------
      1          1           0        0.000000    0.000000   -1.489455
      2         17           0        0.000000    0.000000    0.216948
      3          1           0        0.000000    0.000000   -2.198661
 ---------------------------------------------------------------------

 SCF Done:  E(UAM1) =  0.264371428324E-01 A.U. after    2 cycles

 The electronic state is 2-SG.
 Alpha  occ. eigenvalues --   -1.36342  -0.65814  -0.45077  -0.45077  -0.42856
 Alpha virt. eigenvalues --    0.13136
  Beta  occ. eigenvalues --   -1.29306  -0.60057  -0.43098  -0.43098
  Beta virt. eigenvalues --   -0.07574   0.14873

 Mulliken charges and spin densities:
               1          2
     1  H    0.050052  -0.046295
     2  Cl  -0.142856   0.809136
     3  H    0.092804   0.237159
 Sum of Mulliken charges =  -0.00000   1.00000

 Dipole moment (field-independent basis, Debye):
    X=              0.0000    Y=             -0.0000    Z=             -1.5596  Tot=              1.5596
 N-N= 1.853930668968D+01 E-N=-7.069748419956D+00  KE=-2.384875482255D+01
  Exact polarizability:   0.008  -0.000   0.008   0.000  -0.000  20.900
 Approx polarizability:   0.002  -0.000   0.002   0.000  -0.000  12.048
 Leave Link  601 at Wed Oct 21 14:20:10 2020, MaxMem=  2684354560 cpu:               3.9 elap:               0.9
 (Enter /udrive/faculty/rpeverati/g16/g16/l701.exe)
 ... and contract with generalized density number  0.
 Compute integral second derivatives.
 Leave Link  701 at Wed Oct 21 14:20:12 2020, MaxMem=  2684354560 cpu:               4.4 elap:               1.1
 (Enter /udrive/faculty/rpeverati/g16/g16/l702.exe)
 L702 exits ... SP integral derivatives will be done elsewhere.

 ******    2 imaginary frequencies (negative Signs) ******

                      1                      2                      3
                     PI                     PI                     SG
 Frequencies --   -459.3047              -459.3047               785.5354
 Red. masses --      1.0094                 1.0094                 1.0641
 Frc consts  --      0.1255                 0.1255                 0.3869
 IR Inten    --      0.0293                 0.0293               122.0713

                      4
                     SG
 Frequencies --   3729.3597
 Red. masses --      1.0079
 Frc consts  --      8.2590
 IR Inten    --    502.2373

 - Thermochemistry -
 -------------------
 Temperature   298.150 Kelvin.  Pressure   1.00000 Atm.
 Atom     1 has atomic number  1 and mass   1.00783

 Molecular mass:    36.98450 amu.
 Principal axes and moments of inertia in atomic units:
                           1         2         3
     Eigenvalues --     0.00000  29.81409  29.81409
           X            0.00000   0.00000   1.00000
           Y            0.00000   1.00000   0.00000
           Z            1.00000   0.00000   0.00000
 This molecule is a prolate symmetric top.
 Rotational symmetry number  1.
 Rotational temperature (Kelvin)      2.90513
 Rotational constant (GHZ):          60.533165
    2 imaginary frequencies ignored.
 Zero-point vibrational energy      27005.1 (Joules/Mol)
                                    6.45437 (Kcal/Mol)
 Vibrational temperatures:   1130.21  5365.72
          (Kelvin)

 Zero-point correction=                           0.010286 (Hartree/Particle)
 Thermal correction to Energy=                    0.012729
 Thermal correction to Enthalpy=                  0.013673
 Thermal correction to Gibbs Free Energy=        -0.009865
 Sum of electronic and zero-point Energies=              0.036723
 Sum of electronic and thermal Energies=                 0.039166
 Sum of electronic and thermal Enthalpies=               0.040110
 Sum of electronic and thermal Free Energies=            0.016572

                     E (Thermal)             CV                S
                      KCal/Mol        Cal/Mol-Kelvin    Cal/Mol-Kelvin
 Total                    7.987              5.643             49.540
 Electronic               0.000              0.000              1.377
 Translational            0.889              2.981             36.753
 Rotational               0.592              1.987             11.190
 Vibrational              6.506              0.675              0.219

 Optimization completed.
    -- Stationary point found.
 Normal termination of Gaussian 16 at Wed Oct 21 14:20:20 2020.
