 Gaussian 16, Revision A.03,
 Gaussian 16:  ES64L-G16RevA.03 25-Dec-2016

 ----------------------------------------------------------------------
 #P Opt(MaxCyc=150) AM1 5D 7F Integral=UltraFineGrid SCF=(NoSymm,XQC,Ma
 xCyc=120) IOp(1/33=1)
 ----------------------------------------------------------------------

 TstMul:  Mul=     1
 TstMul:  ICh=     0
 TstMul:  Mul=     1
 Symbolic Z-matrix:
 Charge =  0 Multiplicity = 1

 SCF Done:  E(RAM1) =  0.192981530289E-01 A.U. after   10 cycles
 SCF Done:  E(RAM1) =  0.162913242269E-01 A.U. after    8 cycles
 SCF Done:  E(RAM1) =  0.162224298037E-01 A.U. after    7 cycles
 SCF Done:  E(RAM1) =  0.162214047023E-01 A.U. after    6 cycles
 Optimization completed.
    -- Stationary point found.

                         Standard orientation:
 ---------------------------------------------------------------------
 Center     Atomic      Atomic             Coordinates (Angstroms)
 Number     Number       Type             X           Y           Z
 ---------------------------------------------------------------------
      1         15           0        0.000000    0.000000    0.115492
      2          1           0        0.000000    1.174056   -0.577462
      3          1           0        1.016762   -0.587028   -0.577462
      4          1           0       -1.016762   -0.587028   -0.577462
 ---------------------------------------------------------------------

 The electronic state is 1-A1.
 Alpha  occ. eigenvalues --   -0.78217  -0.47892  -0.47892  -0.38300
 Alpha virt. eigenvalues --    0.04827   0.07255   0.07255

 Mulliken charges:
               1
     1  P   -0.039605
     2  H    0.013202
     3  H    0.013202
     4  H    0.013202
 Sum of Mulliken charges =  -0.00000

 Dipole moment (field-independent basis, Debye):
    X=             -0.0000    Y=             -0.0000    Z=             -2.2921  Tot=              2.2921
 N-N= 1.155584677933D+01 E-N=-9.976184413684D+00  KE=-8.857028759172D+00
 Leave Link  601 at Wed Oct 21 14:18:16 2020, MaxMem=  2684354560 cpu:               2.6 elap:               0.6
 (Enter /udrive/faculty/rpeverati/g16/g16/l9999.exe)

 Test job not archived.
 1\1\GINC-NODE63\FOpt\RAM1\ZDO\H3P1\RPEVERATI\21-Oct-2020\0\\#P Opt(Max
 Cyc=150) AM1 5D 7F Integral=UltraFineGrid SCF=(NoSymm,XQC,MaxCyc=120)
 IOp(1/33=1)\\TS search on BH76.\\0,1\P,0.,0.,0.5196230669\H,0.58702775
 49,1.016761897,-0.1733316842\H,0.5870277549,-1.016761897,-0.1733316842
 \H,-1.1740555099,0.,-0.1733316842\\Version=ES64L-G16RevA.03\State=1-A1

 Normal termination of Gaussian 16 at Wed Oct 21 14:18:17 2020.
