 Gaussian 16, Revision A.03,

 ----------------------------------------------------------------------
 #P Opt(TS,MaxCyc=50,NoEigenTest,MaxStep=10,AddRedundant) AM1 5D 7F Int
 egral=UltraFineGrid SCF=(NoSymm,XQC,MaxCyc=120) IOp(1/33=1)
 ----------------------------------------------------------------------

 TstMul:  Mul=     2
 TstMul:  ICh=     0
 TstMul:  Mul=     2
 Symbolic Z-matrix:
 Charge =  0 Multiplicity = 2

 SCF Done:  E(UAM1) =  0.142476884123E-01 A.U. after   16 cycles
 SCF Done:  E(UAM1) =  0.124541965007E-01 A.U. after   13 cycles
 SCF Done:  E(UAM1) =  0.115638977585E-01 A.U. after   13 cycles
 SCF Done:  E(UAM1) =  0.111364489956E-01 A.U. after   13 cycles
 SCF Done:  E(UAM1) =  0.111555987132E-01 A.U. after   13 cycles
 SCF Done:  E(UAM1) =  0.110244193711E-01 A.U. after   13 cycles
 SCF Done:  E(UAM1) =  0.110450012843E-01 A.U. after   13 cycles
 SCF Done:  E(UAM1) =  0.110341653730E-01 A.U. after   12 cycles
 SCF Done:  E(UAM1) =  0.110395003014E-01 A.U. after   14 cycles
 SCF Done:  E(UAM1) =  0.110387856683E-01 A.U. after   12 cycles
 SCF Done:  E(UAM1) =  0.110374150955E-01 A.U. after   12 cycles
 Optimization completed.
    -- Stationary point found.
 Normal termination of Gaussian 16 at Wed Oct 21 14:20:34 2020.
 Gaussian 16:  ES64L-G16RevA.03 25-Dec-2016

 ----------------------------------------------------------------------
 #P Freq AM1 5D 7F Integral=UltraFineGrid SCF=(NoSymm,XQC,MaxCyc=120) I
 Op(1/33=1) Geom=Check Guess=Read
 ----------------------------------------------------------------------

 TstMul:  Mul=     2
 TstMul:  ICh=     0
 TstMul:  Mul=     2
 Structure from the checkpoint file:  "MN_79_RKT02_BH76_AM1_SE.chk"
 Charge =  0 Multiplicity = 2

                         Standard orientation:
 ---------------------------------------------------------------------
 Center     Atomic      Atomic             Coordinates (Angstroms)
 Number     Number       Type             X           Y           Z
 ---------------------------------------------------------------------
      1          8           0       -0.274556   -0.109482    0.000709
      2          1           0       -0.528299    0.809497   -0.001762
      3          1           0        0.998684   -0.099863   -0.010132
      4          1           0        1.726061    0.166226    0.006225
 ---------------------------------------------------------------------

 SCF Done:  E(UAM1) =  0.110374150955E-01 A.U. after    2 cycles

 The electronic state is 2-A.
 Alpha  occ. eigenvalues --   -1.32192  -0.67303  -0.59316  -0.46273  -0.40727
 Alpha virt. eigenvalues --    0.14217   0.20831
  Beta  occ. eigenvalues --   -1.23732  -0.62682  -0.53656  -0.44248
  Beta virt. eigenvalues --   -0.00759   0.17974   0.21973

 Mulliken charges and spin densities:
               1          2
     1  O   -0.344720   0.695806
     2  H    0.176716  -0.021913
     3  H    0.146357  -0.122092
     4  H    0.021646   0.448199
 Sum of Mulliken charges =   0.00000   1.00000

 Dipole moment (field-independent basis, Debye):
    X=              0.9790    Y=              1.3847    Z=             -0.0126  Tot=              1.6959
 N-N= 2.013501620777D+01 E-N=-1.223058366659D+01  KE=-2.171609373570D+01
  Exact polarizability:  19.111   0.569   4.930   0.067   0.010   0.171
 Approx polarizability:  10.916   0.654   3.264   0.037   0.007   0.066
 Leave Link  601 at Wed Oct 21 14:21:05 2020, MaxMem=  2684354560 cpu:               3.9 elap:               1.3
 (Enter /udrive/faculty/rpeverati/g16/g16/l701.exe)
 ... and contract with generalized density number  0.
 Compute integral second derivatives.
 Leave Link  701 at Wed Oct 21 14:21:07 2020, MaxMem=  2684354560 cpu:               4.4 elap:               1.5
 (Enter /udrive/faculty/rpeverati/g16/g16/l702.exe)
 L702 exits ... SP integral derivatives will be done elsewhere.

 ******    1 imaginary frequencies (negative Signs) ******

                      1                      2                      3
                      A                      A                      A
 Frequencies --  -1756.1855               315.6201               421.8206
 Red. masses --      1.0746                 1.0211                 1.0079
 Frc consts  --      1.9528                 0.0599                 0.1057
 IR Inten    --    145.2099                39.1446                17.9597

                      4                      5                      6
                      A                      A                      A
 Frequencies --   1216.8205              2560.1482              3601.5105
 Red. masses --      1.1062                 1.0282                 1.0653
 Frc consts  --      0.9650                 3.9705                 8.1411
 IR Inten    --     44.0339                40.4355                20.9648

 - Thermochemistry -
 -------------------
 Temperature   298.150 Kelvin.  Pressure   1.00000 Atm.
 Atom     1 has atomic number  8 and mass  15.99491

 Molecular mass:    19.01839 amu.
 Principal axes and moments of inertia in atomic units:
                           1         2         3
     Eigenvalues --     3.02161  18.74779  21.76831
           X            0.99950  -0.03158   0.00016
           Y            0.03158   0.99950   0.00040
           Z           -0.00017  -0.00039   1.00000
 This molecule is an asymmetric top.
 Rotational symmetry number  1.
 Rotational temperatures (Kelvin)     28.66485     4.61995     3.97890
 Rotational constants (GHZ):         597.27859    96.26422    82.90681
    1 imaginary frequencies ignored.
 Zero-point vibrational energy      48544.0 (Joules/Mol)
                                   11.60229 (Kcal/Mol)
 Warning -- explicit consideration of   2 degrees of freedom as
           vibrations may cause significant error
 Vibrational temperatures:    454.11   606.91  1750.73  3683.48  5181.77
          (Kelvin)

 Zero-point correction=                           0.018489 (Hartree/Particle)
 Thermal correction to Energy=                    0.022027
 Thermal correction to Enthalpy=                  0.022972
 Thermal correction to Gibbs Free Energy=        -0.002343
 Sum of electronic and zero-point Energies=              0.029527
 Sum of electronic and thermal Energies=                 0.033065
 Sum of electronic and thermal Enthalpies=               0.034009
 Sum of electronic and thermal Free Energies=            0.008694

                     E (Thermal)             CV                S
                      KCal/Mol        Cal/Mol-Kelvin    Cal/Mol-Kelvin
 Total                   13.822              9.224             53.280
 Electronic               0.000              0.000              1.377
 Translational            0.889              2.981             34.771
 Rotational               0.889              2.981             14.875
 Vibrational             12.045              3.262              2.257
 Vibration     1          0.703              1.644              1.333
 Vibration     2          0.784              1.423              0.886

                           ! Non-Optimized Parameters !
 Normal termination of Gaussian 16 at Wed Oct 21 14:21:18 2020.
