 Gaussian 16, Revision A.03,
 Gaussian 16:  ES64L-G16RevA.03 25-Dec-2016

 ----------------------------------------------------------------------
 #P Opt(MaxCyc=150) AM1 5D 7F Integral=UltraFineGrid SCF=(NoSymm,XQC,Ma
 xCyc=120) IOp(1/33=1)
 ----------------------------------------------------------------------

 TstMul:  Mul=     2
 TstMul:  ICh=     0
 TstMul:  Mul=     2
 Symbolic Z-matrix:
 Charge =  0 Multiplicity = 2

 SCF Done:  E(UAM1) =  0.615486824375E-01 A.U. after   12 cycles
 SCF Done:  E(UAM1) =  0.601675083776E-01 A.U. after   10 cycles
 SCF Done:  E(UAM1) =  0.601274102053E-01 A.U. after    9 cycles
 Optimization completed.
    -- Stationary point found.

                         Standard orientation:
 ---------------------------------------------------------------------
 Center     Atomic      Atomic             Coordinates (Angstroms)
 Number     Number       Type             X           Y           Z
 ---------------------------------------------------------------------
      1          7           0        0.000000    0.000000    0.131261
      2          1           0        0.000000    0.801514   -0.459413
      3          1           0       -0.000000   -0.801514   -0.459413
 ---------------------------------------------------------------------

 The electronic state is 2-B1.
 Alpha  occ. eigenvalues --   -1.18224  -0.60441  -0.45843  -0.44571
 Alpha virt. eigenvalues --    0.14926   0.19816
  Beta  occ. eigenvalues --   -1.09139  -0.58957  -0.42282
  Beta virt. eigenvalues --    0.03565   0.17303   0.21342

 Mulliken charges and spin densities:
               1          2
     1  N   -0.203410   1.073922
     2  H    0.101705  -0.036961
     3  H    0.101705  -0.036961
 Sum of Mulliken charges =  -0.00000   1.00000

 Dipole moment (field-independent basis, Debye):
    X=             -0.0000    Y=              0.0000    Z=             -1.8104  Tot=              1.8104
 N-N= 1.291630917577D+01 E-N=-7.314843574206D+00  KE=-1.360295277193D+01
 Leave Link  601 at Wed Oct 21 14:17:52 2020, MaxMem=  2684354560 cpu:               3.4 elap:               1.1
 (Enter /udrive/faculty/rpeverati/g16/g16/l9999.exe)

 Test job not archived.
 1\1\GINC-NODE56\FOpt\UAM1\ZDO\H2N1(2)\RPEVERATI\21-Oct-2020\0\\#P Opt(
 MaxCyc=150) AM1 5D 7F Integral=UltraFineGrid SCF=(NoSymm,XQC,MaxCyc=12
 0) IOp(1/33=1)\\TS search on BH76.\\0,2\N,0.,0.,0.1109518502\H,0.,0.80
 15138273,-0.4797225867\H,0.,-0.8015138273,-0.4797225867\\Version=ES64L
 -G16RevA.03\State=2-B1\HF=0.0601274\S2=0.753896\S2-1=0.\S2A=0.750008\R

 Normal termination of Gaussian 16 at Wed Oct 21 14:17:55 2020.
