 Gaussian 16, Revision A.03,
 Gaussian 16:  ES64L-G16RevA.03 25-Dec-2016

 ----------------------------------------------------------------------
 #P Opt(MaxCyc=150) AM1 5D 7F Integral=UltraFineGrid SCF=(NoSymm,XQC,Ma
 xCyc=120) IOp(1/33=1)
 ----------------------------------------------------------------------

 TstMul:  Mul=     2
 TstMul:  ICh=     0
 TstMul:  Mul=     2
 Symbolic Z-matrix:
 Charge =  0 Multiplicity = 2

 SCF Done:  E(UAM1) =  0.135603639632E-02 A.U. after   10 cycles
 SCF Done:  E(UAM1) =  0.103868281711E-02 A.U. after    7 cycles
 SCF Done:  E(UAM1) =  0.102923207353E-02 A.U. after    6 cycles
 Optimization completed.
    -- Stationary point found.

                         Standard orientation:
 ---------------------------------------------------------------------
 Center     Atomic      Atomic             Coordinates (Angstroms)
 Number     Number       Type             X           Y           Z
 ---------------------------------------------------------------------
      1          8           0        0.000000    0.000000    0.105423
      2          1           0        0.000000    0.000000   -0.843388
 ---------------------------------------------------------------------

 Unable to determine electronic state:  partially filled degenerate orbitals.
 Alpha  occ. eigenvalues --   -1.34255  -0.63743  -0.55015  -0.49356
 Alpha virt. eigenvalues --    0.17160
  Beta  occ. eigenvalues --   -1.21140  -0.60615  -0.46348
  Beta virt. eigenvalues --   -0.01477   0.18902

 Mulliken charges and spin densities:
               1          2
     1  O   -0.186879   1.031575
     2  H    0.186879  -0.031575
 Sum of Mulliken charges =  -0.00000   1.00000

 Dipole moment (field-independent basis, Debye):
    X=             -0.0000    Y=             -0.0000    Z=             -1.4111  Tot=              1.4111
 N-N= 1.474850576592D+01 E-N=-4.124360422425D+00  KE=-2.006586671635D+01
 Leave Link  601 at Wed Oct 21 14:17:49 2020, MaxMem=  2684354560 cpu:               1.8 elap:               0.6
 (Enter /udrive/faculty/rpeverati/g16/g16/l9999.exe)

 Test job not archived.
 1\1\GINC-NODE53\FOpt\UAM1\ZDO\H1O1(2)\RPEVERATI\21-Oct-2020\0\\#P Opt(
 MaxCyc=150) AM1 5D 7F Integral=UltraFineGrid SCF=(NoSymm,XQC,MaxCyc=12
 0) IOp(1/33=1)\\TS search on BH76.\\0,2\O,0.,0.,0.0976125558\H,0.,0.,-
 0.8511984755\\Version=ES64L-G16RevA.03\HF=0.0010292\S2=0.751254\S2-1=0
 .\S2A=0.75\RMSD=5.188e-09\RMSF=5.535e-07\Dipole=0.,0.,-0.5551511\PG=C*

 Normal termination of Gaussian 16 at Wed Oct 21 14:17:51 2020.
