 Gaussian 16, Revision A.03,
 Gaussian 16:  ES64L-G16RevA.03 25-Dec-2016

 ----------------------------------------------------------------------
 #P Opt(MaxCyc=150) AM1 5D 7F Integral=UltraFineGrid SCF=(NoSymm,XQC,Ma
 xCyc=120) IOp(1/33=1)
 ----------------------------------------------------------------------

 TstMul:  Mul=     1
 TstMul:  ICh=     0
 TstMul:  Mul=     1
 Symbolic Z-matrix:
 Charge =  0 Multiplicity = 1

 SCF Done:  E(RAM1) = -0.111186893662E-01 A.U. after   10 cycles
 SCF Done:  E(RAM1) = -0.115553490870E-01 A.U. after    7 cycles
 SCF Done:  E(RAM1) = -0.116145764163E-01 A.U. after    8 cycles
 Optimization completed.
    -- Stationary point found.

                         Standard orientation:
 ---------------------------------------------------------------------
 Center     Atomic      Atomic             Coordinates (Angstroms)
 Number     Number       Type             X           Y           Z
 ---------------------------------------------------------------------
      1          7           0        0.000000    0.000000    0.101764
      2          1           0        0.000000    0.938637   -0.237450
      3          1           0        0.812884   -0.469319   -0.237450
      4          1           0       -0.812884   -0.469319   -0.237450
 ---------------------------------------------------------------------

 The electronic state is 1-A1.
 Alpha  occ. eigenvalues --   -1.20118  -0.58432  -0.58432  -0.38291
 Alpha virt. eigenvalues --    0.15516   0.22659   0.22659

 Mulliken charges:
               1
     1  N   -0.395478
     2  H    0.131826
     3  H    0.131826
     4  H    0.131826
 Sum of Mulliken charges =   0.00000

 Dipole moment (field-independent basis, Debye):
    X=             -0.0000    Y=              0.0000    Z=             -1.8474  Tot=              1.8474
 N-N= 1.596290989358D+01 E-N=-1.169424684100D+01  KE=-1.474934332378D+01
 Leave Link  601 at Wed Oct 21 14:17:37 2020, MaxMem=  2684354560 cpu:               2.0 elap:               0.8
 (Enter /udrive/faculty/rpeverati/g16/g16/l9999.exe)

 Test job not archived.
 1\1\GINC-NODE59\FOpt\RAM1\ZDO\H3N1\RPEVERATI\21-Oct-2020\0\\#P Opt(Max
 Cyc=150) AM1 5D 7F Integral=UltraFineGrid SCF=(NoSymm,XQC,MaxCyc=120)
 IOp(1/33=1)\\TS search on BH76.\\0,1\N,0.,0.,0.2543720841\H,0.46931867
 74,0.8128837943,-0.0848415353\H,0.4693186774,-0.8128837943,-0.08484153
 53\H,-0.9386373549,0.,-0.0848415353\\Version=ES64L-G16RevA.03\State=1-

 Normal termination of Gaussian 16 at Wed Oct 21 14:17:39 2020.
