 Gaussian 16, Revision A.03,

 ----------------------------------------------------------------------
 #P Opt(TS,MaxCyc=50,NoEigenTest,MaxStep=10,AddRedundant) AM1 5D 7F Int
 egral=UltraFineGrid SCF=(NoSymm,XQC,MaxCyc=120) IOp(1/33=1)
 ----------------------------------------------------------------------

 TstMul:  Mul=     2
 TstMul:  ICh=     0
 TstMul:  Mul=     2
 Symbolic Z-matrix:
 Charge =  0 Multiplicity = 2

 SCF Done:  E(UAM1) =  0.983867204337E-01 A.U. after   17 cycles
 SCF Done:  E(UAM1) =  0.954952125063E-01 A.U. after   13 cycles
 SCF Done:  E(UAM1) =  0.952069533571E-01 A.U. after   13 cycles
 SCF Done:  E(UAM1) =  0.942784878454E-01 A.U. after   12 cycles
 SCF Done:  E(UAM1) =  0.931380553788E-01 A.U. after   13 cycles
 SCF Done:  E(UAM1) =  0.921015413350E-01 A.U. after   13 cycles
 SCF Done:  E(UAM1) =  0.932609877209E-01 A.U. after   14 cycles
 SCF Done:  E(UAM1) =  0.937884803371E-01 A.U. after   13 cycles
 SCF Done:  E(UAM1) =  0.944286591697E-01 A.U. after   14 cycles
 SCF Done:  E(UAM1) =  0.950939206022E-01 A.U. after   13 cycles
 SCF Done:  E(UAM1) =  0.987168777807E-01 A.U. after   13 cycles
 SCF Done:  E(UAM1) =  0.987152739803E-01 A.U. after   12 cycles
 SCF Done:  E(UAM1) =  0.987087788088E-01 A.U. after   11 cycles
 SCF Done:  E(UAM1) =  0.986995331217E-01 A.U. after   10 cycles
 SCF Done:  E(UAM1) =  0.986852855472E-01 A.U. after   12 cycles
 SCF Done:  E(UAM1) =  0.986802523315E-01 A.U. after   12 cycles
 SCF Done:  E(UAM1) =  0.986823705968E-01 A.U. after   12 cycles
 SCF Done:  E(UAM1) =  0.986823423239E-01 A.U. after   10 cycles
 SCF Done:  E(UAM1) =  0.986823277144E-01 A.U. after    9 cycles
 Optimization completed.
    -- Stationary point found.
 Normal termination of Gaussian 16 at Wed Oct 21 14:32:01 2020.
 Gaussian 16:  ES64L-G16RevA.03 25-Dec-2016

 ----------------------------------------------------------------------
 #P Freq AM1 5D 7F Integral=UltraFineGrid SCF=(NoSymm,XQC,MaxCyc=120) I
 Op(1/33=1) Geom=Check Guess=Read
 ----------------------------------------------------------------------

 TstMul:  Mul=     2
 TstMul:  ICh=     0
 TstMul:  Mul=     2
 Structure from the checkpoint file:  "MN_88_RKT12_BH76_AM1_SE.chk"
 Charge =  0 Multiplicity = 2

                         Standard orientation:
 ---------------------------------------------------------------------
 Center     Atomic      Atomic             Coordinates (Angstroms)
 Number     Number       Type             X           Y           Z
 ---------------------------------------------------------------------
      1         15           0        0.213520    0.000001   -0.108199
      2          1           0        0.398451    1.016849    0.780767
      3          1           0        0.398039   -1.017120    0.780544
      4          1           0       -1.158286    0.000241   -0.059448
      5          1           0       -2.841011    0.000012    0.121120
 ---------------------------------------------------------------------

 SCF Done:  E(UAM1) =  0.986823277144E-01 A.U. after    2 cycles

 The electronic state is 2-A.
 Alpha  occ. eigenvalues --   -0.78375  -0.49696  -0.47984  -0.41626  -0.37687
 Alpha virt. eigenvalues --    0.04829   0.07177   0.07317
  Beta  occ. eigenvalues --   -0.78271  -0.48196  -0.47967  -0.38425
  Beta virt. eigenvalues --    0.01773   0.05496   0.07188   0.08703

 Mulliken charges and spin densities:
               1          2
     1  P   -0.045843   0.062108
     2  H    0.015374  -0.001699
     3  H    0.015373  -0.001699
     4  H    0.021653  -0.031069
     5  H   -0.006558   0.972359
 Sum of Mulliken charges =  -0.00000   1.00000

 Dipole moment (field-independent basis, Debye):
    X=             -1.0205    Y=             -0.0000    Z=              2.0230  Tot=              2.2658
 N-N= 1.341330800072D+01 E-N=-1.265473960278D+01  KE=-9.292236366663D+00
  Exact polarizability:  25.663   0.000  19.815  -1.158  -0.000  20.802
 Approx polarizability:  14.819   0.000  13.012   1.732  -0.000   9.405
 Leave Link  601 at Wed Oct 21 14:32:41 2020, MaxMem=  2684354560 cpu:               5.4 elap:               1.6
 (Enter /udrive/faculty/rpeverati/g16/g16/l701.exe)
 ... and contract with generalized density number  0.
 Compute integral second derivatives.
 Leave Link  701 at Wed Oct 21 14:32:43 2020, MaxMem=  2684354560 cpu:               8.5 elap:               1.9
 (Enter /udrive/faculty/rpeverati/g16/g16/l702.exe)
 L702 exits ... SP integral derivatives will be done elsewhere.

 ******    1 imaginary frequencies (negative Signs) ******

                      1                      2                      3
                      A                      A                      A
 Frequencies --   -500.0221               114.8022               120.9340
 Red. masses --      1.0340                 1.0078                 1.0254
 Frc consts  --      0.1523                 0.0078                 0.0088
 IR Inten    --      2.4333                15.6927                46.2293

                      4                      5                      6
                      A                      A                      A
 Frequencies --   1005.6031              1026.5655              1031.7850
 Red. masses --      1.0754                 1.0281                 1.0288
 Frc consts  --      0.6408                 0.6383                 0.6453
 IR Inten    --     12.5086                 3.2254                 4.1699

                      7                      8                      9
                      A                      A                      A
 Frequencies --   2369.4328              2459.6213              2481.8547
 Red. masses --      1.0407                 1.0421                 1.0328
 Frc consts  --      3.4424                 3.7143                 3.7481
 IR Inten    --      9.8065                 0.9885                33.0490

 - Thermochemistry -
 -------------------
 Temperature   298.150 Kelvin.  Pressure   1.00000 Atm.
 Atom     1 has atomic number 15 and mass  30.97376

 Molecular mass:    35.00506 amu.
 Principal axes and moments of inertia in atomic units:
                           1         2         3
     Eigenvalues --    12.87607  44.33915  46.35228
           X            0.99977  -0.00000   0.02138
           Y            0.00000   1.00000   0.00000
           Z           -0.02138  -0.00000   0.99977
 This molecule is an asymmetric top.
 Rotational symmetry number  1.
 Rotational temperatures (Kelvin)      6.72674     1.95344     1.86860
 Rotational constants (GHZ):         140.16242    40.70311    38.93533
    1 imaginary frequencies ignored.
 Zero-point vibrational energy      63465.5 (Joules/Mol)
                                   15.16861 (Kcal/Mol)
 Warning -- explicit consideration of   2 degrees of freedom as
           vibrations may cause significant error
 Vibrational temperatures:    165.17   174.00  1446.84  1477.00  1484.51
          (Kelvin)           3409.09  3538.85  3570.84

 Zero-point correction=                           0.024173 (Hartree/Particle)
 Thermal correction to Energy=                    0.028509
 Thermal correction to Enthalpy=                  0.029454
 Thermal correction to Gibbs Free Energy=        -0.000203
 Sum of electronic and zero-point Energies=              0.122855
 Sum of electronic and thermal Energies=                 0.127192
 Sum of electronic and thermal Enthalpies=               0.128136
 Sum of electronic and thermal Free Energies=            0.098479

                     E (Thermal)             CV                S
                      KCal/Mol        Cal/Mol-Kelvin    Cal/Mol-Kelvin
 Total                   17.890             10.901             62.418
 Electronic               0.000              0.000              1.377
 Translational            0.889              2.981             36.589
 Rotational               0.889              2.981             17.921
 Vibrational             16.112              4.939              6.530
 Vibration     1          0.608              1.937              3.186
 Vibration     2          0.609              1.932              3.085

 Optimization completed.
    -- Stationary point found.
 Normal termination of Gaussian 16 at Wed Oct 21 14:32:56 2020.
