 Gaussian 16, Revision A.03,

 ----------------------------------------------------------------------
 #P Opt(TS,MaxCyc=50,NoEigenTest,MaxStep=10,AddRedundant) AM1 5D 7F Int
 egral=UltraFineGrid SCF=(NoSymm,XQC,MaxCyc=120) IOp(1/33=1)
 ----------------------------------------------------------------------

 TstMul:  Mul=     2
 TstMul:  ICh=     0
 TstMul:  Mul=     2
 Symbolic Z-matrix:
 Charge =  0 Multiplicity = 2

 SCF Done:  E(UAM1) =  0.268134848752E-01 A.U. after   19 cycles
 SCF Done:  E(UAM1) =  0.257934114330E-01 A.U. after   17 cycles
 SCF Done:  E(UAM1) =  0.237561115597E-01 A.U. after   18 cycles
 SCF Done:  E(UAM1) =  0.255624367293E-01 A.U. after   18 cycles
 SCF Done:  E(UAM1) =  0.266383759177E-01 A.U. after   17 cycles
 SCF Done:  E(UAM1) =  0.251132430009E-01 A.U. after   18 cycles
 SCF Done:  E(UAM1) =  0.240519566467E-01 A.U. after   17 cycles
 SCF Done:  E(UAM1) =  0.237098649737E-01 A.U. after   18 cycles
 SCF Done:  E(UAM1) =  0.236218965229E-01 A.U. after   16 cycles
 SCF Done:  E(UAM1) =  0.235526983084E-01 A.U. after   17 cycles
 SCF Done:  E(UAM1) =  0.231506025402E-01 A.U. after   16 cycles
 SCF Done:  E(UAM1) =  0.231413058899E-01 A.U. after   16 cycles
 SCF Done:  E(UAM1) =  0.231273222997E-01 A.U. after   16 cycles
 SCF Done:  E(UAM1) =  0.230949366407E-01 A.U. after   16 cycles
 SCF Done:  E(UAM1) =  0.230551639904E-01 A.U. after   16 cycles
 SCF Done:  E(UAM1) =  0.230243849778E-01 A.U. after   16 cycles
 SCF Done:  E(UAM1) =  0.230108235353E-01 A.U. after   17 cycles
 SCF Done:  E(UAM1) =  0.230105541188E-01 A.U. after   16 cycles
 SCF Done:  E(UAM1) =  0.230106016233E-01 A.U. after   14 cycles
 Optimization completed.
    -- Stationary point found.
 Normal termination of Gaussian 16 at Wed Oct 21 14:27:47 2020.
 Gaussian 16:  ES64L-G16RevA.03 25-Dec-2016

 ----------------------------------------------------------------------
 #P Freq AM1 5D 7F Integral=UltraFineGrid SCF=(NoSymm,XQC,MaxCyc=120) I
 Op(1/33=1) Geom=Check Guess=Read
 ----------------------------------------------------------------------

 TstMul:  Mul=     2
 TstMul:  ICh=     0
 TstMul:  Mul=     2
 Structure from the checkpoint file:  "MN_83_RKT07_BH76_AM1_SE.chk"
 Charge =  0 Multiplicity = 2

                         Standard orientation:
 ---------------------------------------------------------------------
 Center     Atomic      Atomic             Coordinates (Angstroms)
 Number     Number       Type             X           Y           Z
 ---------------------------------------------------------------------
      1          7           0       -1.202580    0.000874   -0.132069
      2          8           0        1.219791   -0.001006    0.127559
      3          1           0       -1.463760   -0.809777    0.394748
      4          1           0       -1.463731    0.804672    0.405171
      5          1           0       -0.043846    0.001068   -0.164565
      6          1           0        1.631064    0.005963   -0.731339
 ---------------------------------------------------------------------

 SCF Done:  E(UAM1) =  0.230106016233E-01 A.U. after    2 cycles

 The electronic state is 2-A.
 Alpha  occ. eigenvalues --   -1.32300  -1.20497  -0.64953  -0.61168  -0.59096
 Alpha  occ. eigenvalues --   -0.46583  -0.45718  -0.42665
 Alpha virt. eigenvalues --    0.12768   0.17938   0.19129   0.21719
  Beta  occ. eigenvalues --   -1.25402  -1.14903  -0.61213  -0.60433  -0.55272
  Beta  occ. eigenvalues --   -0.43902  -0.39899
  Beta virt. eigenvalues --   -0.04717   0.15239   0.19744   0.20108   0.22925

 Mulliken charges and spin densities:
               1          2
     1  N   -0.250886   0.577549
     2  O   -0.371740   0.633393
     3  H    0.129361  -0.022834
     4  H    0.129342  -0.022834
     5  H    0.180442  -0.144988
     6  H    0.183480  -0.020286
 Sum of Mulliken charges =  -0.00000   1.00000

 Dipole moment (field-independent basis, Debye):
    X=             -1.0086    Y=              0.0009    Z=              0.2081  Tot=              1.0298
 N-N= 4.205995952369D+01 E-N=-3.826073393378D+01  KE=-3.507311386184D+01
  Exact polarizability:  64.448  -0.014   7.753   2.298  -0.005   7.618
 Approx polarizability:  22.582  -0.004   4.561   0.716  -0.006   4.814
 Leave Link  601 at Wed Oct 21 14:28:19 2020, MaxMem=  2684354560 cpu:               3.3 elap:               1.0
 (Enter /udrive/faculty/rpeverati/g16/g16/l701.exe)
 ... and contract with generalized density number  0.
 Compute integral second derivatives.
 Leave Link  701 at Wed Oct 21 14:28:21 2020, MaxMem=  2684354560 cpu:               3.3 elap:               1.2
 (Enter /udrive/faculty/rpeverati/g16/g16/l702.exe)
 L702 exits ... SP integral derivatives will be done elsewhere.

 ******    1 imaginary frequencies (negative Signs) ******

                      1                      2                      3
                      A                      A                      A
 Frequencies --  -3125.2859               131.8862               346.1357
 Red. masses --      1.0389                 1.0476                 1.4159
 Frc consts  --      5.9784                 0.0107                 0.0999
 IR Inten    --  11856.3438               129.9779                63.2422

                      4                      5                      6
                      A                      A                      A
 Frequencies --    412.8729               681.1421              1052.3570
 Red. masses --      1.0442                 2.4182                 1.1964
 Frc consts  --      0.1049                 0.6610                 0.7807
 IR Inten    --     51.6654                 0.6729                 9.6187

                      7                      8                      9
                      A                      A                      A
 Frequencies --   1443.4932              1445.6277              1693.5503
 Red. masses --      1.0625                 1.1020                 1.0748
 Frc consts  --      1.3044                 1.3569                 1.8163
 IR Inten    --     26.5600               407.0051                19.2066

                     10                     11                     12
                      A                      A                      A
 Frequencies --   3424.9171              3472.7705              3608.2826
 Red. masses --      1.0896                 1.0433                 1.0654
 Frc consts  --      7.5305                 7.4134                 8.1728
 IR Inten    --      6.3491                43.0125                79.3049

 - Thermochemistry -
 -------------------
 Temperature   298.150 Kelvin.  Pressure   1.00000 Atm.
 Atom     1 has atomic number  7 and mass  14.00307

 Molecular mass:    34.02929 amu.
 Principal axes and moments of inertia in atomic units:
                           1         2         3
     Eigenvalues --     9.27398 187.10060 187.20799
           X            0.99890   0.00193  -0.04686
           Y           -0.00034   0.99943   0.03384
           Z            0.04690  -0.03379   0.99833
 This molecule is an asymmetric top.
 Rotational symmetry number  1.
 Rotational temperatures (Kelvin)      9.33946     0.46293     0.46266
 Rotational constants (GHZ):         194.60275     9.64583     9.64030
    1 imaginary frequencies ignored.
 Zero-point vibrational energy     105947.5 (Joules/Mol)
                                   25.32206 (Kcal/Mol)
 Warning -- explicit consideration of   3 degrees of freedom as
           vibrations may cause significant error
 Vibrational temperatures:    189.75   498.01   594.03   980.01  1514.11
          (Kelvin)           2076.86  2079.94  2436.64  4927.69  4996.54
                             5191.51

 Zero-point correction=                           0.040353 (Hartree/Particle)
 Thermal correction to Energy=                    0.044689
 Thermal correction to Enthalpy=                  0.045633
 Thermal correction to Gibbs Free Energy=         0.015342
 Sum of electronic and zero-point Energies=              0.063364
 Sum of electronic and thermal Energies=                 0.067700
 Sum of electronic and thermal Enthalpies=               0.068644
 Sum of electronic and thermal Free Energies=            0.038352

                     E (Thermal)             CV                S
                      KCal/Mol        Cal/Mol-Kelvin    Cal/Mol-Kelvin
 Total                   28.043             12.317             63.753
 Electronic               0.000              0.000              1.377
 Translational            0.889              2.981             36.505
 Rotational               0.889              2.981             20.413
 Vibrational             26.265              6.355              5.458
 Vibration     1          0.612              1.921              2.918
 Vibration     2          0.724              1.583              1.184
 Vibration     3          0.777              1.442              0.917

 Optimization completed.
    -- Stationary point found.
 Normal termination of Gaussian 16 at Wed Oct 21 14:28:31 2020.
