 Gaussian 16, Revision A.03,

 ----------------------------------------------------------------------
 #P Opt(TS,MaxCyc=50,NoEigenTest,MaxStep=10,AddRedundant) AM1 5D 7F Int
 egral=UltraFineGrid SCF=(NoSymm,XQC,MaxCyc=120) IOp(1/33=1)
 ----------------------------------------------------------------------

 TstMul:  Mul=     2
 TstMul:  ICh=     0
 TstMul:  Mul=     2
 Symbolic Z-matrix:
 Charge =  0 Multiplicity = 2

 SCF Done:  E(UAM1) =  0.674454864217E-01 A.U. after   15 cycles
 SCF Done:  E(UAM1) =  0.674192837245E-01 A.U. after   11 cycles
 SCF Done:  E(UAM1) =  0.672290028328E-01 A.U. after   11 cycles
 SCF Done:  E(UAM1) =  0.659929856036E-01 A.U. after   14 cycles
 SCF Done:  E(UAM1) =  0.652351391955E-01 A.U. after   13 cycles
 SCF Done:  E(UAM1) =  0.654965317590E-01 A.U. after   13 cycles
 SCF Done:  E(UAM1) =  0.661992570267E-01 A.U. after   13 cycles
 SCF Done:  E(UAM1) =  0.668504210523E-01 A.U. after   13 cycles
 SCF Done:  E(UAM1) =  0.674357775999E-01 A.U. after   13 cycles
 SCF Done:  E(UAM1) =  0.675155405180E-01 A.U. after   12 cycles
 SCF Done:  E(UAM1) =  0.685504552076E-01 A.U. after   11 cycles
 SCF Done:  E(UAM1) =  0.686865969460E-01 A.U. after   11 cycles
 SCF Done:  E(UAM1) =  0.687227456499E-01 A.U. after   11 cycles
 SCF Done:  E(UAM1) =  0.687086562402E-01 A.U. after   11 cycles
 SCF Done:  E(UAM1) =  0.686946442681E-01 A.U. after   11 cycles
 SCF Done:  E(UAM1) =  0.687050939828E-01 A.U. after   11 cycles
 SCF Done:  E(UAM1) =  0.687053140740E-01 A.U. after   11 cycles
 SCF Done:  E(UAM1) =  0.687039630021E-01 A.U. after   11 cycles
 SCF Done:  E(UAM1) =  0.687039005021E-01 A.U. after    9 cycles
 Optimization completed.
    -- Stationary point found.
 Normal termination of Gaussian 16 at Wed Oct 28 14:27:06 2020.
 Gaussian 16:  ES64L-G16RevA.03 25-Dec-2016

 ----------------------------------------------------------------------
 #P Freq AM1 5D 7F Integral=UltraFineGrid SCF=(NoSymm,XQC,MaxCyc=120) I
 Op(1/33=1) Geom=Check Guess=Read
 ----------------------------------------------------------------------

 TstMul:  Mul=     2
 TstMul:  ICh=     0
 TstMul:  Mul=     2
 Structure from the checkpoint file:  "MN_80_RKT03_BH76_AM1_SE.chk"
 Charge =  0 Multiplicity = 2

                         Standard orientation:
 ---------------------------------------------------------------------
 Center     Atomic      Atomic             Coordinates (Angstroms)
 Number     Number       Type             X           Y           Z
 ---------------------------------------------------------------------
      1          6           0        0.000000    0.220862    0.000000
      2          1           0        0.976650    0.749562    0.000000
      3          1           0       -0.577683    0.489322    0.909465
      4          1           0       -0.577683    0.489322   -0.909465
      5          1           0        0.190339   -0.892958    0.000000
      6          1           0       -0.011623   -2.160419    0.000000
 ---------------------------------------------------------------------

 SCF Done:  E(UAM1) =  0.687039005021E-01 A.U. after    2 cycles

 The electronic state is 2-A'.
 Alpha  occ. eigenvalues --   -1.07038  -0.52898  -0.49458  -0.49440  -0.37170
 Alpha virt. eigenvalues --    0.16597   0.16727   0.16736   0.18569
  Beta  occ. eigenvalues --   -1.06201  -0.49780  -0.49271  -0.49257
  Beta virt. eigenvalues --    0.04801   0.16978   0.16987   0.17428   0.19481

 Mulliken charges and spin densities:
               1          2
     1  C   -0.263039   0.140400
     2  H    0.070098  -0.003955
     3  H    0.070139  -0.005868
     4  H    0.070139  -0.005868
     5  H    0.086966  -0.050608
     6  H   -0.034302   0.925898
 Sum of Mulliken charges =  -0.00000   1.00000

 Dipole moment (field-independent basis, Debye):
    X=              0.0199    Y=              0.2818    Z=             -0.0000  Tot=              0.2825
 N-N= 1.620475565183D+01 E-N=-1.644285222575D+01  KE=-1.032412293968D+01
  Exact polarizability:   8.885   0.193  14.751   0.000   0.000   8.848
 Approx polarizability:   5.032   0.153   8.159   0.000   0.000   5.005
 Leave Link  601 at Wed Oct 28 14:27:09 2020, MaxMem=  2684354560 cpu:               0.4 elap:               0.1
 (Enter /udrive/faculty/rpeverati/g16/g16/l701.exe)
 ... and contract with generalized density number  0.
 Compute integral second derivatives.
 Leave Link  701 at Wed Oct 28 14:27:09 2020, MaxMem=  2684354560 cpu:               1.1 elap:               0.2
 (Enter /udrive/faculty/rpeverati/g16/g16/l702.exe)
 L702 exits ... SP integral derivatives will be done elsewhere.

 ******    2 imaginary frequencies (negative Signs) ******

                      1                      2                      3
                     A'                     A"                     A'
 Frequencies --   -580.3822               -35.0560               112.8554
 Red. masses --      1.0286                 1.0220                 1.0247
 Frc consts  --      0.2041                 0.0007                 0.0077
 IR Inten    --     18.5651                 0.9036                 1.7636

                      4                      5                      6
                     A'                     A"                     A'
 Frequencies --   1342.7552              1350.5920              1370.0484
 Red. masses --      1.1559                 1.1548                 1.2040
 Frc consts  --      1.2279                 1.2411                 1.3315
 IR Inten    --      4.8156                 5.3984                 1.9784

                      7                      8                      9
                     A"                     A'                     A'
 Frequencies --   1397.7257              1398.3533              2750.1948
 Red. masses --      1.0358                 1.0402                 1.0832
 Frc consts  --      1.1923                 1.1984                 4.8269
 IR Inten    --      0.4946                 0.5920                 6.1953

                     10                     11                     12
                     A'                     A"                     A'
 Frequencies --   3109.1786              3110.1772              3194.8915
 Red. masses --      1.0916                 1.0915                 1.0187
 Frc consts  --      6.2173                 6.2210                 6.1265
 IR Inten    --      0.3932                 0.4122                 0.8388

 - Thermochemistry -
 -------------------
 Temperature   298.150 Kelvin.  Pressure   1.00000 Atm.
 Atom     1 has atomic number  6 and mass  12.00000

 Molecular mass:    17.03913 amu.
 Principal axes and moments of inertia in atomic units:
                           1         2         3
     Eigenvalues --    11.91922  31.09540  31.10728
           X            0.00410   0.99999   0.00000
           Y            0.99999  -0.00410   0.00000
           Z            0.00000   0.00000   1.00000
 This molecule is an asymmetric top.
 Rotational symmetry number  1.
 Rotational temperatures (Kelvin)      7.26674     2.78543     2.78436
 Rotational constants (GHZ):         151.41431    58.03885    58.01669
    2 imaginary frequencies ignored.
 Zero-point vibrational energy     114463.3 (Joules/Mol)
                                   27.35739 (Kcal/Mol)
 Warning -- explicit consideration of   1 degrees of freedom as
           vibrations may cause significant error
 Vibrational temperatures:    162.37  1931.93  1943.20  1971.19  2011.02
          (Kelvin)           2011.92  3956.92  4473.41  4474.85  4596.74

 Zero-point correction=                           0.043597 (Hartree/Particle)
 Thermal correction to Energy=                    0.047182
 Thermal correction to Enthalpy=                  0.048126
 Thermal correction to Gibbs Free Energy=         0.021406
 Sum of electronic and zero-point Energies=              0.112301
 Sum of electronic and thermal Energies=                 0.115885
 Sum of electronic and thermal Enthalpies=               0.116830
 Sum of electronic and thermal Free Energies=            0.090110

                     E (Thermal)             CV                S
                      KCal/Mol        Cal/Mol-Kelvin    Cal/Mol-Kelvin
 Total                   29.607              8.485             56.237
 Electronic               0.000              0.000              1.377
 Translational            0.889              2.981             34.443
 Rotational               0.889              2.981             17.096
 Vibrational             27.829              2.523              3.321
 Vibration     1          0.607              1.939              3.219

 Optimization completed.
    -- Stationary point found.
 Normal termination of Gaussian 16 at Wed Oct 28 14:27:10 2020.
