 Gaussian 16, Revision A.03,

 ----------------------------------------------------------------------
 #P Opt(TS,MaxCyc=50,NoEigenTest,MaxStep=10,AddRedundant) AM1 5D 7F Int
 egral=UltraFineGrid SCF=(NoSymm,XQC,MaxCyc=120) IOp(1/33=1)
 ----------------------------------------------------------------------

 TstMul:  Mul=     2
 TstMul:  ICh=     0
 TstMul:  Mul=     2
 Symbolic Z-matrix:
 Charge =  0 Multiplicity = 2

 SCF Done:  E(UAM1) =  0.791723030508E-01 A.U. after    7 cycles
 SCF Done:  E(UAM1) =  0.791073661770E-01 A.U. after    7 cycles
 SCF Done:  E(UAM1) =  0.790437953930E-01 A.U. after    7 cycles
 SCF Done:  E(UAM1) =  0.762341324263E-01 A.U. after    6 cycles
 SCF Done:  E(UAM1) =  0.737739575408E-01 A.U. after    6 cycles
 SCF Done:  E(UAM1) =  0.718568922552E-01 A.U. after    6 cycles
 SCF Done:  E(UAM1) =  0.705509810571E-01 A.U. after    6 cycles
 SCF Done:  E(UAM1) =  0.699267074385E-01 A.U. after    6 cycles
 SCF Done:  E(UAM1) =  0.698827548238E-01 A.U. after    5 cycles
 Optimization completed.
    -- Stationary point found.
 Normal termination of Gaussian 16 at Wed Oct 28 14:28:22 2020.
 Gaussian 16:  ES64L-G16RevA.03 25-Dec-2016

 ----------------------------------------------------------------------
 #P Freq AM1 5D 7F Integral=UltraFineGrid SCF=(NoSymm,XQC,MaxCyc=120) I
 Op(1/33=1) Geom=Check Guess=Read
 ----------------------------------------------------------------------

 TstMul:  Mul=     2
 TstMul:  ICh=     0
 TstMul:  Mul=     2
 Structure from the checkpoint file:  "MN_82_RKT06_BH76_AM1_SE.chk"
 Charge =  0 Multiplicity = 2

                         Standard orientation:
 ---------------------------------------------------------------------
 Center     Atomic      Atomic             Coordinates (Angstroms)
 Number     Number       Type             X           Y           Z
 ---------------------------------------------------------------------
      1          1           0        0.000000    0.000000    0.000000
      2          1           0        0.000000    0.000000    0.813655
      3          1           0        0.000000    0.000000   -0.813655
 ---------------------------------------------------------------------

 SCF Done:  E(UAM1) =  0.698827548238E-01 A.U. after    2 cycles

 The electronic state is 2-SGU.
 Alpha  occ. eigenvalues --   -0.63571  -0.32844
 Alpha virt. eigenvalues --    0.16659
  Beta  occ. eigenvalues --   -0.58482
  Beta virt. eigenvalues --    0.05527   0.20415

 Mulliken charges and spin densities:
               1          2
     1  H    0.116228  -0.134313
     2  H   -0.058114   0.567156
     3  H   -0.058114   0.567156
 Sum of Mulliken charges =   0.00000   1.00000

 Dipole moment (field-independent basis, Debye):
    X=             -0.0000    Y=              0.0000    Z=             -0.0000  Tot=              0.0000
 N-N= 2.701210240307D+00 E-N=-2.050739582246D+00  KE=-1.662938330815D+00
  Exact polarizability:   0.000   0.000   0.000  -0.000   0.000  13.641
 Approx polarizability:   0.000  -0.000  -0.000  -0.000  -0.000   7.206
 Leave Link  601 at Wed Oct 28 14:28:24 2020, MaxMem=  2684354560 cpu:               0.4 elap:               0.1
 (Enter /udrive/faculty/rpeverati/g16/g16/l701.exe)
 ... and contract with generalized density number  0.
 Compute integral second derivatives.
 Leave Link  701 at Wed Oct 28 14:28:25 2020, MaxMem=  2684354560 cpu:               0.8 elap:               0.1
 (Enter /udrive/faculty/rpeverati/g16/g16/l702.exe)
 L702 exits ... SP integral derivatives will be done elsewhere.

                      1                      2                      3
                     PIU                    PIU                    SGU
 Frequencies --    471.0470               471.0470               978.5016
 Red. masses --      1.0078                 1.0078                 1.0078
 Frc consts  --      0.1318                 0.1318                 0.5685
 IR Inten    --     19.6012                19.6012               761.7688

                      4
                     SGG
 Frequencies --   2477.8599
 Red. masses --      1.0078
 Frc consts  --      3.6458
 IR Inten    --      0.0000

 - Thermochemistry -
 -------------------
 Temperature   298.150 Kelvin.  Pressure   1.00000 Atm.
 Atom     1 has atomic number  1 and mass   1.00783

 Molecular mass:     3.02348 amu.
 Principal axes and moments of inertia in atomic units:
                           1         2         3
     Eigenvalues --     0.00000   4.76533   4.76533
           X           -0.00000   1.00000   0.00000
           Y            0.00000   0.00000   1.00000
           Z            1.00000   0.00000   0.00000
 This molecule is a prolate symmetric top.
 Rotational symmetry number  2.
 Rotational temperature (Kelvin)     18.17584
 Rotational constant (GHZ):         378.723093
 Zero-point vibrational energy      26308.6 (Joules/Mol)
                                    6.28791 (Kcal/Mol)
 Warning -- explicit consideration of   2 degrees of freedom as
           vibrations may cause significant error
 Vibrational temperatures:    677.73   677.73  1407.85  3565.09
          (Kelvin)

 Zero-point correction=                           0.010020 (Hartree/Particle)
 Thermal correction to Energy=                    0.012914
 Thermal correction to Enthalpy=                  0.013858
 Thermal correction to Gibbs Free Energy=        -0.004390
 Sum of electronic and zero-point Energies=              0.079903
 Sum of electronic and thermal Energies=                 0.082797
 Sum of electronic and thermal Enthalpies=               0.083741
 Sum of electronic and thermal Free Energies=            0.065493

                     E (Thermal)             CV                S
                      KCal/Mol        Cal/Mol-Kelvin    Cal/Mol-Kelvin
 Total                    8.104              8.000             38.407
 Electronic               0.000              0.000              1.377
 Translational            0.889              2.981             29.289
 Rotational               0.592              1.987              6.169
 Vibrational              6.622              3.032              1.571
 Vibration     1          0.828              1.314              0.735
 Vibration     2          0.828              1.314              0.735

 Optimization completed.
    -- Stationary point found.
 Normal termination of Gaussian 16 at Wed Oct 28 14:28:25 2020.
