 Gaussian 16, Revision A.03,

 ----------------------------------------------------------------------
 #P Opt(TS,MaxCyc=50,NoEigenTest,MaxStep=10,AddRedundant) AM1 5D 7F Int
 egral=UltraFineGrid SCF=(NoSymm,XQC,MaxCyc=120) IOp(1/33=1)
 ----------------------------------------------------------------------

 TstMul:  Mul=     2
 TstMul:  ICh=     0
 TstMul:  Mul=     2
 Symbolic Z-matrix:
 Charge =  0 Multiplicity = 2

 SCF Done:  E(UAM1) =  0.531868520379E-02 A.U. after   18 cycles
 SCF Done:  E(UAM1) =  0.531328942565E-02 A.U. after   10 cycles
 SCF Done:  E(UAM1) =  0.525043504262E-02 A.U. after   13 cycles
 SCF Done:  E(UAM1) =  0.510672797611E-02 A.U. after   15 cycles
 SCF Done:  E(UAM1) =  0.496277288263E-02 A.U. after   15 cycles
 SCF Done:  E(UAM1) =  0.482062688682E-02 A.U. after   16 cycles
 SCF Done:  E(UAM1) =  0.476301393093E-02 A.U. after   16 cycles
 SCF Done:  E(UAM1) =  0.475864018263E-02 A.U. after   14 cycles
 SCF Done:  E(UAM1) =  0.475687311493E-02 A.U. after   14 cycles
 SCF Done:  E(UAM1) =  0.475672348477E-02 A.U. after   13 cycles
 SCF Done:  E(UAM1) =  0.473823216077E-02 A.U. after   16 cycles
 SCF Done:  E(UAM1) =  0.473654233477E-02 A.U. after   14 cycles
 SCF Done:  E(UAM1) =  0.473592863845E-02 A.U. after   14 cycles
 SCF Done:  E(UAM1) =  0.473577881334E-02 A.U. after   13 cycles
 SCF Done:  E(UAM1) =  0.473539410542E-02 A.U. after   14 cycles
 SCF Done:  E(UAM1) =  0.473478741671E-02 A.U. after   15 cycles
 SCF Done:  E(UAM1) =  0.473456338229E-02 A.U. after   15 cycles
 SCF Done:  E(UAM1) =  0.473449921466E-02 A.U. after   14 cycles
 SCF Done:  E(UAM1) =  0.473448916797E-02 A.U. after   13 cycles
 Optimization completed.
    -- Stationary point found.
 Normal termination of Gaussian 16 at Wed Oct 28 14:27:39 2020.
 Gaussian 16:  ES64L-G16RevA.03 25-Dec-2016

 ----------------------------------------------------------------------
 #P Freq AM1 5D 7F Integral=UltraFineGrid SCF=(NoSymm,XQC,MaxCyc=120) I
 Op(1/33=1) Geom=Check Guess=Read
 ----------------------------------------------------------------------

 TstMul:  Mul=     2
 TstMul:  ICh=     0
 TstMul:  Mul=     2
 Structure from the checkpoint file:  "MN_81_RKT04_BH76_AM1_SE.chk"
 Charge =  0 Multiplicity = 2

                         Standard orientation:
 ---------------------------------------------------------------------
 Center     Atomic      Atomic             Coordinates (Angstroms)
 Number     Number       Type             X           Y           Z
 ---------------------------------------------------------------------
      1          6           0       -1.192143    0.010870    0.000006
      2          8           0        1.289190   -0.106281    0.000002
      3          1           0       -0.042044   -0.344979   -0.000461
      4          1           0       -1.345533    0.612247    0.915395
      5          1           0       -1.349303    0.601005   -0.922049
      6          1           0       -1.781890   -0.925853    0.007010
      7          1           0        1.358104    0.842610    0.000049
 ---------------------------------------------------------------------

 SCF Done:  E(UAM1) =  0.473448916792E-02 A.U. after    2 cycles

 The electronic state is 2-A.
 Alpha  occ. eigenvalues --   -1.32086  -1.07294  -0.62631  -0.57563  -0.51485
 Alpha  occ. eigenvalues --   -0.51313  -0.45998  -0.40177
 Alpha virt. eigenvalues --    0.14328   0.15402   0.15404   0.16531   0.20940
  Beta  occ. eigenvalues --   -1.23380  -1.04223  -0.59984  -0.50948  -0.50806
  Beta  occ. eigenvalues --   -0.49008  -0.43832
  Beta virt. eigenvalues --   -0.01925   0.15977   0.16122   0.16167   0.18648
  Beta virt. eigenvalues --    0.22130

 Mulliken charges and spin densities:
               1          2
     1  C   -0.255866   0.438394
     2  O   -0.326293   0.750670
     3  H    0.151908  -0.122173
     4  H    0.081994  -0.015995
     5  H    0.082082  -0.015955
     6  H    0.090257  -0.011060
     7  H    0.175919  -0.023881
 Sum of Mulliken charges =  -0.00000   1.00000

 Dipole moment (field-independent basis, Debye):
    X=             -1.4217    Y=              1.2410    Z=             -0.0002  Tot=              1.8872
 N-N= 3.988765630876D+01 E-N=-3.909934521421D+01  KE=-3.035921400860D+01
  Exact polarizability:  32.064   1.622  13.347   0.001  -0.000   8.930
 Approx polarizability:  16.896   0.450   8.179   0.001  -0.000   5.023
 Leave Link  601 at Wed Oct 28 14:27:42 2020, MaxMem=  2684354560 cpu:               0.6 elap:               0.1
 (Enter /udrive/faculty/rpeverati/g16/g16/l701.exe)
 ... and contract with generalized density number  0.
 Compute integral second derivatives.
 Leave Link  701 at Wed Oct 28 14:27:42 2020, MaxMem=  2684354560 cpu:               1.1 elap:               0.1
 (Enter /udrive/faculty/rpeverati/g16/g16/l702.exe)
 L702 exits ... SP integral derivatives will be done elsewhere.

 ******    1 imaginary frequencies (negative Signs) ******

                      1                      2                      3
                      A                      A                      A
 Frequencies --  -1727.8380                32.8287               158.3527
 Red. masses --      1.1018                 1.0227                 1.0879
 Frc consts  --      1.9380                 0.0006                 0.0161
 IR Inten    --   1056.5039                41.6131                40.0142

                      4                      5                      6
                      A                      A                      A
 Frequencies --    193.1838               868.7147               928.8701
 Red. masses --      1.4318                 2.1286                 1.1250
 Frc consts  --      0.0315                 0.9465                 0.5719
 IR Inten    --      9.7178               131.9906                39.9193

                      7                      8                      9
                      A                      A                      A
 Frequencies --   1206.9592              1344.0014              1374.6943
 Red. masses --      1.0844                 1.1608                 1.0935
 Frc consts  --      0.9307                 1.2354                 1.2176
 IR Inten    --     18.3109                 9.4397                 2.8052

                     10                     11                     12
                      A                      A                      A
 Frequencies --   1376.9293              1634.8305              3131.3145
 Red. masses --      1.0880                 1.0522                 1.0965
 Frc consts  --      1.2154                 1.6570                 6.3347
 IR Inten    --      0.9890                61.3427                 4.9123

                     13                     14                     15
                      A                      A                      A
 Frequencies --   3135.4218              3192.6211              3613.8212
 Red. masses --      1.0966                 1.0199                 1.0657
 Frc consts  --      6.3516                 6.1252                 8.1999
 IR Inten    --      1.9456                10.5790                23.3356

 - Thermochemistry -
 -------------------
 Temperature   298.150 Kelvin.  Pressure   1.00000 Atm.
 Atom     1 has atomic number  6 and mass  12.00000

 Molecular mass:    33.03404 amu.
 Principal axes and moments of inertia in atomic units:
                           1         2         3
     Eigenvalues --    15.29246 192.07780 195.21878
           X            0.99976   0.02203   0.00000
           Y           -0.02203   0.99976   0.00000
           Z           -0.00000  -0.00000   1.00000
 This molecule is an asymmetric top.
 Rotational symmetry number  1.
 Rotational temperatures (Kelvin)      5.66383     0.45093     0.44368
 Rotational constants (GHZ):         118.01512     9.39589     9.24471
    1 imaginary frequencies ignored.
 Zero-point vibrational energy     132740.9 (Joules/Mol)
                                   31.72583 (Kcal/Mol)
 Warning -- explicit consideration of   3 degrees of freedom as
           vibrations may cause significant error
 Vibrational temperatures:     47.23   227.83   277.95  1249.89  1336.44
          (Kelvin)           1736.55  1933.72  1977.88  1981.09  2352.16
                             4505.26  4511.17  4593.47  5199.48

 Zero-point correction=                           0.050558 (Hartree/Particle)
 Thermal correction to Energy=                    0.055617
 Thermal correction to Enthalpy=                  0.056561
 Thermal correction to Gibbs Free Energy=         0.023501
 Sum of electronic and zero-point Energies=              0.055293
 Sum of electronic and thermal Energies=                 0.060351
 Sum of electronic and thermal Enthalpies=               0.061295
 Sum of electronic and thermal Free Energies=            0.028236

                     E (Thermal)             CV                S
                      KCal/Mol        Cal/Mol-Kelvin    Cal/Mol-Kelvin
 Total                   34.900             13.298             69.580
 Electronic               0.000              0.000              1.377
 Translational            0.889              2.981             36.416
 Rotational               0.889              2.981             20.977
 Vibrational             33.123              7.336             10.809
 Vibration     1          0.594              1.983              5.651
 Vibration     2          0.621              1.893              2.569
 Vibration     3          0.635              1.849              2.197

                           ! Non-Optimized Parameters !
 Normal termination of Gaussian 16 at Wed Oct 28 14:27:42 2020.
