 Gaussian 16, Revision A.03,

 ----------------------------------------------------------------------
 #P Opt(TS,MaxCyc=50,NoEigenTest,MaxStep=10,AddRedundant) AM1 5D 7F Int
 egral=UltraFineGrid SCF=(NoSymm,XQC,MaxCyc=120) IOp(1/33=1)
 ----------------------------------------------------------------------

 TstMul:  Mul=     3
 TstMul:  ICh=     0
 TstMul:  Mul=     3
 Symbolic Z-matrix:
 Charge =  0 Multiplicity = 3

 SCF Done:  E(UAM1) =  0.924065338183E-01 A.U. after   15 cycles
 SCF Done:  E(UAM1) =  0.889884809302E-01 A.U. after   13 cycles
 SCF Done:  E(UAM1) =  0.912864914152E-01 A.U. after   13 cycles
 SCF Done:  E(UAM1) =  0.935045059622E-01 A.U. after   13 cycles
 SCF Done:  E(UAM1) =  0.955625151697E-01 A.U. after   14 cycles
 SCF Done:  E(UAM1) =  0.973175681233E-01 A.U. after   13 cycles
 SCF Done:  E(UAM1) =  0.985743499061E-01 A.U. after   13 cycles
 SCF Done:  E(UAM1) =  0.991595568168E-01 A.U. after   13 cycles
 SCF Done:  E(UAM1) =  0.991623008606E-01 A.U. after   12 cycles
 SCF Done:  E(UAM1) =  0.991436605872E-01 A.U. after   12 cycles
 SCF Done:  E(UAM1) =  0.990808231900E-01 A.U. after   12 cycles
 SCF Done:  E(UAM1) =  0.990229305769E-01 A.U. after   13 cycles
 SCF Done:  E(UAM1) =  0.989981896102E-01 A.U. after   13 cycles
 SCF Done:  E(UAM1) =  0.989952340772E-01 A.U. after   12 cycles
 SCF Done:  E(UAM1) =  0.989940599563E-01 A.U. after   11 cycles
 SCF Done:  E(UAM1) =  0.990063052979E-01 A.U. after   13 cycles
 SCF Done:  E(UAM1) =  0.989939880467E-01 A.U. after   13 cycles
 Optimization completed.
    -- Stationary point found.
 Normal termination of Gaussian 16 at Wed Oct 21 14:23:46 2020.
 Gaussian 16:  ES64L-G16RevA.03 25-Dec-2016

 ----------------------------------------------------------------------
 #P Freq AM1 5D 7F Integral=UltraFineGrid SCF=(NoSymm,XQC,MaxCyc=120) I
 Op(1/33=1) Geom=Check Guess=Read
 ----------------------------------------------------------------------

 TstMul:  Mul=     3
 TstMul:  ICh=     0
 TstMul:  Mul=     3
 Structure from the checkpoint file:  "MN_87_RKT11_BH76_AM1_SE.chk"
 Charge =  0 Multiplicity = 3

                         Standard orientation:
 ---------------------------------------------------------------------
 Center     Atomic      Atomic             Coordinates (Angstroms)
 Number     Number       Type             X           Y           Z
 ---------------------------------------------------------------------
      1          6           0       -0.000011   -1.148200    0.000000
      2          1           0       -1.062408   -1.458193    0.000000
      3          1           0        0.530170   -1.461250    0.919662
      4          1           0        0.530170   -1.461250   -0.919662
      5          1           0        0.002225    0.045991   -0.000000
      6          8           0       -0.000011    1.402988   -0.000000
 ---------------------------------------------------------------------

 SCF Done:  E(UAM1) =  0.989939880467E-01 A.U. after    2 cycles

 The electronic state is 3-A'.
 Alpha  occ. eigenvalues --   -1.30875  -1.07938  -0.61368  -0.54762  -0.51710
 Alpha  occ. eigenvalues --   -0.51596  -0.48975  -0.41736
 Alpha virt. eigenvalues --    0.14172   0.15156   0.15176   0.16514
  Beta  occ. eigenvalues --   -1.10740  -1.01150  -0.51150  -0.51139  -0.50659
  Beta  occ. eigenvalues --   -0.44074
  Beta virt. eigenvalues --   -0.02484   0.00769   0.15806   0.15864   0.15883
  Beta virt. eigenvalues --    0.19044

 Mulliken charges and spin densities:
               1          2
     1  C   -0.236099   0.427838
     2  H    0.086503  -0.013912
     3  H    0.086912  -0.013984
     4  H    0.086912  -0.013984
     5  H    0.122105  -0.127180
     6  O   -0.146333   1.741221
 Sum of Mulliken charges =  -0.00000   2.00000

 Dipole moment (field-independent basis, Debye):
    X=              0.0017    Y=             -1.6148    Z=              0.0000  Tot=              1.6148
 N-N= 3.522454099878D+01 E-N=-3.168983961341D+01  KE=-2.898253836251D+01
  Exact polarizability:   9.526  -0.007  30.805   0.000   0.000   8.811
 Approx polarizability:   5.442  -0.003  16.647   0.000   0.000   4.968
 Leave Link  601 at Wed Oct 21 14:24:20 2020, MaxMem=  2684354560 cpu:               5.2 elap:               1.1
 (Enter /udrive/faculty/rpeverati/g16/g16/l701.exe)
 ... and contract with generalized density number  0.
 Compute integral second derivatives.
 Leave Link  701 at Wed Oct 21 14:24:22 2020, MaxMem=  2684354560 cpu:               6.5 elap:               1.6
 (Enter /udrive/faculty/rpeverati/g16/g16/l702.exe)
 L702 exits ... SP integral derivatives will be done elsewhere.

 ******    1 imaginary frequencies (negative Signs) ******

                      1                      2                      3
                     A'                     A"                     A'
 Frequencies --  -1483.6186                95.9621               135.2858
 Red. masses --      1.2048                 1.0527                 1.0534
 Frc consts  --      1.5625                 0.0057                 0.0114
 IR Inten    --   1159.2537                 3.5789                 3.6870

                      4                      5                      6
                     A'                     A"                     A'
 Frequencies --    907.0722              1220.8516              1229.9105
 Red. masses --      5.4552                 1.0873                 1.0868
 Frc consts  --      2.6445                 0.9548                 0.9686
 IR Inten    --    183.3722                12.9954                12.8441

                      7                      8                      9
                     A'                     A"                     A'
 Frequencies --   1374.1478              1374.3332              1400.9186
 Red. masses --      1.0908                 1.0910                 1.0621
 Frc consts  --      1.2136                 1.2141                 1.2282
 IR Inten    --      1.9983                 2.0478                57.3867

                     10                     11                     12
                     A"                     A'                     A'
 Frequencies --   3131.2673              3131.3694              3190.4283
 Red. masses --      1.0966                 1.0965                 1.0199
 Frc consts  --      6.3347                 6.3350                 6.1166
 IR Inten    --      3.5314                 3.4778                12.4126

 - Thermochemistry -
 -------------------
 Temperature   298.150 Kelvin.  Pressure   1.00000 Atm.
 Atom     1 has atomic number  6 and mass  12.00000

 Molecular mass:    32.02621 amu.
 Principal axes and moments of inertia in atomic units:
                           1         2         3
     Eigenvalues --    12.17340 195.98658 195.98903
           X           -0.00000   0.00000   1.00000
           Y            1.00000   0.00000   0.00000
           Z            0.00000   1.00000   0.00000
 This molecule is an asymmetric top.
 Rotational symmetry number  1.
 Rotational temperatures (Kelvin)      7.11501     0.44194     0.44193
 Rotational constants (GHZ):         148.25283     9.20849     9.20838
    1 imaginary frequencies ignored.
 Zero-point vibrational energy     102828.3 (Joules/Mol)
                                   24.57655 (Kcal/Mol)
 Warning -- explicit consideration of   2 degrees of freedom as
           vibrations may cause significant error
 Vibrational temperatures:    138.07   194.65  1305.07  1756.53  1769.57
          (Kelvin)           1977.09  1977.36  2015.61  4505.20  4505.34
                             4590.31

 Zero-point correction=                           0.039165 (Hartree/Particle)
 Thermal correction to Energy=                    0.043516
 Thermal correction to Enthalpy=                  0.044460
 Thermal correction to Gibbs Free Energy=         0.013123
 Sum of electronic and zero-point Energies=              0.138159
 Sum of electronic and thermal Energies=                 0.142510
 Sum of electronic and thermal Enthalpies=               0.143454
 Sum of electronic and thermal Free Energies=            0.112117

                     E (Thermal)             CV                S
                      KCal/Mol        Cal/Mol-Kelvin    Cal/Mol-Kelvin
 Total                   27.307             11.037             65.954
 Electronic               0.000              0.000              2.183
 Translational            0.889              2.981             36.324
 Rotational               0.889              2.981             20.775
 Vibrational             25.529              5.075              6.672
 Vibration     1          0.603              1.952              3.535
 Vibration     2          0.613              1.918              2.869

 Optimization completed.
    -- Stationary point found.
 Normal termination of Gaussian 16 at Wed Oct 21 14:24:35 2020.
