 Gaussian 16, Revision A.03,

 ----------------------------------------------------------------------
 #P Opt(TS,MaxCyc=50,NoEigenTest,MaxStep=10,AddRedundant) AM1 5D 7F Int
 egral=UltraFineGrid SCF=(NoSymm,XQC,MaxCyc=120) IOp(1/33=1)
 ----------------------------------------------------------------------

 TstMul:  Mul=     2
 TstMul:  ICh=     0
 TstMul:  Mul=     2
 Symbolic Z-matrix:
 Charge =  0 Multiplicity = 2

 SCF Done:  E(UAM1) =  0.323020563267E-01 A.U. after   14 cycles
 SCF Done:  E(UAM1) =  0.320314508716E-01 A.U. after   13 cycles
 SCF Done:  E(UAM1) =  0.326837466532E-01 A.U. after   12 cycles
 SCF Done:  E(UAM1) =  0.332339373571E-01 A.U. after   12 cycles
 SCF Done:  E(UAM1) =  0.342061624343E-01 A.U. after   13 cycles
 SCF Done:  E(UAM1) =  0.349321948084E-01 A.U. after   12 cycles
 SCF Done:  E(UAM1) =  0.354691741036E-01 A.U. after   12 cycles
 SCF Done:  E(UAM1) =  0.358677383612E-01 A.U. after   12 cycles
 SCF Done:  E(UAM1) =  0.361118890380E-01 A.U. after   13 cycles
 SCF Done:  E(UAM1) =  0.362713587978E-01 A.U. after   12 cycles
 SCF Done:  E(UAM1) =  0.364028719757E-01 A.U. after   13 cycles
 SCF Done:  E(UAM1) =  0.364162795296E-01 A.U. after   12 cycles
 SCF Done:  E(UAM1) =  0.364163973056E-01 A.U. after   11 cycles
 SCF Done:  E(UAM1) =  0.364163282495E-01 A.U. after   10 cycles
 Optimization completed.
    -- Stationary point found.
 Normal termination of Gaussian 16 at Wed Oct 21 14:21:20 2020.
 Gaussian 16:  ES64L-G16RevA.03 25-Dec-2016

 ----------------------------------------------------------------------
 #P Freq AM1 5D 7F Integral=UltraFineGrid SCF=(NoSymm,XQC,MaxCyc=120) I
 Op(1/33=1) Geom=Check Guess=Read
 ----------------------------------------------------------------------

 TstMul:  Mul=     2
 TstMul:  ICh=     0
 TstMul:  Mul=     2
 Structure from the checkpoint file:  "MN_86_RKT10_BH76_AM1_SE.chk"
 Charge =  0 Multiplicity = 2

                         Standard orientation:
 ---------------------------------------------------------------------
 Center     Atomic      Atomic             Coordinates (Angstroms)
 Number     Number       Type             X           Y           Z
 ---------------------------------------------------------------------
      1          1           0        0.000757   -0.970951    0.000000
      2          9           0        0.000000    0.301430    0.000000
      3          1           0       -0.000757   -1.741916    0.000000
 ---------------------------------------------------------------------

 SCF Done:  E(UAM1) =  0.364163282495E-01 A.U. after    2 cycles

 The electronic state is 2-A'.
 Alpha  occ. eigenvalues --   -1.71062  -0.69084  -0.52404  -0.52404  -0.44323
 Alpha virt. eigenvalues --    0.13739
  Beta  occ. eigenvalues --   -1.59639  -0.58181  -0.50153  -0.50153
  Beta virt. eigenvalues --   -0.01954   0.17958

 Mulliken charges and spin densities:
               1          2
     1  H    0.143923  -0.126728
     2  F   -0.187037   0.679315
     3  H    0.043114   0.447413
 Sum of Mulliken charges =   0.00000   1.00000

 Dipole moment (field-independent basis, Debye):
    X=              0.0005    Y=             -1.4879    Z=              0.0000  Tot=              1.4879
 N-N= 2.328569686880D+01 E-N=-8.234365730012D+00  KE=-3.119017156946D+01
  Exact polarizability:   0.031   0.008  17.337   0.000  -0.000   0.031
 Approx polarizability:   0.010   0.005  10.266  -0.000  -0.000   0.010
 Leave Link  601 at Wed Oct 21 14:21:46 2020, MaxMem=  2684354560 cpu:               3.1 elap:               0.9
 (Enter /udrive/faculty/rpeverati/g16/g16/l701.exe)
 ... and contract with generalized density number  0.
 Compute integral second derivatives.
 Leave Link  701 at Wed Oct 21 14:21:47 2020, MaxMem=  2684354560 cpu:               4.5 elap:               1.0
 (Enter /udrive/faculty/rpeverati/g16/g16/l702.exe)
 L702 exits ... SP integral derivatives will be done elsewhere.

 ******    1 imaginary frequencies (negative Signs) ******

                      1                      2                      3
                     A'                     A'                     A'
 Frequencies --  -2193.6924               354.3983              2426.5532
 Red. masses --      1.0746                 1.0130                 1.0376
 Frc consts  --      3.0468                 0.0750                 3.5997
 IR Inten    --    309.9338                15.3815               119.6960

 - Thermochemistry -
 -------------------
 Temperature   298.150 Kelvin.  Pressure   1.00000 Atm.
 Atom     1 has atomic number  1 and mass   1.00783

 Molecular mass:    21.01405 amu.
 Principal axes and moments of inertia in atomic units:
                           1         2         3
     Eigenvalues --     0.00000  18.95577  18.95578
           X            0.00011   1.00000   0.00000
           Y            1.00000  -0.00011   0.00000
           Z            0.00000   0.00000   1.00000
 This molecule is an asymmetric top.
 Rotational symmetry number  1.
 Rotational temperatures (Kelvin) ************     4.56926     4.56926
 Rotational constants (GHZ):      ************    95.20800    95.20798
    1 imaginary frequencies ignored.
 Zero-point vibrational energy      16633.8 (Joules/Mol)
                                    3.97557 (Kcal/Mol)
 Warning -- explicit consideration of   1 degrees of freedom as
           vibrations may cause significant error
 Vibrational temperatures:    509.90  3491.27
          (Kelvin)

 Zero-point correction=                           0.006335 (Hartree/Particle)
 Thermal correction to Energy=                    0.009525
 Thermal correction to Enthalpy=                  0.010469
 Thermal correction to Gibbs Free Energy=        -0.007997
 Sum of electronic and zero-point Energies=              0.042752
 Sum of electronic and thermal Energies=                 0.045941
 Sum of electronic and thermal Enthalpies=               0.046885
 Sum of electronic and thermal Free Energies=            0.028419

                     E (Thermal)             CV                S
                      KCal/Mol        Cal/Mol-Kelvin    Cal/Mol-Kelvin
 Total                    5.977              7.530             38.865
 Electronic               0.000              0.000              1.377
 Translational            0.889              2.981             35.068
 Rotational               0.889              2.981              1.272
 Vibrational              4.199              1.568              1.147
 Vibration     1          0.730              1.566              1.147

 Optimization completed.
    -- Stationary point found.
 Normal termination of Gaussian 16 at Wed Oct 21 14:21:55 2020.
