 Gaussian 16, Revision A.03,

 ----------------------------------------------------------------------
 #P Opt(TS,MaxCyc=50,NoEigenTest,MaxStep=10,AddRedundant) AM1 5D 7F Int
 egral=UltraFineGrid SCF=(NoSymm,XQC,MaxCyc=120) IOp(1/33=1)
 ----------------------------------------------------------------------

 TstMul:  Mul=     3
 TstMul:  ICh=     0
 TstMul:  Mul=     3
 Symbolic Z-matrix:
 Charge =  0 Multiplicity = 3

 SCF Done:  E(UAM1) =  0.104960245591     A.U. after   12 cycles
 SCF Done:  E(UAM1) =  0.102321933769     A.U. after  121 cycles
 SCF Done:  E(UAM1) =  0.102319778852     a.u. after    7 cycles
 SCF Done:  E(UAM1) =  0.100904089966     A.U. after   12 cycles
 SCF Done:  E(UAM1) =  0.101920233894     A.U. after   17 cycles
 SCF Done:  E(UAM1) =  0.103187442050     A.U. after   12 cycles
 SCF Done:  E(UAM1) =  0.104685790697     A.U. after   13 cycles
 SCF Done:  E(UAM1) =  0.105374956626     A.U. after   14 cycles
 SCF Done:  E(UAM1) =  0.105454005856     A.U. after   13 cycles
 SCF Done:  E(UAM1) =  0.105461078414     A.U. after   12 cycles
 Optimization completed.
    -- Stationary point found.
 Normal termination of Gaussian 16 at Wed Oct 21 14:20:57 2020.
 Gaussian 16:  ES64L-G16RevA.03 25-Dec-2016

 ----------------------------------------------------------------------
 #P Freq AM1 5D 7F Integral=UltraFineGrid SCF=(NoSymm,XQC,MaxCyc=120) I
 Op(1/33=1) Geom=Check Guess=Read
 ----------------------------------------------------------------------

 TstMul:  Mul=     3
 TstMul:  ICh=     0
 TstMul:  Mul=     3
 Structure from the checkpoint file:  "MN_89_RKT14_BH76_AM1_SE.chk"
 Charge =  0 Multiplicity = 3

                         Standard orientation:
 ---------------------------------------------------------------------
 Center     Atomic      Atomic             Coordinates (Angstroms)
 Number     Number       Type             X           Y           Z
 ---------------------------------------------------------------------
      1          1           0       -0.001296   -0.932957   -0.000000
      2          8           0        0.000000    0.330592    0.000000
      3          1           0        0.001296   -1.711778    0.000000
 ---------------------------------------------------------------------

 SCF Done:  E(UAM1) =  0.105461078414     A.U. after    2 cycles

 The electronic state is 3-A".
 Alpha  occ. eigenvalues --   -1.31284  -0.67710  -0.54915  -0.49256  -0.42287
 Alpha virt. eigenvalues --    0.13977
  Beta  occ. eigenvalues --   -1.08557  -0.57544  -0.44502
  Beta virt. eigenvalues --   -0.01196   0.00369   0.18349

 Mulliken charges and spin densities:
               1          2
     1  H    0.127821  -0.131813
     2  O   -0.169093   1.670297
     3  H    0.041272   0.461516
 Sum of Mulliken charges =  -0.00000   2.00000

 Dipole moment (field-independent basis, Debye):
    X=             -0.0007    Y=             -1.4053    Z=             -0.0000  Tot=              1.4053
 N-N= 1.664430173340D+01 E-N=-7.142160713366D+00  KE=-2.037495566871D+01
  Exact polarizability:   0.043  -0.013  17.880  -0.004   0.000   0.819
 Approx polarizability:   0.013  -0.008  10.651  -0.002   0.000   0.486
 Leave Link  601 at Wed Oct 21 14:21:32 2020, MaxMem=  2684354560 cpu:               5.3 elap:               1.1
 (Enter /udrive/faculty/rpeverati/g16/g16/l701.exe)
 ... and contract with generalized density number  0.
 Compute integral second derivatives.
 Leave Link  701 at Wed Oct 21 14:21:34 2020, MaxMem=  2684354560 cpu:               7.9 elap:               1.5
 (Enter /udrive/faculty/rpeverati/g16/g16/l702.exe)
 L702 exits ... SP integral derivatives will be done elsewhere.

 ******    1 imaginary frequencies (negative Signs) ******

                      1                      2                      3
                     A'                     A'                     A'
 Frequencies --  -1710.3478               425.2097              2405.6383
 Red. masses --      1.0877                 1.0141                 1.0405
 Frc consts  --      1.8747                 0.1080                 3.5478
 IR Inten    --    129.4743                13.6994                54.3049

 - Thermochemistry -
 -------------------
 Temperature   298.150 Kelvin.  Pressure   1.00000 Atm.
 Atom     1 has atomic number  1 and mass   1.00783

 Molecular mass:    18.01056 amu.
 Principal axes and moments of inertia in atomic units:
                           1         2         3
     Eigenvalues --     0.00001  18.55745  18.55746
           X           -0.00020   1.00000   0.00000
           Y            1.00000   0.00020   0.00000
           Z           -0.00000   0.00000   1.00000
 This molecule is an asymmetric top.
 Rotational symmetry number  1.
 Rotational temperatures (Kelvin) ************     4.66734     4.66734
 Rotational constants (GHZ):      ************    97.25156    97.25150
    1 imaginary frequencies ignored.
 Zero-point vibrational energy      16932.2 (Joules/Mol)
                                    4.04690 (Kcal/Mol)
 Warning -- explicit consideration of   1 degrees of freedom as
           vibrations may cause significant error
 Vibrational temperatures:    611.78  3461.18
          (Kelvin)

 Zero-point correction=                           0.006449 (Hartree/Particle)
 Thermal correction to Energy=                    0.009567
 Thermal correction to Enthalpy=                  0.010512
 Thermal correction to Gibbs Free Energy=        -0.008476
 Sum of electronic and zero-point Energies=              0.111910
 Sum of electronic and thermal Energies=                 0.115029
 Sum of electronic and thermal Enthalpies=               0.115973
 Sum of electronic and thermal Free Energies=            0.096985

                     E (Thermal)             CV                S
                      KCal/Mol        Cal/Mol-Kelvin    Cal/Mol-Kelvin
 Total                    6.004              7.379             39.963
 Electronic               0.000              0.000              2.183
 Translational            0.889              2.981             34.608
 Rotational               0.889              2.981              2.297
 Vibrational              4.226              1.418              0.875
 Vibration     1          0.787              1.415              0.874

                           ! Non-Optimized Parameters !
 Normal termination of Gaussian 16 at Wed Oct 21 14:21:44 2020.
