 Gaussian 16, Revision A.03,

 ----------------------------------------------------------------------
 #P Opt(TS,MaxCyc=50,NoEigenTest,MaxStep=10,AddRedundant) AM1 5D 7F Int
 egral=UltraFineGrid SCF=(NoSymm,XQC,MaxCyc=120) IOp(1/33=1)
 ----------------------------------------------------------------------

 TstMul:  Mul=     2
 TstMul:  ICh=     0
 TstMul:  Mul=     2
 Symbolic Z-matrix:
 Charge =  0 Multiplicity = 2

 SCF Done:  E(UAM1) =  0.212243065859E-01 A.U. after   16 cycles
 SCF Done:  E(UAM1) =  0.199674332517E-01 A.U. after   14 cycles
 SCF Done:  E(UAM1) =  0.202787606297E-01 A.U. after   13 cycles
 SCF Done:  E(UAM1) =  0.205839973118E-01 A.U. after   13 cycles
 SCF Done:  E(UAM1) =  0.208171559540E-01 A.U. after   13 cycles
 SCF Done:  E(UAM1) =  0.209974548447E-01 A.U. after   13 cycles
 SCF Done:  E(UAM1) =  0.211866654388E-01 A.U. after   13 cycles
 SCF Done:  E(UAM1) =  0.208411437065E-01 A.U. after   14 cycles
 SCF Done:  E(UAM1) =  0.210824901492E-01 A.U. after   14 cycles
 SCF Done:  E(UAM1) =  0.213718871540E-01 A.U. after   15 cycles
 SCF Done:  E(UAM1) =  0.217572748457E-01 A.U. after   14 cycles
 SCF Done:  E(UAM1) =  0.220006991456E-01 A.U. after   14 cycles
 SCF Done:  E(UAM1) =  0.221053368441E-01 A.U. after   14 cycles
 SCF Done:  E(UAM1) =  0.221300616158E-01 A.U. after   17 cycles
 SCF Done:  E(UAM1) =  0.221295664498E-01 A.U. after   13 cycles
 SCF Done:  E(UAM1) =  0.221293421022E-01 A.U. after   12 cycles
 SCF Done:  E(UAM1) =  0.221292885045E-01 A.U. after   13 cycles
 SCF Done:  E(UAM1) =  0.221290893236E-01 A.U. after   13 cycles
 Optimization completed.
    -- Stationary point found.
 Normal termination of Gaussian 16 at Wed Oct 21 14:21:53 2020.
 Gaussian 16:  ES64L-G16RevA.03 25-Dec-2016

 ----------------------------------------------------------------------
 #P Freq AM1 5D 7F Integral=UltraFineGrid SCF=(NoSymm,XQC,MaxCyc=120) I
 Op(1/33=1) Geom=Check Guess=Read
 ----------------------------------------------------------------------

 TstMul:  Mul=     2
 TstMul:  ICh=     0
 TstMul:  Mul=     2
 Structure from the checkpoint file:  "MN_84_RKT08_BH76_AM1_SE.chk"
 Charge =  0 Multiplicity = 2

                         Standard orientation:
 ---------------------------------------------------------------------
 Center     Atomic      Atomic             Coordinates (Angstroms)
 Number     Number       Type             X           Y           Z
 ---------------------------------------------------------------------
      1          6           0        1.781655    0.000106   -0.000138
      2          1           0        2.057493    0.600939    0.884384
      3          1           0        2.052308    0.467350   -0.963407
      4          1           0        2.058647   -1.066171    0.076160
      5          1           0        0.518181   -0.003020    0.003938
      6         17           0       -1.022150    0.000016   -0.000014
 ---------------------------------------------------------------------

 SCF Done:  E(UAM1) =  0.221290893236E-01 A.U. after    2 cycles

 The electronic state is 2-A.
 Alpha  occ. eigenvalues --   -1.34007  -1.09962  -0.59664  -0.53613  -0.53611
 Alpha  occ. eigenvalues --   -0.43500  -0.43499  -0.39153
 Alpha virt. eigenvalues --    0.10121   0.13712   0.13714   0.14149
  Beta  occ. eigenvalues --   -1.29108  -1.06370  -0.53684  -0.52904  -0.52902
  Beta  occ. eigenvalues --   -0.42073  -0.42073
  Beta virt. eigenvalues --   -0.06646   0.12600   0.14624   0.14626   0.15503

 Mulliken charges and spin densities:
               1          2
     1  C   -0.219470   0.588864
     2  H    0.101666  -0.020043
     3  H    0.101710  -0.020129
     4  H    0.101654  -0.020021
     5  H    0.151562  -0.112910
     6  Cl  -0.237121   0.584239
 Sum of Mulliken charges =   0.00000   1.00000

 Dipole moment (field-independent basis, Debye):
    X=              2.7766    Y=             -0.0015    Z=              0.0019  Tot=              2.7766
 N-N= 3.791748606452D+01 E-N=-3.287697030647D+01  KE=-3.275252245051D+01
  Exact polarizability:  41.192  -0.019   8.724   0.025   0.001   8.722
 Approx polarizability:  23.483  -0.012   4.904   0.017   0.000   4.903
 Leave Link  601 at Wed Oct 21 14:22:16 2020, MaxMem=  2684354560 cpu:               1.7 elap:               0.7
 (Enter /udrive/faculty/rpeverati/g16/g16/l701.exe)
 ... and contract with generalized density number  0.
 Compute integral second derivatives.
 Leave Link  701 at Wed Oct 21 14:22:18 2020, MaxMem=  2684354560 cpu:               3.9 elap:               1.0
 (Enter /udrive/faculty/rpeverati/g16/g16/l702.exe)
 L702 exits ... SP integral derivatives will be done elsewhere.

 ******    1 imaginary frequencies (negative Signs) ******

                      1                      2                      3
                      A                      A                      A
 Frequencies --   -920.6232               184.5958               184.7341
 Red. masses --      1.0760                 1.0278                 1.0281
 Frc consts  --      0.5373                 0.0206                 0.0207
 IR Inten    --    444.9186                 6.6198                 6.6168

                      4                      5                      6
                      A                      A                      A
 Frequencies --    496.3926              1093.3797              1093.5050
 Red. masses --      6.9448                 1.0717                 1.0716
 Frc consts  --      1.0082                 0.7548                 0.7550
 IR Inten    --     18.7288                18.5644                18.5333

                      7                      8                      9
                      A                      A                      A
 Frequencies --   1360.5245              1360.6476              1441.1952
 Red. masses --      1.1021                 1.1020                 1.0928
 Frc consts  --      1.2019                 1.2020                 1.3373
 IR Inten    --      3.1703                 3.1719                16.7756

                     10                     11                     12
                      A                      A                      A
 Frequencies --   3143.6437              3143.6877              3189.0485
 Red. masses --      1.1001                 1.1001                 1.0175
 Frc consts  --      6.4053                 6.4055                 6.0967
 IR Inten    --     10.0040                10.0308                23.1076

 - Thermochemistry -
 -------------------
 Temperature   298.150 Kelvin.  Pressure   1.00000 Atm.
 Atom     1 has atomic number  6 and mass  12.00000

 Molecular mass:    51.00015 amu.
 Principal axes and moments of inertia in atomic units:
                           1         2         3
     Eigenvalues --    12.35315 315.21589 315.21650
           X            1.00000  -0.00001   0.00002
           Y            0.00001   1.00000   0.00033
           Z           -0.00002  -0.00033   1.00000
 This molecule is an asymmetric top.
 Rotational symmetry number  1.
 Rotational temperatures (Kelvin)      7.01148     0.27478     0.27478
 Rotational constants (GHZ):         146.09557     5.72541     5.72540
    1 imaginary frequencies ignored.
 Zero-point vibrational energy      99836.5 (Joules/Mol)
                                   23.86149 (Kcal/Mol)
 Warning -- explicit consideration of   3 degrees of freedom as
           vibrations may cause significant error
 Vibrational temperatures:    265.59   265.79   714.20  1573.13  1573.31
          (Kelvin)           1957.49  1957.67  2073.56  4523.00  4523.07
                             4588.33

 Zero-point correction=                           0.038026 (Hartree/Particle)
 Thermal correction to Energy=                    0.042330
 Thermal correction to Enthalpy=                  0.043274
 Thermal correction to Gibbs Free Energy=         0.011804
 Sum of electronic and zero-point Energies=              0.060155
 Sum of electronic and thermal Energies=                 0.064459
 Sum of electronic and thermal Enthalpies=               0.065404
 Sum of electronic and thermal Free Energies=            0.033933

                     E (Thermal)             CV                S
                      KCal/Mol        Cal/Mol-Kelvin    Cal/Mol-Kelvin
 Total                   26.563             11.846             66.236
 Electronic               0.000              0.000              1.377
 Translational            0.889              2.981             37.711
 Rotational               0.889              2.981             21.734
 Vibrational             24.785              5.885              5.414
 Vibration     1          0.631              1.861              2.281
 Vibration     2          0.631              1.861              2.280
 Vibration     3          0.852              1.258              0.667

                           ! Non-Optimized Parameters !
 Normal termination of Gaussian 16 at Wed Oct 21 14:22:25 2020.
