 Gaussian 16, Revision A.03,

 ----------------------------------------------------------------------
 #P Opt(TS,MaxCyc=50,NoEigenTest,MaxStep=10,AddRedundant) AM1 5D 7F Int
 egral=UltraFineGrid SCF=(NoSymm,XQC,MaxCyc=120) IOp(1/33=1)
 ----------------------------------------------------------------------

 TstMul:  Mul=     3
 TstMul:  ICh=     0
 TstMul:  Mul=     3
 Symbolic Z-matrix:
 Charge =  0 Multiplicity = 3

 SCF Done:  E(UAM1) =  0.127548954829     A.U. after   16 cycles
 SCF Done:  E(UAM1) =  0.124354412307     A.U. after   14 cycles
 SCF Done:  E(UAM1) =  0.124272405648     A.U. after   15 cycles
 SCF Done:  E(UAM1) =  0.124667044230     A.U. after   15 cycles
 SCF Done:  E(UAM1) =  0.124262647863     A.U. after   14 cycles
 SCF Done:  E(UAM1) =  0.124535618831     A.U. after   15 cycles
 SCF Done:  E(UAM1) =  0.121961163157     A.U. after   16 cycles
 SCF Done:  E(UAM1) =  0.121587719840     A.U. after   16 cycles
 SCF Done:  E(UAM1) =  0.119960507996     A.U. after   17 cycles
 SCF Done:  E(UAM1) =  0.118820286501     A.U. after   16 cycles
 SCF Done:  E(UAM1) =  0.124045300519     A.U. after   15 cycles
 SCF Done:  E(UAM1) =  0.123977477181     A.U. after   15 cycles
 SCF Done:  E(UAM1) =  0.123920781158     A.U. after   15 cycles
 SCF Done:  E(UAM1) =  0.123878853928     A.U. after   16 cycles
 SCF Done:  E(UAM1) =  0.123870947639     A.U. after   16 cycles
 SCF Done:  E(UAM1) =  0.123844704170     A.U. after   15 cycles
 SCF Done:  E(UAM1) =  0.123844225579     A.U. after   12 cycles
 SCF Done:  E(UAM1) =  0.123844151568     A.U. after   12 cycles
 SCF Done:  E(UAM1) =  0.123844125059     A.U. after   11 cycles
 Optimization completed.
    -- Stationary point found.
 Normal termination of Gaussian 16 at Wed Oct 21 14:34:50 2020.
 Gaussian 16:  ES64L-G16RevA.03 25-Dec-2016

 ----------------------------------------------------------------------
 #P Freq AM1 5D 7F Integral=UltraFineGrid SCF=(NoSymm,XQC,MaxCyc=120) I
 Op(1/33=1) Geom=Check Guess=Read
 ----------------------------------------------------------------------

 TstMul:  Mul=     3
 TstMul:  ICh=     0
 TstMul:  Mul=     3
 Structure from the checkpoint file:  "MN_93_RKT19_BH76_AM1_SE.chk"
 Charge =  0 Multiplicity = 3

                         Standard orientation:
 ---------------------------------------------------------------------
 Center     Atomic      Atomic             Coordinates (Angstroms)
 Number     Number       Type             X           Y           Z
 ---------------------------------------------------------------------
      1          6           0       -1.305809   -0.500400   -0.004834
      2          6           0       -0.468082    0.726464    0.006994
      3          7           0        1.966873   -0.120041   -0.012247
      4          1           0       -1.110892   -1.110254   -0.920973
      5          1           0       -1.098281   -1.136472    0.890466
      6          1           0       -2.392049   -0.230842    0.006603
      7          1           0       -0.577282    1.354184   -0.900299
      8          1           0       -0.561318    1.325585    0.935116
      9          1           0        0.769972    0.381472   -0.011258
     10          1           0        1.845089   -1.099769    0.073110
 ---------------------------------------------------------------------

 SCF Done:  E(UAM1) =  0.123844125059     A.U. after    2 cycles

 The electronic state is 3-A.
 Alpha  occ. eigenvalues --   -1.24715  -1.13478  -0.86995  -0.58683  -0.56197
 Alpha  occ. eigenvalues --   -0.52856  -0.49740  -0.47174  -0.45100  -0.44397
 Alpha  occ. eigenvalues --   -0.35297
 Alpha virt. eigenvalues --    0.13583   0.14251   0.15840   0.16234   0.16951
 Alpha virt. eigenvalues --    0.17783   0.17862   0.18715
  Beta  occ. eigenvalues --   -1.22412  -0.99743  -0.84852  -0.55801  -0.55185
  Beta  occ. eigenvalues --   -0.50712  -0.48278  -0.44212  -0.39849
  Beta virt. eigenvalues --    0.00710   0.04713   0.14486   0.15058   0.16954
  Beta virt. eigenvalues --    0.17374   0.18237   0.18390   0.19480   0.21177

 Mulliken charges and spin densities:
               1          2
     1  C   -0.214602  -0.037274
     2  C   -0.244710   0.536834
     3  N   -0.174372   1.733369
     4  H    0.074664   0.004687
     5  H    0.073614   0.004646
     6  H    0.080123   0.026667
     7  H    0.090867  -0.020633
     8  H    0.089744  -0.020630
     9  H    0.139406  -0.170904
    10  H    0.085266  -0.056761
 Sum of Mulliken charges =  -0.00000   2.00000

 Dipole moment (field-independent basis, Debye):
    X=             -1.3203    Y=             -0.9296    Z=              0.1144  Tot=              1.6187
 N-N= 5.858856603164D+01 E-N=-7.244421468085D+01  KE=-3.132847455722D+01
  Exact polarizability:  49.417  -8.826  24.934  -0.120  -0.259  19.819
 Approx polarizability:  24.935  -4.265  14.734  -0.105  -0.209  11.431
 Leave Link  601 at Wed Oct 21 14:35:36 2020, MaxMem=  2684354560 cpu:               3.4 elap:               1.0
 (Enter /udrive/faculty/rpeverati/g16/g16/l701.exe)
 ... and contract with generalized density number  0.
 Compute integral second derivatives.
 Leave Link  701 at Wed Oct 21 14:35:38 2020, MaxMem=  2684354560 cpu:               8.0 elap:               1.7
 (Enter /udrive/faculty/rpeverati/g16/g16/l702.exe)
 L702 exits ... SP integral derivatives will be done elsewhere.

 ******    1 imaginary frequencies (negative Signs) ******

                      1                      2                      3
                      A                      A                      A
 Frequencies --  -2391.6904                37.8474               125.4197
 Red. masses --      1.0706                 1.0583                 2.0830
 Frc consts  --      3.6082                 0.0009                 0.0193
 IR Inten    --   1626.8771                64.8298                 2.3786

                      4                      5                      6
                      A                      A                      A
 Frequencies --    131.1883               398.5629               609.6547
 Red. masses --      1.1830                 1.0833                 2.9079
 Frc consts  --      0.0120                 0.1014                 0.6368
 IR Inten    --      5.6312                11.3570                 1.9993

                      7                      8                      9
                      A                      A                      A
 Frequencies --    725.5593               875.7952              1000.9967
 Red. masses --      1.3969                 1.0541                 1.1647
 Frc consts  --      0.4333                 0.4764                 0.6876
 IR Inten    --     62.0078                 6.1520                 1.4893

                     10                     11                     12
                      A                      A                      A
 Frequencies --   1172.4224              1189.3074              1209.9220
 Red. masses --      1.4582                 1.0621                 1.2233
 Frc consts  --      1.1810                 0.8851                 1.0551
 IR Inten    --      0.7880                21.0642                 9.5886

                     13                     14                     15
                      A                      A                      A
 Frequencies --   1280.9056              1371.0872              1385.4701
 Red. masses --      1.8779                 1.0619                 1.0729
 Frc consts  --      1.8154                 1.1761                 1.2134
 IR Inten    --      3.6112                12.2458                 2.0821

                     16                     17                     18
                      A                      A                      A
 Frequencies --   1388.3845              1424.5410              1449.2157
 Red. masses --      1.0767                 1.1627                 1.7266
 Frc consts  --      1.2229                 1.3902                 2.1366
 IR Inten    --      1.3794                10.2612                 2.5234

                     19                     20                     21
                      A                      A                      A
 Frequencies --   3046.1690              3054.4610              3110.9242
 Red. masses --      1.0892                 1.0887                 1.1001
 Frc consts  --      5.9546                 5.9843                 6.2729
 IR Inten    --      0.8209                 0.0650                 1.9273

                     22                     23                     24
                      A                      A                      A
 Frequencies --   3143.0368              3159.5125              3478.3640
 Red. masses --      1.0307                 1.0430                 1.0726
 Frc consts  --      5.9992                 6.1343                 7.6459
 IR Inten    --      5.0152                 4.4761                 6.7243

 - Thermochemistry -
 -------------------
 Temperature   298.150 Kelvin.  Pressure   1.00000 Atm.
 Atom     1 has atomic number  6 and mass  12.00000

 Molecular mass:    45.05785 amu.
 Principal axes and moments of inertia in atomic units:
                           1         2         3
     Eigenvalues --    73.12104 333.24320 382.36618
           X            1.00000  -0.00260   0.00168
           Y            0.00260   0.99999  -0.00407
           Z           -0.00166   0.00408   0.99999
 This molecule is an asymmetric top.
 Rotational symmetry number  1.
 Rotational temperatures (Kelvin)      1.18453     0.25991     0.22652
 Rotational constants (GHZ):          24.68156     5.41569     4.71993
    1 imaginary frequencies ignored.
 Zero-point vibrational energy     207963.3 (Joules/Mol)
                                   49.70442 (Kcal/Mol)
 Warning -- explicit consideration of   5 degrees of freedom as
           vibrations may cause significant error
 Vibrational temperatures:     54.45   180.45   188.75   573.44   877.16
          (Kelvin)           1043.92  1260.07  1440.21  1686.85  1711.15
                             1740.81  1842.94  1972.69  1993.38  1997.58
                             2049.60  2085.10  4382.76  4394.69  4475.93
                             4522.13  4545.83  5004.59

 Zero-point correction=                           0.079209 (Hartree/Particle)
 Thermal correction to Energy=                    0.085031
 Thermal correction to Enthalpy=                  0.085975
 Thermal correction to Gibbs Free Energy=         0.049505
 Sum of electronic and zero-point Energies=              0.203053
 Sum of electronic and thermal Energies=                 0.208875
 Sum of electronic and thermal Enthalpies=               0.209820
 Sum of electronic and thermal Free Energies=            0.173349

                     E (Thermal)             CV                S
                      KCal/Mol        Cal/Mol-Kelvin    Cal/Mol-Kelvin
 Total                   53.358             17.286             76.758
 Electronic               0.000              0.000              2.183
 Translational            0.889              2.981             37.342
 Rotational               0.889              2.981             23.748
 Vibrational             51.580             11.324             13.486
 Vibration     1          0.594              1.982              5.369
 Vibration     2          0.610              1.928              3.015
 Vibration     3          0.612              1.922              2.929
 Vibration     4          0.765              1.473              0.968
 Vibration     5          0.969              1.011              0.433

                           ! Non-Optimized Parameters !
 Normal termination of Gaussian 16 at Wed Oct 21 14:35:52 2020.
