 Gaussian 16, Revision A.03,

 ----------------------------------------------------------------------
 #P Opt(TS,MaxCyc=50,NoEigenTest,MaxStep=10,AddRedundant) AM1 5D 7F Int
 egral=UltraFineGrid SCF=(NoSymm,MaxCyc=120) IOp(1/33=1)
 ----------------------------------------------------------------------

 TstMul:  Mul=     3
 TstMul:  ICh=     0
 TstMul:  Mul=     3
 Symbolic Z-matrix:
 Charge =  0 Multiplicity = 3

 SCF Done:  E(UAM1) =  0.847548449019E-01 A.U. after   22 cycles
 SCF Done:  E(UAM1) =  0.846443085166E-01 A.U. after   13 cycles
 SCF Done:  E(UAM1) =  0.846743263745E-01 A.U. after   13 cycles
 SCF Done:  E(UAM1) =  0.847143437402E-01 A.U. after   14 cycles
 SCF Done:  E(UAM1) =  0.846572571313E-01 A.U. after   16 cycles
 SCF Done:  E(UAM1) =  0.846052833045E-01 A.U. after   16 cycles
 SCF Done:  E(UAM1) =  0.846262440587E-01 A.U. after   16 cycles
 SCF Done:  E(UAM1) =  0.846026436329E-01 A.U. after   15 cycles
 SCF Done:  E(UAM1) =  0.845221984119E-01 A.U. after   16 cycles
 SCF Done:  E(UAM1) =  0.844212773027E-01 A.U. after   16 cycles
 SCF Done:  E(UAM1) =  0.843433746644E-01 A.U. after   16 cycles
 SCF Done:  E(UAM1) =  0.843182273898E-01 A.U. after   16 cycles
 SCF Done:  E(UAM1) =  0.843176863686E-01 A.U. after   15 cycles
 Optimization completed.
    -- Stationary point found.
 Normal termination of Gaussian 16 at Wed Oct 28 14:38:53 2020.
 Gaussian 16:  ES64L-G16RevA.03 25-Dec-2016

 ----------------------------------------------------------------------
 #P Freq AM1 5D 7F Integral=UltraFineGrid SCF=(NoSymm,MaxCyc=120) IOp(1
 /33=1) Geom=Check Guess=Read
 ----------------------------------------------------------------------

 TstMul:  Mul=     3
 TstMul:  ICh=     0
 TstMul:  Mul=     3
 Structure from the checkpoint file:  "MN_91_RKT17_BH76_AM1_SE.chk"
 Charge =  0 Multiplicity = 3

                         Standard orientation:
 ---------------------------------------------------------------------
 Center     Atomic      Atomic             Coordinates (Angstroms)
 Number     Number       Type             X           Y           Z
 ---------------------------------------------------------------------
      1         17           0        0.000021   -0.894471   -0.000000
      2          1           0       -0.000514    0.534466    0.000000
      3          8           0        0.000021    1.833942    0.000000
 ---------------------------------------------------------------------

 SCF Done:  E(UAM1) =  0.843176863687E-01 A.U. after    2 cycles

 The electronic state is 3-A".
 Alpha  occ. eigenvalues --   -1.38819  -1.34835  -0.70870  -0.59826  -0.54172
 Alpha  occ. eigenvalues --   -0.49803  -0.46515  -0.46493
 Alpha virt. eigenvalues --    0.06695
  Beta  occ. eigenvalues --   -1.34262  -1.11762  -0.60458  -0.49284  -0.45469
  Beta  occ. eigenvalues --   -0.45428
  Beta virt. eigenvalues --   -0.11541  -0.04390   0.11406

 Mulliken charges and spin densities:
               1          2
     1  Cl  -0.142985   0.435449
     2  H    0.194560  -0.168615
     3  O   -0.051575   1.733166
 Sum of Mulliken charges =   0.00000   2.00000

 Dipole moment (field-independent basis, Debye):
    X=             -0.0006    Y=              0.7156    Z=             -0.0000  Tot=              0.7156
 N-N= 3.785350553516D+01 E-N=-2.276871761973D+01  KE=-4.228968186224D+01
  Exact polarizability:   0.053  -0.003  34.520  -0.000  -0.000   0.824
 Approx polarizability:   0.026  -0.002  21.844  -0.000  -0.000   0.499
 Leave Link  601 at Wed Oct 28 14:38:55 2020, MaxMem=  2684354560 cpu:               0.3 elap:               0.1
 (Enter /udrive/faculty/rpeverati/g16/g16/l701.exe)
 ... and contract with generalized density number  0.
 Compute integral second derivatives.
 Leave Link  701 at Wed Oct 28 14:38:55 2020, MaxMem=  2684354560 cpu:               0.9 elap:               0.1
 (Enter /udrive/faculty/rpeverati/g16/g16/l702.exe)
 L702 exits ... SP integral derivatives will be done elsewhere.

 ******    1 imaginary frequencies (negative Signs) ******

                      1                      2                      3
                     A'                     A'                     A'
 Frequencies --  -2297.2640               345.9611               528.2524
 Red. masses --      1.0609                 1.0305                12.0389
 Frc consts  --      3.2988                 0.0727                 1.9793
 IR Inten    --    698.7532                61.8384                 0.7148

 - Thermochemistry -
 -------------------
 Temperature   298.150 Kelvin.  Pressure   1.00000 Atm.
 Atom     1 has atomic number 17 and mass  34.96885

 Molecular mass:    51.97159 amu.
 Principal axes and moments of inertia in atomic units:
                           1         2         3
     Eigenvalues --     0.00000 292.91300 292.91300
           X           -0.00000   1.00000   0.00000
           Y            1.00000   0.00000   0.00000
           Z            0.00000   0.00000   1.00000
 This molecule is an asymmetric top.
 Rotational symmetry number  1.
 Rotational temperatures (Kelvin) ************     0.29570     0.29570
 Rotational constants (GHZ):      ************     6.16136     6.16136
    1 imaginary frequencies ignored.
 Zero-point vibrational energy       5229.0 (Joules/Mol)
                                    1.24975 (Kcal/Mol)
 Warning -- explicit consideration of   2 degrees of freedom as
           vibrations may cause significant error
 Vibrational temperatures:    497.76   760.04
          (Kelvin)

 Zero-point correction=                           0.001992 (Hartree/Particle)
 Thermal correction to Energy=                    0.005394
 Thermal correction to Enthalpy=                  0.006338
 Thermal correction to Gibbs Free Energy=        -0.016038
 Sum of electronic and zero-point Energies=              0.086309
 Sum of electronic and thermal Energies=                 0.089712
 Sum of electronic and thermal Enthalpies=               0.090656
 Sum of electronic and thermal Free Energies=            0.068280

                     E (Thermal)             CV                S
                      KCal/Mol        Cal/Mol-Kelvin    Cal/Mol-Kelvin
 Total                    3.385              8.733             47.094
 Electronic               0.000              0.000              2.183
 Translational            0.889              2.981             37.767
 Rotational               0.889              2.981              5.368
 Vibrational              1.607              2.771              1.776
 Vibration     1          0.724              1.583              1.185
 Vibration     2          0.883              1.187              0.591

 Optimization completed.
    -- Stationary point found.
 Normal termination of Gaussian 16 at Wed Oct 28 14:38:56 2020.
