 Gaussian 16, Revision A.03,

 ----------------------------------------------------------------------
 #P Opt(TS,MaxCyc=50,NoEigenTest,MaxStep=10,AddRedundant) AM1 5D 7F Int
 egral=UltraFineGrid SCF=(NoSymm,XQC,MaxCyc=120) IOp(1/33=1)
 ----------------------------------------------------------------------

 TstMul:  Mul=     2
 TstMul:  ICh=     0
 TstMul:  Mul=     2
 Symbolic Z-matrix:
 Charge =  0 Multiplicity = 2

 SCF Done:  E(UAM1) =  0.781385013577E-01 A.U. after   16 cycles
 SCF Done:  E(UAM1) =  0.763969296151E-01 A.U. after   15 cycles
 SCF Done:  E(UAM1) =  0.764953456605E-01 A.U. after   14 cycles
 SCF Done:  E(UAM1) =  0.760052979241E-01 A.U. after   15 cycles
 SCF Done:  E(UAM1) =  0.761495648722E-01 A.U. after   15 cycles
 SCF Done:  E(UAM1) =  0.763378061240E-01 A.U. after   15 cycles
 SCF Done:  E(UAM1) =  0.763216489971E-01 A.U. after   15 cycles
 SCF Done:  E(UAM1) =  0.761617253487E-01 A.U. after   15 cycles
 SCF Done:  E(UAM1) =  0.763394956087E-01 A.U. after   15 cycles
 SCF Done:  E(UAM1) =  0.763084755919E-01 A.U. after   15 cycles
 SCF Done:  E(UAM1) =  0.762668454592E-01 A.U. after   15 cycles
 SCF Done:  E(UAM1) =  0.762469231536E-01 A.U. after   14 cycles
 SCF Done:  E(UAM1) =  0.762715498179E-01 A.U. after   14 cycles
 SCF Done:  E(UAM1) =  0.762479837165E-01 A.U. after   14 cycles
 SCF Done:  E(UAM1) =  0.762456398615E-01 A.U. after   15 cycles
 SCF Done:  E(UAM1) =  0.762420614014E-01 A.U. after   15 cycles
 SCF Done:  E(UAM1) =  0.762413484731E-01 A.U. after   15 cycles
 SCF Done:  E(UAM1) =  0.762411498541E-01 A.U. after   14 cycles
 SCF Done:  E(UAM1) =  0.762411182426E-01 A.U. after   13 cycles
 Optimization completed.
    -- Stationary point found.
 Normal termination of Gaussian 16 at Wed Oct 21 14:27:04 2020.
 Gaussian 16:  ES64L-G16RevA.03 25-Dec-2016

 ----------------------------------------------------------------------
 #P Freq AM1 5D 7F Integral=UltraFineGrid SCF=(NoSymm,XQC,MaxCyc=120) I
 Op(1/33=1) Geom=Check Guess=Read
 ----------------------------------------------------------------------

 TstMul:  Mul=     2
 TstMul:  ICh=     0
 TstMul:  Mul=     2
 Structure from the checkpoint file:  "MN_95_RKT21_BH76_AM1_SE.chk"
 Charge =  0 Multiplicity = 2

                         Standard orientation:
 ---------------------------------------------------------------------
 Center     Atomic      Atomic             Coordinates (Angstroms)
 Number     Number       Type             X           Y           Z
 ---------------------------------------------------------------------
      1          6           0       -1.255272    0.000003    0.013519
      2          7           0        1.302890   -0.000002   -0.127772
      3          1           0       -1.478197    0.919329    0.581106
      4          1           0       -1.478382   -0.919868    0.580160
      5          1           0       -1.698772    0.000554   -0.997156
      6          1           0        0.006652   -0.000049   -0.194696
      7          1           0        1.530032    0.803303    0.421922
      8          1           0        1.530069   -0.803274    0.421956
 ---------------------------------------------------------------------

 SCF Done:  E(UAM1) =  0.762411182426E-01 A.U. after    2 cycles

 The electronic state is 2-A.
 Alpha  occ. eigenvalues --   -1.20594  -1.03804  -0.59126  -0.55775  -0.50293
 Alpha  occ. eigenvalues --   -0.50188  -0.42808  -0.35467
 Alpha virt. eigenvalues --    0.14373   0.16686   0.16752   0.17113   0.19149
 Alpha virt. eigenvalues --    0.20963
  Beta  occ. eigenvalues --   -1.15456  -1.00215  -0.58152  -0.51589  -0.49629
  Beta  occ. eigenvalues --   -0.49405  -0.38150
  Beta virt. eigenvalues --    0.00640   0.17070   0.17596   0.17640   0.18069
  Beta virt. eigenvalues --    0.21219   0.21939

 Mulliken charges and spin densities:
               1          2
     1  C   -0.305885   0.552016
     2  N   -0.293511   0.713867
     3  H    0.074438  -0.021396
     4  H    0.074444  -0.021396
     5  H    0.087238  -0.020708
     6  H    0.152985  -0.152907
     7  H    0.105146  -0.024738
     8  H    0.105145  -0.024738
 Sum of Mulliken charges =   0.00000   1.00000

 Dipole moment (field-independent basis, Debye):
    X=             -0.3718    Y=              0.0000    Z=              1.6441  Tot=              1.6856
 N-N= 3.747710888085D+01 E-N=-4.124599542019D+01  KE=-2.374921882933D+01
  Exact polarizability:  45.106   0.000  16.248   0.320  -0.000  11.968
 Approx polarizability:  20.216   0.000   9.645   0.135  -0.000   7.016
 Leave Link  601 at Wed Oct 21 14:27:38 2020, MaxMem=  2684354560 cpu:               4.8 elap:               1.5
 (Enter /udrive/faculty/rpeverati/g16/g16/l701.exe)
 ... and contract with generalized density number  0.
 Compute integral second derivatives.
 Leave Link  701 at Wed Oct 21 14:27:40 2020, MaxMem=  2684354560 cpu:               5.0 elap:               1.1
 (Enter /udrive/faculty/rpeverati/g16/g16/l702.exe)
 L702 exits ... SP integral derivatives will be done elsewhere.

 ******    1 imaginary frequencies (negative Signs) ******

                      1                      2                      3
                      A                      A                      A
 Frequencies --  -2507.1609                15.1292               313.7620
 Red. masses --      1.0634                 1.0242                 1.1418
 Frc consts  --      3.9384                 0.0001                 0.0662
 IR Inten    --   1859.4158                38.0152                 9.7673

                      4                      5                      6
                      A                      A                      A
 Frequencies --    318.9501               674.9835               850.5205
 Red. masses --      1.0157                 3.2644                 1.1239
 Frc consts  --      0.0609                 0.8763                 0.4790
 IR Inten    --      5.0129                18.8855                 1.1920

                      7                      8                      9
                      A                      A                      A
 Frequencies --    921.4734              1313.6342              1348.6456
 Red. masses --      1.2456                 1.0776                 1.1201
 Frc consts  --      0.6231                 1.0956                 1.2004
 IR Inten    --     89.3982                13.3526                64.7843

                     10                     11                     12
                      A                      A                      A
 Frequencies --   1376.8510              1377.9476              1406.2827
 Red. masses --      1.0633                 1.1010                 1.0768
 Frc consts  --      1.1876                 1.2317                 1.2547
 IR Inten    --      0.0501                 1.9829                15.2384

                     13                     14                     15
                      A                      A                      A
 Frequencies --   1682.5671              3146.7710              3147.9462
 Red. masses --      1.0857                 1.0985                 1.0984
 Frc consts  --      1.8110                 6.4086                 6.4131
 IR Inten    --      0.9647                 1.9519                 0.2076

                     16                     17                     18
                      A                      A                      A
 Frequencies --   3201.0011              3431.2217              3474.8548
 Red. masses --      1.0190                 1.0912                 1.0437
 Frc consts  --      6.1519                 7.5692                 7.4254
 IR Inten    --     10.8175                 0.0213                10.4642

 - Thermochemistry -
 -------------------
 Temperature   298.150 Kelvin.  Pressure   1.00000 Atm.
 Atom     1 has atomic number  6 and mass  12.00000

 Molecular mass:    32.05002 amu.
 Principal axes and moments of inertia in atomic units:
                           1         2         3
     Eigenvalues --    18.80539 203.27353 205.93167
           X            0.99973   0.00000   0.02325
           Y           -0.00000   1.00000  -0.00000
           Z           -0.02325   0.00000   0.99973
 This molecule is an asymmetric top.
 Rotational symmetry number  1.
 Rotational temperatures (Kelvin)      4.60580     0.42610     0.42060
 Rotational constants (GHZ):          95.96933     8.87839     8.76379
    1 imaginary frequencies ignored.
 Zero-point vibrational energy     167492.4 (Joules/Mol)
                                   40.03164 (Kcal/Mol)
 Warning -- explicit consideration of   3 degrees of freedom as
           vibrations may cause significant error
 Vibrational temperatures:     21.77   451.43   458.90   971.15  1223.71
          (Kelvin)           1325.79  1890.03  1940.40  1980.98  1982.56
                             2023.33  2420.84  4527.50  4529.19  4605.53
                             4936.76  4999.54

 Zero-point correction=                           0.063794 (Hartree/Particle)
 Thermal correction to Energy=                    0.068621
 Thermal correction to Enthalpy=                  0.069565
 Thermal correction to Gibbs Free Energy=         0.036502
 Sum of electronic and zero-point Energies=              0.140036
 Sum of electronic and thermal Energies=                 0.144862
 Sum of electronic and thermal Enthalpies=               0.145806
 Sum of electronic and thermal Free Energies=            0.112743

                     E (Thermal)             CV                S
                      KCal/Mol        Cal/Mol-Kelvin    Cal/Mol-Kelvin
 Total                   43.060             13.792             69.588
 Electronic               0.000              0.000              1.377
 Translational            0.889              2.981             36.326
 Rotational               0.889              2.981             21.292
 Vibrational             41.283              7.830             10.592
 Vibration     1          0.593              1.986              7.189
 Vibration     2          0.702              1.647              1.342
 Vibration     3          0.705              1.637              1.315

 Optimization completed.
    -- Stationary point found.
 Normal termination of Gaussian 16 at Wed Oct 21 14:27:51 2020.
