 Gaussian 16, Revision A.03,

 ----------------------------------------------------------------------
 #P Opt(TS,MaxCyc=50,NoEigenTest,MaxStep=10,AddRedundant) AM1 5D 7F Int
 egral=UltraFineGrid SCF=(NoSymm,XQC,MaxCyc=120) IOp(1/33=1)
 ----------------------------------------------------------------------

 TstMul:  Mul=     1
 TstMul:  ICh=     0
 TstMul:  Mul=     1
 Symbolic Z-matrix:
 Charge =  0 Multiplicity = 1

 SCF Done:  E(RAM1) =  0.101848959017     A.U. after   15 cycles
 SCF Done:  E(RAM1) =  0.986871130409E-01 A.U. after   13 cycles
 SCF Done:  E(RAM1) =  0.979910829024E-01 A.U. after   13 cycles
 SCF Done:  E(RAM1) =  0.979965804854E-01 A.U. after   13 cycles
 SCF Done:  E(RAM1) =  0.975996537530E-01 A.U. after   14 cycles
 SCF Done:  E(RAM1) =  0.962944820356E-01 A.U. after   13 cycles
 SCF Done:  E(RAM1) =  0.967808105389E-01 A.U. after   14 cycles
 SCF Done:  E(RAM1) =  0.962173158811E-01 A.U. after   13 cycles
 SCF Done:  E(RAM1) =  0.961429026338E-01 A.U. after   13 cycles
 SCF Done:  E(RAM1) =  0.961245311090E-01 A.U. after   12 cycles
 SCF Done:  E(RAM1) =  0.962447196851E-01 A.U. after   13 cycles
 SCF Done:  E(RAM1) =  0.961130170853E-01 A.U. after   13 cycles
 SCF Done:  E(RAM1) =  0.961083664734E-01 A.U. after   11 cycles
 SCF Done:  E(RAM1) =  0.961081798372E-01 A.U. after   10 cycles
 Optimization completed.
    -- Stationary point found.
 Normal termination of Gaussian 16 at Wed Oct 21 14:21:29 2020.
 Gaussian 16:  ES64L-G16RevA.03 25-Dec-2016

 ----------------------------------------------------------------------
 #P Freq AM1 5D 7F Integral=UltraFineGrid SCF=(NoSymm,XQC,MaxCyc=120) I
 Op(1/33=1) Geom=Check Guess=Read
 ----------------------------------------------------------------------

 TstMul:  Mul=     1
 TstMul:  ICh=     0
 TstMul:  Mul=     1
 Structure from the checkpoint file:  "MN_96_RKT22_BH76_AM1_SE.chk"
 Charge =  0 Multiplicity = 1

                         Standard orientation:
 ---------------------------------------------------------------------
 Center     Atomic      Atomic             Coordinates (Angstroms)
 Number     Number       Type             X           Y           Z
 ---------------------------------------------------------------------
      1          6           0       -1.264693   -0.899990   -0.010047
      2          6           0       -1.204891    0.506586   -0.025614
      3          6           0        0.000057    1.185711    0.129168
      4          6           0        1.204909    0.506511   -0.025542
      5          6           0        1.264629   -0.900068   -0.010141
      6          1           0        2.097834   -1.371591   -0.561842
      7          1           0        1.045983   -1.427007    0.941519
      8          1           0        2.083740    1.080279   -0.361623
      9          1           0        0.000088    2.285726    0.164377
     10          1           0       -2.083561    1.080431   -0.362023
     11          1           0       -2.097993   -1.371594   -0.561561
     12          1           0       -0.000124   -1.241911   -0.547467
     13          1           0       -1.046031   -1.426828    0.941672
 ---------------------------------------------------------------------

 SCF Done:  E(RAM1) =  0.961081798371E-01 A.U. after    2 cycles

 The electronic state is 1-A.
 Alpha  occ. eigenvalues --   -1.38181  -1.13918  -1.03795  -0.81377  -0.70183
 Alpha  occ. eigenvalues --   -0.61994  -0.52697  -0.52363  -0.51850  -0.47719
 Alpha  occ. eigenvalues --   -0.45657  -0.44696  -0.35694  -0.31328
 Alpha virt. eigenvalues --    0.00632   0.05035   0.13748   0.15298   0.15738
 Alpha virt. eigenvalues --    0.16310   0.17008   0.17012   0.18343   0.18856
 Alpha virt. eigenvalues --    0.19257   0.20387   0.21568   0.21844

 Mulliken charges:
               1
     1  C   -0.236943
     2  C   -0.145899
     3  C   -0.157780
     4  C   -0.145894
     5  C   -0.236977
     6  H    0.091234
     7  H    0.108355
     8  H    0.124166
     9  H    0.125985
    10  H    0.124169
    11  H    0.091234
    12  H    0.150003
    13  H    0.108347
 Sum of Mulliken charges =  -0.00000

 Dipole moment (field-independent basis, Debye):
    X=             -0.0001    Y=             -0.3950    Z=             -0.2548  Tot=              0.4701
 N-N= 1.046481377807D+02 E-N=-1.486062472587D+02  KE=-4.186875566725D+01
  Exact polarizability:  70.965  -0.003  60.856   0.000   0.368  19.553
 Approx polarizability:  58.401  -0.004  49.139   0.000   2.033  13.202
 Leave Link  601 at Wed Oct 21 14:21:59 2020, MaxMem=  2684354560 cpu:               1.0 elap:               0.5
 (Enter /udrive/faculty/rpeverati/g16/g16/l701.exe)
 ... and contract with generalized density number  0.
 Compute integral second derivatives.
 Leave Link  701 at Wed Oct 21 14:22:01 2020, MaxMem=  2684354560 cpu:               4.0 elap:               0.9
 (Enter /udrive/faculty/rpeverati/g16/g16/l702.exe)
 L702 exits ... SP integral derivatives will be done elsewhere.

 ******    1 imaginary frequencies (negative Signs) ******

                      1                      2                      3
                      A                      A                      A
 Frequencies --  -1902.1062               289.5107               453.3733
 Red. masses --      1.2747                 1.9969                 1.8684
 Frc consts  --      2.7173                 0.0986                 0.2263
 IR Inten    --      3.7001                 0.3093                 0.8045

                      4                      5                      6
                      A                      A                      A
 Frequencies --    507.2791               528.2473               641.6923
 Red. masses --      3.1984                 3.1918                 1.1901
 Frc consts  --      0.4849                 0.5248                 0.2887
 IR Inten    --      1.6530                 1.4426                14.3036

                      7                      8                      9
                      A                      A                      A
 Frequencies --    765.4519               811.9231               841.9475
 Red. masses --      1.4470                 1.2283                 1.4872
 Frc consts  --      0.4995                 0.4771                 0.6211
 IR Inten    --     14.0945                 2.9205                71.4634

                     10                     11                     12
                      A                      A                      A
 Frequencies --    942.4894               962.6422              1023.8521
 Red. masses --      1.2155                 1.3605                 1.4505
 Frc consts  --      0.6362                 0.7428                 0.8958
 IR Inten    --      2.5382                 3.9814                 1.0803

                     13                     14                     15
                      A                      A                      A
 Frequencies --   1047.9749              1097.0790              1179.5845
 Red. masses --      1.7107                 1.5552                 1.1749
 Frc consts  --      1.1070                 1.1028                 0.9632
 IR Inten    --      7.9177                11.6687                 1.3650

                     16                     17                     18
                      A                      A                      A
 Frequencies --   1201.2863              1233.6184              1313.6774
 Red. masses --      1.2670                 1.0460                 1.2206
 Frc consts  --      1.0773                 0.9379                 1.2411
 IR Inten    --      0.0197                 0.1118                 0.4375

                     19                     20                     21
                      A                      A                      A
 Frequencies --   1314.8177              1402.5943              1411.5372
 Red. masses --      1.5430                 1.0871                 1.0943
 Frc consts  --      1.5716                 1.2600                 1.2846
 IR Inten    --      3.7554                 0.0255                16.5563

                     22                     23                     24
                      A                      A                      A
 Frequencies --   1450.6924              1579.2539              1688.0314
 Red. masses --      1.5437                 4.0178                 1.4450
 Frc consts  --      1.9141                 5.9040                 2.4259
 IR Inten    --      1.9842                 0.8031                 9.6397

                     25                     26                     27
                      A                      A                      A
 Frequencies --   1716.4335              1730.3211              3095.6326
 Red. masses --      2.5880                 5.2340                 1.0930
 Frc consts  --      4.4923                 9.2329                 6.1713
 IR Inten    --      1.6763                16.6019                 0.5256

                     28                     29                     30
                      A                      A                      A
 Frequencies --   3097.0867              3157.5475              3160.2148
 Red. masses --      1.0919                 1.0545                 1.0543
 Frc consts  --      6.1709                 6.1946                 6.2034
 IR Inten    --      7.4761                17.7837                16.4962

                     31                     32                     33
                      A                      A                      A
 Frequencies --   3166.5558              3166.9605              3188.0516
 Red. masses --      1.0780                 1.0764                 1.0832
 Frc consts  --      6.3688                 6.3608                 6.4865
 IR Inten    --      5.9241                33.8642                30.9629

 - Thermochemistry -
 -------------------
 Temperature   298.150 Kelvin.  Pressure   1.00000 Atm.
 Atom     1 has atomic number  6 and mass  12.00000

 Molecular mass:    68.06260 amu.
 Principal axes and moments of inertia in atomic units:
                           1         2         3
     Eigenvalues --   223.86602 343.80571 544.67498
           X            1.00000   0.00001   0.00000
           Y           -0.00001   0.99988  -0.01518
           Z           -0.00000   0.01518   0.99988
 This molecule is an asymmetric top.
 Rotational symmetry number  1.
 Rotational temperatures (Kelvin)      0.38690     0.25193     0.15902
 Rotational constants (GHZ):           8.06170     5.24931     3.31343
    1 imaginary frequencies ignored.
 Zero-point vibrational energy     294086.1 (Joules/Mol)
                                   70.28827 (Kcal/Mol)
 Warning -- explicit consideration of   4 degrees of freedom as
           vibrations may cause significant error
 Vibrational temperatures:    416.54   652.30   729.86   760.03   923.25
          (Kelvin)           1101.31  1168.18  1211.37  1356.03  1385.03
                             1473.09  1507.80  1578.45  1697.16  1728.38
                             1774.90  1890.09  1891.73  2018.02  2030.89
                             2087.22  2272.19  2428.70  2469.56  2489.55
                             4453.92  4456.02  4543.01  4546.84  4555.97
                             4556.55  4586.90

 Zero-point correction=                           0.112011 (Hartree/Particle)
 Thermal correction to Energy=                    0.116609
 Thermal correction to Enthalpy=                  0.117554
 Thermal correction to Gibbs Free Energy=         0.084770
 Sum of electronic and zero-point Energies=              0.208120
 Sum of electronic and thermal Energies=                 0.212718
 Sum of electronic and thermal Enthalpies=               0.213662
 Sum of electronic and thermal Free Energies=            0.180878

                     E (Thermal)             CV                S
                      KCal/Mol        Cal/Mol-Kelvin    Cal/Mol-Kelvin
 Total                   73.174             17.473             68.998
 Electronic               0.000              0.000              0.000
 Translational            0.889              2.981             38.571
 Rotational               0.889              2.981             25.242
 Vibrational             71.396             11.511              5.185
 Vibration     1          0.686              1.693              1.477
 Vibration     2          0.812              1.353              0.786
 Vibration     3          0.862              1.234              0.640
 Vibration     4          0.883              1.187              0.591

 Optimization completed.
    -- Stationary point found.
 Normal termination of Gaussian 16 at Wed Oct 21 14:22:08 2020.
