 Gaussian 16, Revision A.03,

 ----------------------------------------------------------------------
 #P Opt(TS,MaxCyc=50,NoEigenTest,MaxStep=10,AddRedundant) AM1 5D 7F Int
 egral=UltraFineGrid SCF=(NoSymm,XQC,MaxCyc=120) IOp(1/33=1)
 ----------------------------------------------------------------------

 TstMul:  Mul=     3
 TstMul:  ICh=     0
 TstMul:  Mul=     3
 Symbolic Z-matrix:
 Charge =  0 Multiplicity = 3

 SCF Done:  E(UAM1) =  0.140412551932     A.U. after   15 cycles
 SCF Done:  E(UAM1) =  0.140370898555     A.U. after   11 cycles
 SCF Done:  E(UAM1) =  0.140272429998     A.U. after   11 cycles
 SCF Done:  E(UAM1) =  0.140709451191     A.U. after   15 cycles
 SCF Done:  E(UAM1) =  0.140587092305     A.U. after   15 cycles
 SCF Done:  E(UAM1) =  0.140535417069     A.U. after   14 cycles
 SCF Done:  E(UAM1) =  0.140515677174     A.U. after   13 cycles
 SCF Done:  E(UAM1) =  0.140505838378     A.U. after   13 cycles
 SCF Done:  E(UAM1) =  0.140505809595     A.U. after   12 cycles
 SCF Done:  E(UAM1) =  0.140505682369     A.U. after   11 cycles
 Optimization completed.
    -- Stationary point found.
 Normal termination of Gaussian 16 at Wed Oct 28 14:32:23 2020.
 Gaussian 16:  ES64L-G16RevA.03 25-Dec-2016

 ----------------------------------------------------------------------
 #P Freq AM1 5D 7F Integral=UltraFineGrid SCF=(NoSymm,XQC,MaxCyc=120) I
 Op(1/33=1) Geom=Check Guess=Read
 ----------------------------------------------------------------------

 TstMul:  Mul=     3
 TstMul:  ICh=     0
 TstMul:  Mul=     3
 Structure from the checkpoint file:  "MN_92_RKT18_BH76_AM1_SE.chk"
 Charge =  0 Multiplicity = 3

                         Standard orientation:
 ---------------------------------------------------------------------
 Center     Atomic      Atomic             Coordinates (Angstroms)
 Number     Number       Type             X           Y           Z
 ---------------------------------------------------------------------
      1          6           0       -1.172045   -0.013263    0.000007
      2          7           0        1.380932    0.127846    0.000000
      3          1           0       -1.411580   -0.532122    0.943060
      4          1           0       -1.403660   -0.611126   -0.897109
      5          1           0       -1.573258    1.013173   -0.045786
      6          1           0        0.112782    0.143401   -0.000211
      7          1           0        1.641466   -0.828671    0.000005
 ---------------------------------------------------------------------

 SCF Done:  E(UAM1) =  0.140505682369     A.U. after    2 cycles

 The electronic state is 3-A.
 Alpha  occ. eigenvalues --   -1.18003  -1.03706  -0.58205  -0.50905  -0.50852
 Alpha  occ. eigenvalues --   -0.49507  -0.45168  -0.36255
 Alpha virt. eigenvalues --    0.14116   0.16272   0.16340   0.16795   0.18499
  Beta  occ. eigenvalues --   -1.08065  -0.95439  -0.53805  -0.50163  -0.49942
  Beta  occ. eigenvalues --   -0.41222
  Beta virt. eigenvalues --    0.00825   0.04475   0.17004   0.17231   0.17350
  Beta virt. eigenvalues --    0.19275   0.21139

 Mulliken charges and spin densities:
               1          2
     1  C   -0.299208   0.587214
     2  N   -0.174526   1.707991
     3  H    0.079270  -0.022593
     4  H    0.078745  -0.022606
     5  H    0.088726  -0.022665
     6  H    0.140600  -0.171222
     7  H    0.086394  -0.056118
 Sum of Mulliken charges =   0.00000   2.00000

 Dipole moment (field-independent basis, Debye):
    X=             -0.7964    Y=             -1.3023    Z=             -0.0000  Tot=              1.5265
 N-N= 3.336487827679D+01 E-N=-3.462003995738D+01  KE=-2.271632840432D+01
  Exact polarizability:  39.512  -0.711  14.158   0.001   0.003  11.108
 Approx polarizability:  19.656  -0.234   8.380   0.000   0.002   5.972
 Leave Link  601 at Wed Oct 28 14:32:26 2020, MaxMem=  2684354560 cpu:               0.6 elap:               0.1
 (Enter /udrive/faculty/rpeverati/g16/g16/l701.exe)
 ... and contract with generalized density number  0.
 Compute integral second derivatives.
 Leave Link  701 at Wed Oct 28 14:32:26 2020, MaxMem=  2684354560 cpu:               1.1 elap:               0.1
 (Enter /udrive/faculty/rpeverati/g16/g16/l702.exe)
 L702 exits ... SP integral derivatives will be done elsewhere.

 ******    1 imaginary frequencies (negative Signs) ******

                      1                      2                      3
                      A                      A                      A
 Frequencies --  -2432.6901                16.1245               326.3266
 Red. masses --      1.0633                 1.0528                 1.0728
 Frc consts  --      3.7075                 0.0002                 0.0673
 IR Inten    --   1199.7511                60.5689                 9.0858

                      4                      5                      6
                      A                      A                      A
 Frequencies --    405.8016               649.7026               890.6193
 Red. masses --      1.0777                 4.6756                 1.1675
 Frc consts  --      0.1046                 1.1628                 0.5456
 IR Inten    --     14.4203                 8.7675                30.2170

                      7                      8                      9
                      A                      A                      A
 Frequencies --   1171.2572              1319.8338              1373.5655
 Red. masses --      1.0687                 1.1292                 1.0680
 Frc consts  --      0.8638                 1.1589                 1.1872
 IR Inten    --     30.3879                 0.1780                 1.7245

                     10                     11                     12
                      A                      A                      A
 Frequencies --   1376.7176              1391.0327              3150.3488
 Red. masses --      1.0962                 1.0872                 1.0991
 Frc consts  --      1.2241                 1.2395                 6.4271
 IR Inten    --      2.3068                32.1554                 2.4450

                     13                     14                     15
                      A                      A                      A
 Frequencies --   3150.9933              3202.0070              3476.7401
 Red. masses --      1.0991                 1.0186                 1.0724
 Frc consts  --      6.4298                 6.1530                 7.6372
 IR Inten    --      0.6807                10.2151                 5.8778

 - Thermochemistry -
 -------------------
 Temperature   298.150 Kelvin.  Pressure   1.00000 Atm.
 Atom     1 has atomic number  6 and mass  12.00000

 Molecular mass:    31.04220 amu.
 Principal axes and moments of inertia in atomic units:
                           1         2         3
     Eigenvalues --    15.34479 192.56868 195.70374
           X            0.99968  -0.02522   0.00000
           Y            0.02522   0.99968   0.00000
           Z           -0.00000  -0.00000   1.00000
 This molecule is an asymmetric top.
 Rotational symmetry number  1.
 Rotational temperatures (Kelvin)      5.64452     0.44978     0.44258
 Rotational constants (GHZ):         117.61265     9.37194     9.22180
    1 imaginary frequencies ignored.
 Zero-point vibrational energy     130997.5 (Joules/Mol)
                                   31.30915 (Kcal/Mol)
 Warning -- explicit consideration of   3 degrees of freedom as
           vibrations may cause significant error
 Vibrational temperatures:     23.20   469.51   583.86   934.78  1281.40
          (Kelvin)           1685.18  1898.95  1976.25  1980.79  2001.39
                             4532.65  4533.58  4606.97  5002.25

 Zero-point correction=                           0.049894 (Hartree/Particle)
 Thermal correction to Energy=                    0.054571
 Thermal correction to Enthalpy=                  0.055515
 Thermal correction to Gibbs Free Energy=         0.022575
 Sum of electronic and zero-point Energies=              0.190400
 Sum of electronic and thermal Energies=                 0.195076
 Sum of electronic and thermal Enthalpies=               0.196021
 Sum of electronic and thermal Free Energies=            0.163080

                     E (Thermal)             CV                S
                      KCal/Mol        Cal/Mol-Kelvin    Cal/Mol-Kelvin
 Total                   34.244             13.173             69.329
 Electronic               0.000              0.000              2.183
 Translational            0.889              2.981             36.231
 Rotational               0.889              2.981             20.986
 Vibrational             32.466              7.211              9.929
 Vibration     1          0.593              1.986              7.062
 Vibration     2          0.710              1.623              1.278
 Vibration     3          0.771              1.458              0.942

                           ! Non-Optimized Parameters !
 Normal termination of Gaussian 16 at Wed Oct 28 14:32:27 2020.
