 Gaussian 16, Revision A.03,

 ----------------------------------------------------------------------
 #P Opt(TS,MaxCyc=50,NoEigenTest,MaxStep=10,AddRedundant) PBE1PBE/6-31G
 * 5D 7F Integral=UltraFineGrid SCF=(NoSymm,XQC,MaxCyc=120) IOp(1/33=1)
 ----------------------------------------------------------------------

 TstMul:  Mul=     2
 TstMul:  ICh=     0
 TstMul:  Mul=     2
 Symbolic Z-matrix:
 Charge =  0 Multiplicity = 2

 SCF Done:  E(UPBE1PBE) =  -118.254323505     A.U. after   18 cycles
 SCF Done:  E(UPBE1PBE) =  -118.255589272     A.U. after   15 cycles
 SCF Done:  E(UPBE1PBE) =  -118.254426712     A.U. after   16 cycles
 SCF Done:  E(UPBE1PBE) =  -118.253705412     A.U. after   16 cycles
 SCF Done:  E(UPBE1PBE) =  -118.253373721     A.U. after   16 cycles
 SCF Done:  E(UPBE1PBE) =  -118.253325214     A.U. after   15 cycles
 SCF Done:  E(UPBE1PBE) =  -118.253325041     A.U. after   11 cycles
 SCF Done:  E(UPBE1PBE) =  -118.253325741     A.U. after   10 cycles
 SCF Done:  E(UPBE1PBE) =  -118.253329192     A.U. after   11 cycles
 SCF Done:  E(UPBE1PBE) =  -118.253331805     A.U. after   11 cycles
 SCF Done:  E(UPBE1PBE) =  -118.253337949     A.U. after   11 cycles
 SCF Done:  E(UPBE1PBE) =  -118.253341733     A.U. after   11 cycles
 SCF Done:  E(UPBE1PBE) =  -118.253343172     A.U. after   11 cycles
 SCF Done:  E(UPBE1PBE) =  -118.253343553     A.U. after   10 cycles
 SCF Done:  E(UPBE1PBE) =  -118.253343668     A.U. after   10 cycles
 Optimization completed.
    -- Stationary point found.
 Normal termination of Gaussian 16 at Wed Oct  7 13:42:10 2020.
 Gaussian 16:  ES64L-G16RevA.03 25-Dec-2016

 ----------------------------------------------------------------------
 #P Freq PBE1PBE/6-31G* 5D 7F Integral=UltraFineGrid SCF=(NoSymm,XQC,Ma
 xCyc=120) IOp(1/33=1) Geom=Check Guess=Read
 ----------------------------------------------------------------------

 TstMul:  Mul=     2
 TstMul:  ICh=     0
 TstMul:  Mul=     2
 Structure from the checkpoint file:  "MN_17_c3h7ts_BH76_PBE0_631Gs.chk"
 Charge =  0 Multiplicity = 2

                         Standard orientation:
 ---------------------------------------------------------------------
 Center     Atomic      Atomic             Coordinates (Angstroms)
 Number     Number       Type             X           Y           Z
 ---------------------------------------------------------------------
      1          6           0       -0.530026    0.643037    0.000035
      2          6           0       -1.419301   -0.372337   -0.000021
      3          1           0       -0.258167    1.150052   -0.921620
      4          1           0       -0.257949    1.149774    0.921779
      5          1           0       -1.773107   -0.820136    0.924828
      6          1           0       -1.773315   -0.819822   -0.924942
      7          6           0        1.699094   -0.233698   -0.000031
      8          1           0        2.239091    0.707803   -0.009193
      9          1           0        1.659772   -0.802343   -0.921983
     10          1           0        1.665070   -0.787341    0.931230
 ---------------------------------------------------------------------

 SCF Done:  E(UPBE1PBE) =  -118.253343668     A.U. after    1 cycles

 The electronic state is 2-A.
 Alpha  occ. eigenvalues --  -10.22629 -10.22443 -10.21899  -0.77527  -0.69442
 Alpha  occ. eigenvalues --   -0.59122  -0.47428  -0.42783  -0.41543  -0.41100
 Alpha  occ. eigenvalues --   -0.35884  -0.30340  -0.19792
 Alpha virt. eigenvalues --    0.04452   0.11513   0.15303   0.15586   0.18390
 Alpha virt. eigenvalues --    0.19715   0.19769   0.26057   0.34052   0.47615
 Alpha virt. eigenvalues --    0.55011   0.55679   0.57706   0.62077   0.62143

  Beta  occ. eigenvalues --  -10.22943 -10.21299 -10.21009  -0.76965  -0.65706
  Beta  occ. eigenvalues --   -0.58583  -0.47245  -0.42306  -0.40602  -0.40347
  Beta  occ. eigenvalues --   -0.35733  -0.27429
  Beta virt. eigenvalues --   -0.03610   0.06786   0.12214   0.15651   0.16125
  Beta virt. eigenvalues --    0.18690   0.20419   0.20483   0.26158   0.34305
  Beta virt. eigenvalues --    0.48260   0.55535   0.57693   0.60126   0.62541

 Mulliken charges and spin densities:
               1          2
     1  C   -0.336534  -0.247492
     2  C   -0.347298   0.427422
     3  H    0.181024   0.013903
     4  H    0.181041   0.013902
     5  H    0.167537  -0.022120
     6  H    0.167533  -0.022121
     7  C   -0.556982   0.963865
     8  H    0.177005  -0.040707
     9  H    0.183385  -0.043324
    10  H    0.183289  -0.043328
 Sum of Mulliken charges =   0.00000   1.00000

 Dipole moment (field-independent basis, Debye):
    X=              0.2034    Y=              0.0581    Z=              0.0001  Tot=              0.2115
 Quadrupole moment (field-independent basis, Debye-Ang):
   XX=            -21.9997   YY=            -20.3201   ZZ=            -19.1384
   XY=              1.5603   XZ=              0.0003   YZ=             -0.0001

  Exact polarizability:  49.232   7.580  31.608  -0.000  -0.002  30.754
 Approx polarizability:  61.744  13.422  41.922   0.001  -0.002  38.186

 ******    1 imaginary frequencies (negative Signs) ******

                      1                      2                      3
                      A                      A                      A
 Frequencies --   -346.0013                87.4852               208.0362
 Red. masses --      9.6912                 1.0906                 2.4975
 Frc consts  --      0.6836                 0.0049                 0.0637
 IR Inten    --      0.5566                 0.0057                 0.6973

                      4                      5                      6
                      A                      A                      A
 Frequencies --    337.3141               447.1694               467.1247
 Red. masses --      1.0599                 1.1091                 1.0933
 Frc consts  --      0.0711                 0.1307                 0.1406
 IR Inten    --      0.1938                 1.7229                 0.9224

                      7                      8                      9
                      A                      A                      A
 Frequencies --    742.8109               825.6516               880.1240
 Red. masses --      1.0681                 1.0426                 1.4268
 Frc consts  --      0.3472                 0.4188                 0.6512
 IR Inten    --      9.6960                 1.1135                28.7783

                     10                     11                     12
                      A                      A                      A
 Frequencies --    940.4704              1035.2484              1244.8521
 Red. masses --      1.1542                 1.0186                 1.4958
 Frc consts  --      0.6015                 0.6432                 1.3657
 IR Inten    --     62.3776                 0.0470                 0.0508

                     13                     14                     15
                      A                      A                      A
 Frequencies --   1342.6981              1438.7962              1444.0870
 Red. masses --      1.4765                 1.0958                 1.0951
 Frc consts  --      1.5684                 1.3366                 1.3455
 IR Inten    --      0.4802                 2.5338                 2.3273

                     16                     17                     18
                      A                      A                      A
 Frequencies --   1483.7059              1633.2965              3148.7398
 Red. masses --      1.1130                 2.1416                 1.0117
 Frc consts  --      1.4436                 3.3661                 5.9099
 IR Inten    --      5.5953                 0.1545                 0.0433

                     19                     20                     21
                      A                      A                      A
 Frequencies --   3180.5261              3192.3447              3259.6590
 Red. masses --      1.0482                 1.0668                 1.1157
 Frc consts  --      6.2474                 6.4057                 6.9843
 IR Inten    --     12.9852                 0.6319                 0.4287

                     22                     23                     24
                      A                      A                      A
 Frequencies --   3284.4999              3314.2643              3324.9622
 Red. masses --      1.1181                 1.1162                 1.1164
 Frc consts  --      7.1066                 7.2235                 7.2719
 IR Inten    --     19.9554                 7.4565                 7.7813

 - Thermochemistry -
 -------------------
 Temperature   298.150 Kelvin.  Pressure   1.00000 Atm.
 Atom     1 has atomic number  6 and mass  12.00000

 Molecular mass:    43.05478 amu.
 Principal axes and moments of inertia in atomic units:
                           1         2         3
     Eigenvalues --    65.07536 301.47451 329.64412
           X            0.99982   0.01872   0.00000
           Y           -0.01872   0.99982  -0.00003
           Z           -0.00000   0.00003   1.00000
 This molecule is an asymmetric top.
 Rotational symmetry number  1.
 Rotational temperatures (Kelvin)      1.33098     0.28730     0.26275
 Rotational constants (GHZ):          27.73309     5.98638     5.47482
    1 imaginary frequencies ignored.
 Zero-point vibrational energy     222887.4 (Joules/Mol)
                                   53.27137 (Kcal/Mol)
 Warning -- explicit consideration of   5 degrees of freedom as
           vibrations may cause significant error
 Vibrational temperatures:    125.87   299.32   485.32   643.38   672.09
          (Kelvin)           1068.74  1187.93  1266.30  1353.13  1489.49
                             1791.06  1931.84  2070.11  2077.72  2134.72
                             2349.95  4530.33  4576.07  4593.07  4689.92
                             4725.66  4768.49  4783.88

 Zero-point correction=                           0.084893 (Hartree/Particle)
 Thermal correction to Energy=                    0.090273
 Thermal correction to Enthalpy=                  0.091217
 Thermal correction to Gibbs Free Energy=         0.057281
 Sum of electronic and zero-point Energies=           -118.168450
 Sum of electronic and thermal Energies=              -118.163071
 Sum of electronic and thermal Enthalpies=            -118.162127
 Sum of electronic and thermal Free Energies=         -118.196062

                     E (Thermal)             CV                S
                      KCal/Mol        Cal/Mol-Kelvin    Cal/Mol-Kelvin
 Total                   56.647             17.329             71.424
 Electronic               0.000              0.000              1.377
 Translational            0.889              2.981             37.206
 Rotational               0.889              2.981             23.385
 Vibrational             54.870             11.367              9.456
 Vibration     1          0.601              1.958              3.716
 Vibration     2          0.641              1.828              2.061
 Vibration     3          0.718              1.601              1.225
 Vibration     4          0.806              1.367              0.804
 Vibration     5          0.824              1.323              0.746

                           ! Non-Optimized Parameters !
 Normal termination of Gaussian 16 at Wed Oct  7 13:42:57 2020.
