 Gaussian 16, Revision A.03,

 ----------------------------------------------------------------------
 #P Opt(TS,MaxCyc=50,NoEigenTest,MaxStep=10,AddRedundant) PBE1PBE/6-31G
 * 5D 7F Integral=UltraFineGrid SCF=(NoSymm,XQC,MaxCyc=120) IOp(1/33=1)
 ----------------------------------------------------------------------

 TstMul:  Mul=     2
 TstMul:  ICh=     0
 TstMul:  Mul=     2
 Symbolic Z-matrix:
 Charge =  0 Multiplicity = 2

 SCF Done:  E(UPBE1PBE) =  -78.9771577778     A.U. after   17 cycles
 SCF Done:  E(UPBE1PBE) =  -78.9778222638     A.U. after   14 cycles
 SCF Done:  E(UPBE1PBE) =  -78.9772372182     A.U. after   15 cycles
 SCF Done:  E(UPBE1PBE) =  -78.9768154908     A.U. after   15 cycles
 SCF Done:  E(UPBE1PBE) =  -78.9765657240     A.U. after   15 cycles
 SCF Done:  E(UPBE1PBE) =  -78.9764488320     A.U. after   15 cycles
 SCF Done:  E(UPBE1PBE) =  -78.9764268555     A.U. after   15 cycles
 SCF Done:  E(UPBE1PBE) =  -78.9764270911     A.U. after   10 cycles
 SCF Done:  E(UPBE1PBE) =  -78.9764279733     A.U. after   10 cycles
 SCF Done:  E(UPBE1PBE) =  -78.9764298665     A.U. after   10 cycles
 SCF Done:  E(UPBE1PBE) =  -78.9764305789     A.U. after   10 cycles
 SCF Done:  E(UPBE1PBE) =  -78.9764313290     A.U. after   10 cycles
 Optimization completed.
    -- Stationary point found.
 Normal termination of Gaussian 16 at Wed Oct  7 13:40:09 2020.
 Gaussian 16:  ES64L-G16RevA.03 25-Dec-2016

 ----------------------------------------------------------------------
 #P Freq PBE1PBE/6-31G* 5D 7F Integral=UltraFineGrid SCF=(NoSymm,XQC,Ma
 xCyc=120) IOp(1/33=1) Geom=Check Guess=Read
 ----------------------------------------------------------------------

 TstMul:  Mul=     2
 TstMul:  ICh=     0
 TstMul:  Mul=     2
 Structure from the checkpoint file:  "MN_13_c2h5ts_BH76_PBE0_631Gs.chk"
 Charge =  0 Multiplicity = 2

                         Standard orientation:
 ---------------------------------------------------------------------
 Center     Atomic      Atomic             Coordinates (Angstroms)
 Number     Number       Type             X           Y           Z
 ---------------------------------------------------------------------
      1          6           0       -0.546925    0.259613   -0.003659
      2          6           0        0.750011   -0.065294    0.000874
      3          1           0       -1.644008   -1.627896    0.023255
      4          1           0       -1.087817    0.460067    0.917800
      5          1           0       -1.088560    0.432119   -0.930313
      6          1           0        1.300815   -0.228584   -0.921801
      7          1           0        1.301054   -0.201615    0.927769
 ---------------------------------------------------------------------

 SCF Done:  E(UPBE1PBE) =  -78.9764313290     A.U. after    1 cycles

 The electronic state is 2-A.
 Alpha  occ. eigenvalues --  -10.23241 -10.23077  -0.78424  -0.60082  -0.48279
 Alpha  occ. eigenvalues --   -0.43314  -0.36776  -0.33469  -0.25000
 Alpha virt. eigenvalues --    0.02593   0.13212   0.14947   0.16842   0.25653
 Alpha virt. eigenvalues --    0.33459   0.49003   0.57788   0.58033   0.63777
 Alpha virt. eigenvalues --    0.69693   0.74547   0.83357   0.86866   0.89302

  Beta  occ. eigenvalues --  -10.23395 -10.22727  -0.78092  -0.59781  -0.48177
  Beta  occ. eigenvalues --   -0.43101  -0.36692  -0.28708
  Beta virt. eigenvalues --   -0.04131   0.04743   0.13339   0.14985   0.16998
  Beta virt. eigenvalues --    0.25694   0.33565   0.49118   0.58094   0.58966
  Beta virt. eigenvalues --    0.65167   0.70394   0.76103   0.86903   0.89408

 Mulliken charges and spin densities:
               1          2
     1  C   -0.367800  -0.167231
     2  C   -0.329300   0.248680
     3  H   -0.028644   0.926512
     4  H    0.186328   0.008660
     5  H    0.186355   0.008662
     6  H    0.176529  -0.012641
     7  H    0.176532  -0.012642
 Sum of Mulliken charges =   0.00000   1.00000

 Dipole moment (field-independent basis, Debye):
    X=              0.2621    Y=              0.3325    Z=             -0.0048  Tot=              0.4234
 Quadrupole moment (field-independent basis, Debye-Ang):
   XX=            -13.7816   YY=            -16.6000   ZZ=            -13.2047
   XY=             -1.3844   XZ=              0.0206   YZ=              0.0505

  Exact polarizability:  35.667   1.730  17.692  -0.024   0.043  20.231
 Approx polarizability:  48.604  -0.775  19.561   0.012   0.076  24.275

 ******    1 imaginary frequencies (negative Signs) ******

                      1                      2                      3
                      A                      A                      A
 Frequencies --   -435.3920               270.7396               315.2663
 Red. masses --      1.1038                 1.2095                 1.0402
 Frc consts  --      0.1233                 0.0522                 0.0609
 IR Inten    --     37.1855                 1.7103                 0.0668

                      4                      5                      6
                      A                      A                      A
 Frequencies --    831.5373               948.7470               980.3376
 Red. masses --      1.0420                 1.4357                 1.1427
 Frc consts  --      0.4245                 0.7614                 0.6471
 IR Inten    --      1.3191                17.4708                79.8523

                      7                      8                      9
                      A                      A                      A
 Frequencies --   1063.5625              1245.0119              1381.5469
 Red. masses --      1.0093                 1.5169                 1.2753
 Frc consts  --      0.6726                 1.3853                 1.4342
 IR Inten    --      0.0444                 0.0013                 0.4751

                     10                     11                     12
                      A                      A                      A
 Frequencies --   1486.4506              1690.4262              3179.7305
 Red. masses --      1.1125                 2.8084                 1.0478
 Frc consts  --      1.4482                 4.7282                 6.2417
 IR Inten    --      8.1845                 2.6611                10.7072

                     13                     14                     15
                      A                      A                      A
 Frequencies --   3194.0126              3259.6736              3284.2797
 Red. masses --      1.0715                 1.1158                 1.1180
 Frc consts  --      6.4402                 6.9851                 7.1050
 IR Inten    --      1.4306                 0.0589                18.6702

 - Thermochemistry -
 -------------------
 Temperature   298.150 Kelvin.  Pressure   1.00000 Atm.
 Atom     1 has atomic number  6 and mass  12.00000

 Molecular mass:    29.03913 amu.
 Principal axes and moments of inertia in atomic units:
                           1         2         3
     Eigenvalues --    26.18108  79.81788  81.38927
           X            0.99686   0.07915  -0.00037
           Y           -0.07914   0.99682   0.00918
           Z            0.00109  -0.00912   0.99996
 This molecule is an asymmetric top.
 Rotational symmetry number  1.
 Rotational temperatures (Kelvin)      3.30826     1.08514     1.06419
 Rotational constants (GHZ):          68.93302    22.61074    22.17419
    1 imaginary frequencies ignored.
 Zero-point vibrational energy     138356.0 (Joules/Mol)
                                   33.06789 (Kcal/Mol)
 Warning -- explicit consideration of   2 degrees of freedom as
           vibrations may cause significant error
 Vibrational temperatures:    389.53   453.60  1196.40  1365.04  1410.49
          (Kelvin)           1530.23  1791.29  1987.74  2138.67  2432.15
                             4574.92  4595.47  4689.94  4725.35

 Zero-point correction=                           0.052697 (Hartree/Particle)
 Thermal correction to Energy=                    0.056602
 Thermal correction to Enthalpy=                  0.057546
 Thermal correction to Gibbs Free Energy=         0.028730
 Sum of electronic and zero-point Energies=            -78.923734
 Sum of electronic and thermal Energies=               -78.919830
 Sum of electronic and thermal Enthalpies=             -78.918886
 Sum of electronic and thermal Free Energies=          -78.947702

                     E (Thermal)             CV                S
                      KCal/Mol        Cal/Mol-Kelvin    Cal/Mol-Kelvin
 Total                   35.518             11.489             60.649
 Electronic               0.000              0.000              1.377
 Translational            0.889              2.981             36.032
 Rotational               0.889              2.981             19.770
 Vibrational             33.741              5.527              3.469
 Vibration     1          0.674              1.727              1.591
 Vibration     2          0.703              1.644              1.335

 Optimization completed.
    -- Stationary point found.
 Normal termination of Gaussian 16 at Wed Oct  7 13:40:42 2020.
