 Gaussian 16, Revision A.03,
 Gaussian 16:  ES64L-G16RevA.03 25-Dec-2016

 ----------------------------------------------------------------------
 #P Opt(MaxCyc=100) PBE1PBE/6-31G* 5D 7F Integral=UltraFineGrid SCF=(No
 Symm,XQC,MaxCyc=120) IOp(1/33=1)
 ----------------------------------------------------------------------

 TstMul:  Mul=     2
 TstMul:  ICh=     0
 TstMul:  Mul=     2
 Symbolic Z-matrix:
 Charge =  0 Multiplicity = 2

 SCF Done:  E(UPBE1PBE) =  -79.0496664163     A.U. after   13 cycles
 SCF Done:  E(UPBE1PBE) =  -79.0497940866     A.U. after   10 cycles
 SCF Done:  E(UPBE1PBE) =  -79.0497982697     A.U. after    9 cycles
 Optimization completed.
    -- Stationary point found.

                         Standard orientation:
 ---------------------------------------------------------------------
 Center     Atomic      Atomic             Coordinates (Angstroms)
 Number     Number       Type             X           Y           Z
 ---------------------------------------------------------------------
      1          6           0        0.792492    0.000002   -0.023005
      2          6           0       -0.692174    0.000168   -0.000515
      3          1           0       -1.106016    0.892977   -0.483852
      4          1           0        1.350244   -0.928145    0.050297
      5          1           0       -1.090825   -0.012301    1.028852
      6          1           0       -1.106446   -0.881102   -0.504619
      7          1           0        1.351132    0.927551    0.050441
 ---------------------------------------------------------------------

 The electronic state is 2-A.
 Alpha  occ. eigenvalues --  -10.22703 -10.21689  -0.77504  -0.62285  -0.45943
 Alpha  occ. eigenvalues --   -0.42225  -0.39887  -0.36307  -0.20979
 Alpha virt. eigenvalues --    0.12911   0.15333   0.16024   0.19021   0.23471
 Alpha virt. eigenvalues --    0.27148   0.52807   0.55771   0.57066   0.63407
 Alpha virt. eigenvalues --    0.63910   0.76239   0.81820   0.89450   0.90040

  Beta  occ. eigenvalues --  -10.21805 -10.21143  -0.75589  -0.59526  -0.45227
  Beta  occ. eigenvalues --   -0.40530  -0.39011  -0.35846
  Beta virt. eigenvalues --   -0.01702   0.13406   0.16266   0.16878   0.19871
  Beta virt. eigenvalues --    0.23971   0.28121   0.53469   0.56082   0.61894
  Beta virt. eigenvalues --    0.65932   0.67732   0.77003   0.83899   0.90098

 Mulliken charges and spin densities:
               1          2
     1  C   -0.346143   1.115674
     2  C   -0.547622  -0.095538
     3  H    0.183947   0.014983
     4  H    0.170143  -0.058042
     5  H    0.185320   0.064853
     6  H    0.184056   0.016148
     7  H    0.170299  -0.058079
 Sum of Mulliken charges =  -0.00000   1.00000

 Dipole moment (field-independent basis, Debye):
    X=             -0.2114    Y=             -0.0004    Z=              0.1383  Tot=              0.2526
 Quadrupole moment (field-independent basis, Debye-Ang):
   XX=            -13.8818   YY=            -13.3296   ZZ=            -14.9186
   XY=              0.0012   XZ=              0.1716   YZ=              0.0002

 Normal termination of Gaussian 16 at Wed Oct  7 13:38:13 2020.
