 Gaussian 16, Revision A.03,
 Gaussian 16:  ES64L-G16RevA.03 25-Dec-2016

 ----------------------------------------------------------------------
 #P Opt(MaxCyc=100) PBE1PBE/6-31G* 5D 7F Integral=UltraFineGrid SCF=(No
 Symm,XQC,MaxCyc=120) IOp(1/33=1)
 ----------------------------------------------------------------------

 TstMul:  Mul=     1
 TstMul:  ICh=     0
 TstMul:  Mul=     1
 Symbolic Z-matrix:
 Charge =  0 Multiplicity = 1

 SCF Done:  E(RPBE1PBE) =  -79.7186822360     A.U. after    9 cycles
 SCF Done:  E(RPBE1PBE) =  -79.7187971937     A.U. after    7 cycles
 Optimization completed.
    -- Stationary point found.

                         Standard orientation:
 ---------------------------------------------------------------------
 Center     Atomic      Atomic             Coordinates (Angstroms)
 Number     Number       Type             X           Y           Z
 ---------------------------------------------------------------------
      1          6           0       -0.761936   -0.000000   -0.000000
      2          6           0        0.761936    0.000000   -0.000000
      3          1           0        1.159869   -0.386767   -0.944784
      4          1           0       -1.159872   -1.011474   -0.138291
      5          1           0        1.159872   -0.624824    0.807340
      6          1           0        1.159872    1.011590    0.137442
      7          1           0       -1.159869    0.385972    0.945108
      8          1           0       -1.159872    0.625502   -0.806815
 ---------------------------------------------------------------------

 The electronic state is 1-A.
 Alpha  occ. eigenvalues --  -10.20963 -10.20946  -0.77075  -0.62887  -0.44291
 Alpha  occ. eigenvalues --   -0.44291  -0.37485  -0.34824  -0.34824
 Alpha virt. eigenvalues --    0.11875   0.17199   0.17607   0.17607   0.20330
 Alpha virt. eigenvalues --    0.20330   0.25388   0.52887   0.56315   0.56315
 Alpha virt. eigenvalues --    0.65631   0.65631   0.69782   0.90871   0.90871

 Mulliken charges:
               1
     1  C   -0.521800
     2  C   -0.521800
     3  H    0.173933
     4  H    0.173933
     5  H    0.173933
     6  H    0.173933
     7  H    0.173933
     8  H    0.173933
 Sum of Mulliken charges =  -0.00000

 Dipole moment (field-independent basis, Debye):
    X=             -0.0000    Y=             -0.0000    Z=              0.0000  Tot=              0.0000
 Quadrupole moment (field-independent basis, Debye-Ang):
   XX=            -15.1760   YY=            -14.6358   ZZ=            -14.6358
   XY=             -0.0000   XZ=              0.0000   YZ=             -0.0000

 Normal termination of Gaussian 16 at Wed Oct  7 13:38:09 2020.
