 Gaussian 16, Revision A.03,
 Gaussian 16:  ES64L-G16RevA.03 25-Dec-2016

 ----------------------------------------------------------------------
 #P Opt(MaxCyc=100) PBE1PBE/6-31G* 5D 7F Integral=UltraFineGrid SCF=(No
 Symm,XQC,MaxCyc=120) IOp(1/33=1)
 ----------------------------------------------------------------------

 TstMul:  Mul=     1
 TstMul:  ICh=     0
 TstMul:  Mul=     1
 Symbolic Z-matrix:
 Charge =  0 Multiplicity = 1

 SCF Done:  E(RPBE1PBE) =  -78.4782343910     A.U. after    9 cycles
 SCF Done:  E(RPBE1PBE) =  -78.4783332797     A.U. after    6 cycles
 SCF Done:  E(RPBE1PBE) =  -78.4783353820     A.U. after    6 cycles
 Optimization completed.
    -- Stationary point found.

                         Standard orientation:
 ---------------------------------------------------------------------
 Center     Atomic      Atomic             Coordinates (Angstroms)
 Number     Number       Type             X           Y           Z
 ---------------------------------------------------------------------
      1          6           0        0.000000    0.000000    0.664576
      2          6           0        0.000000    0.000000   -0.664576
      3          1           0        0.000000    0.924597    1.236858
      4          1           0       -0.000000   -0.924597    1.236858
      5          1           0        0.000000    0.924597   -1.236858
      6          1           0       -0.000000   -0.924597   -1.236858
 ---------------------------------------------------------------------

 The electronic state is 1-AG.
 Alpha  occ. eigenvalues --  -10.22396 -10.22309  -0.77747  -0.59301  -0.47793
 Alpha  occ. eigenvalues --   -0.42695  -0.36184  -0.27807
 Alpha virt. eigenvalues --    0.02641   0.13577   0.15262   0.17252   0.26057
 Alpha virt. eigenvalues --    0.34217   0.49553   0.56967   0.58758   0.66165
 Alpha virt. eigenvalues --    0.67726   0.72535   0.87128   0.90045   0.95928

 Mulliken charges:
               1
     1  C   -0.344738
     2  C   -0.344738
     3  H    0.172369
     4  H    0.172369
     5  H    0.172369
     6  H    0.172369
 Sum of Mulliken charges =   0.00000

 Dipole moment (field-independent basis, Debye):
    X=             -0.0000    Y=             -0.0000    Z=              0.0000  Tot=              0.0000
 Quadrupole moment (field-independent basis, Debye-Ang):
   XX=            -15.1374   YY=            -11.9779   ZZ=            -11.8540
   XY=              0.0000   XZ=             -0.0000   YZ=             -0.0000

 Normal termination of Gaussian 16 at Wed Oct  7 13:37:37 2020.
