 Gaussian 16, Revision A.03,
 Gaussian 16:  ES64L-G16RevA.03 25-Dec-2016

 ----------------------------------------------------------------------
 #P Opt(MaxCyc=100) PBE1PBE/6-31G* 5D 7F Integral=UltraFineGrid SCF=(No
 Symm,XQC,MaxCyc=120) IOp(1/33=1)
 ----------------------------------------------------------------------

 TstMul:  Mul=     1
 TstMul:  ICh=     0
 TstMul:  Mul=     1
 Symbolic Z-matrix:
 Charge =  0 Multiplicity = 1

 SCF Done:  E(RPBE1PBE) =  -195.054936697     A.U. after   12 cycles
 SCF Done:  E(RPBE1PBE) =  -195.055193818     A.U. after   10 cycles
 SCF Done:  E(RPBE1PBE) =  -195.055200656     A.U. after    8 cycles
 SCF Done:  E(RPBE1PBE) =  -195.055201122     A.U. after    7 cycles
 Optimization completed.
    -- Stationary point found.

                         Standard orientation:
 ---------------------------------------------------------------------
 Center     Atomic      Atomic             Coordinates (Angstroms)
 Number     Number       Type             X           Y           Z
 ---------------------------------------------------------------------
      1          6           0       -2.061649   -0.606648    0.000001
      2          6           0       -1.231972    0.636068    0.000049
      3          6           0        0.108690    0.728464    0.000034
      4          6           0        1.059726   -0.369925   -0.000035
      5          6           0        2.388228   -0.199705   -0.000044
      6          1           0       -2.718477   -0.634702    0.879506
      7          1           0       -2.718509   -0.634612   -0.879483
      8          1           0       -1.463953   -1.521618   -0.000057
      9          1           0       -1.796117    1.568624    0.000104
     10          1           0        0.549759    1.725475    0.000076
     11          1           0        0.663190   -1.383853   -0.000080
     12          1           0        3.073130   -1.042292   -0.000096
     13          1           0        2.832842    0.793455   -0.000000
 ---------------------------------------------------------------------

 The electronic state is 1-A.
 Alpha  occ. eigenvalues --  -10.23149 -10.22977 -10.22464 -10.22103 -10.21911
 Alpha  occ. eigenvalues --   -0.83010  -0.77495  -0.70138  -0.60651  -0.54383
 Alpha  occ. eigenvalues --   -0.48928  -0.45778  -0.42392  -0.41325  -0.38929
 Alpha  occ. eigenvalues --   -0.37713  -0.33944  -0.32200  -0.22758
 Alpha virt. eigenvalues --   -0.01068   0.09979   0.11673   0.12320   0.14777
 Alpha virt. eigenvalues --    0.17711   0.18629   0.18980   0.21037   0.24534
 Alpha virt. eigenvalues --    0.26615   0.34551   0.39292   0.45205   0.49414

 Mulliken charges:
               1
     1  C   -0.575187
     2  C   -0.148745
     3  C   -0.153235
     4  C   -0.099901
     5  C   -0.411234
     6  H    0.190121
     7  H    0.190121
     8  H    0.184994
     9  H    0.163099
    10  H    0.157769
    11  H    0.160877
    12  H    0.171932
    13  H    0.169389
 Sum of Mulliken charges =  -0.00000

 Dipole moment (field-independent basis, Debye):
    X=             -0.5116    Y=             -0.1337    Z=              0.0000  Tot=              0.5288
 Quadrupole moment (field-independent basis, Debye-Ang):
   XX=            -28.4472   YY=            -29.1267   ZZ=            -34.3325
   XY=              0.0743   XZ=             -0.0001   YZ=              0.0003

 Normal termination of Gaussian 16 at Wed Oct  7 13:39:18 2020.
