 Gaussian 16, Revision A.03,
 Gaussian 16:  ES64L-G16RevA.03 25-Dec-2016

 ----------------------------------------------------------------------
 #P Opt(MaxCyc=100) PBE1PBE/6-31G* 5D 7F Integral=UltraFineGrid SCF=(No
 Symm,XQC,MaxCyc=120) IOp(1/33=1)
 ----------------------------------------------------------------------

 TstMul:  Mul=     2
 TstMul:  ICh=     0
 TstMul:  Mul=     2
 Symbolic Z-matrix:
 Charge =  0 Multiplicity = 2

 SCF Done:  E(UPBE1PBE) =  -79.0496484615     A.U. after   13 cycles
 SCF Done:  E(UPBE1PBE) =  -79.0497923996     A.U. after   10 cycles
 SCF Done:  E(UPBE1PBE) =  -79.0497983746     A.U. after    9 cycles
 Optimization completed.
    -- Stationary point found.

                         Standard orientation:
 ---------------------------------------------------------------------
 Center     Atomic      Atomic             Coordinates (Angstroms)
 Number     Number       Type             X           Y           Z
 ---------------------------------------------------------------------
      1          6           0       -0.011015   -0.692086    0.000000
      2          6           0       -0.011015    0.792773   -0.000000
      3          1           0        1.012303   -1.106283    0.000000
      4          1           0       -0.511013   -1.098606    0.887127
      5          1           0       -0.511013   -1.098606   -0.887127
      6          1           0        0.070950    1.349687   -0.927925
      7          1           0        0.070950    1.349687    0.927925
 ---------------------------------------------------------------------

 The electronic state is 2-A'.
 Alpha  occ. eigenvalues --  -10.22704 -10.21690  -0.77504  -0.62283  -0.45944
 Alpha  occ. eigenvalues --   -0.42224  -0.39885  -0.36307  -0.20979
 Alpha virt. eigenvalues --    0.12910   0.15334   0.16023   0.19020   0.23469
 Alpha virt. eigenvalues --    0.27146   0.52807   0.55773   0.57066   0.63408
 Alpha virt. eigenvalues --    0.63909   0.76236   0.81817   0.89449   0.90039

  Beta  occ. eigenvalues --  -10.21805 -10.21143  -0.75589  -0.59525  -0.45227
  Beta  occ. eigenvalues --   -0.40530  -0.39008  -0.35847
  Beta virt. eigenvalues --   -0.01703   0.13405   0.16268   0.16876   0.19870
  Beta virt. eigenvalues --    0.23969   0.28119   0.53468   0.56084   0.61895
  Beta virt. eigenvalues --    0.65931   0.67732   0.77001   0.83896   0.90097

 Mulliken charges and spin densities:
               1          2
     1  C   -0.547611  -0.095536
     2  C   -0.346127   1.115671
     3  H    0.185313   0.064864
     4  H    0.183993   0.015559
     5  H    0.183993   0.015559
     6  H    0.170220  -0.058059
     7  H    0.170220  -0.058059
 Sum of Mulliken charges =   0.00000   1.00000

 Dipole moment (field-independent basis, Debye):
    X=              0.1353    Y=             -0.2135    Z=              0.0000  Tot=              0.2527
 Quadrupole moment (field-independent basis, Debye-Ang):
   XX=            -14.9132   YY=            -13.8880   ZZ=            -13.3294
   XY=              0.1875   XZ=             -0.0000   YZ=              0.0000

 Normal termination of Gaussian 16 at Wed Oct  7 13:38:05 2020.
