 Gaussian 16, Revision A.03,
 Gaussian 16:  ES64L-G16RevA.03 25-Dec-2016

 ----------------------------------------------------------------------
 #P Opt(MaxCyc=100) PBE1PBE/6-31G* 5D 7F Integral=UltraFineGrid SCF=(No
 Symm,XQC,MaxCyc=120) IOp(1/33=1)
 ----------------------------------------------------------------------

 TstMul:  Mul=     1
 TstMul:  ICh=     0
 TstMul:  Mul=     1
 Symbolic Z-matrix:
 Charge =  0 Multiplicity = 1

 SCF Done:  E(RPBE1PBE) =  -499.884496548     A.U. after   11 cycles
 SCF Done:  E(RPBE1PBE) =  -499.884580292     A.U. after    8 cycles
 SCF Done:  E(RPBE1PBE) =  -499.884582322     A.U. after    7 cycles
 Optimization completed.
    -- Stationary point found.

                         Standard orientation:
 ---------------------------------------------------------------------
 Center     Atomic      Atomic             Coordinates (Angstroms)
 Number     Number       Type             X           Y           Z
 ---------------------------------------------------------------------
      1          6           0        0.000000    0.000000   -1.124371
      2         17           0        0.000000    0.000000    0.657185
      3          1           0        0.000000    1.032570   -1.475308
      4          1           0        0.894232   -0.516285   -1.475308
      5          1           0       -0.894232   -0.516285   -1.475308
 ---------------------------------------------------------------------

 The electronic state is 1-A1.
 Alpha  occ. eigenvalues -- -101.68789 -10.28255  -9.51856  -7.25406  -7.24392
 Alpha  occ. eigenvalues --   -7.24392  -0.87635  -0.69732  -0.46494  -0.46494
 Alpha  occ. eigenvalues --   -0.42820  -0.30781  -0.30781
 Alpha virt. eigenvalues --    0.04232   0.12134   0.15487   0.15487   0.42508
 Alpha virt. eigenvalues --    0.45569   0.47948   0.47948   0.54433   0.54433
 Alpha virt. eigenvalues --    0.58022   0.85543   0.85543   0.90431   0.91163

 Mulliken charges:
               1
     1  C   -0.615011
     2  Cl  -0.071123
     3  H    0.228712
     4  H    0.228712
     5  H    0.228712
 Sum of Mulliken charges =  -0.00000

 Dipole moment (field-independent basis, Debye):
    X=             -0.0000    Y=             -0.0000    Z=             -2.0608  Tot=              2.0608
 Quadrupole moment (field-independent basis, Debye-Ang):
   XX=            -19.7240   YY=            -19.7240   ZZ=            -17.9603
   XY=             -0.0000   XZ=              0.0000   YZ=              0.0000

 Normal termination of Gaussian 16 at Wed Oct  7 13:38:40 2020.
