 Gaussian 16, Revision A.03,
 Gaussian 16:  ES64L-G16RevA.03 25-Dec-2016

 ----------------------------------------------------------------------
 #P Opt(MaxCyc=100) PBE1PBE/6-31G* 5D 7F Integral=UltraFineGrid SCF=(No
 Symm,XQC,MaxCyc=120) IOp(1/33=1)
 ----------------------------------------------------------------------

 TstMul:  Mul=     2
 TstMul:  ICh=     0
 TstMul:  Mul=     2
 Symbolic Z-matrix:
 Charge =  0 Multiplicity = 2

 SCF Done:  E(UPBE1PBE) =  -118.313494099     A.U. after   13 cycles
 SCF Done:  E(UPBE1PBE) =  -118.313641915     A.U. after   10 cycles
 SCF Done:  E(UPBE1PBE) =  -118.313645355     A.U. after    8 cycles
 Optimization completed.
    -- Stationary point found.

                         Standard orientation:
 ---------------------------------------------------------------------
 Center     Atomic      Atomic             Coordinates (Angstroms)
 Number     Number       Type             X           Y           Z
 ---------------------------------------------------------------------
      1          6           0        1.208059   -0.286321    0.000059
      2          6           0       -0.067033    0.573582   -0.000058
      3          6           0       -1.315560   -0.236590   -0.000013
      4          1           0        1.245007   -0.931301    0.884819
      5          1           0        1.245033   -0.931499   -0.884557
      6          1           0        2.105925    0.343093   -0.000001
      7          1           0       -0.046988    1.230358   -0.880195
      8          1           0       -0.047043    1.230546    0.879937
      9          1           0       -1.727551   -0.622298    0.927907
     10          1           0       -1.727180   -0.622926   -0.927838
 ---------------------------------------------------------------------

 The electronic state is 2-A.
 Alpha  occ. eigenvalues --  -10.22573 -10.22320 -10.21289  -0.80335  -0.69220
 Alpha  occ. eigenvalues --   -0.59510  -0.47505  -0.44004  -0.40258  -0.39081
 Alpha  occ. eigenvalues --   -0.35718  -0.33925  -0.21109
 Alpha virt. eigenvalues --    0.11809   0.15388   0.15502   0.17237   0.19179
 Alpha virt. eigenvalues --    0.19246   0.23686   0.24361   0.28624   0.53372
 Alpha virt. eigenvalues --    0.55649   0.55716   0.57172   0.61109   0.62815

  Beta  occ. eigenvalues --  -10.22429 -10.21124 -10.21019  -0.79169  -0.67083
  Beta  occ. eigenvalues --   -0.57939  -0.47022  -0.43350  -0.39706  -0.37754
  Beta  occ. eigenvalues --   -0.35159  -0.33706
  Beta virt. eigenvalues --   -0.02106   0.12289   0.15724   0.16793   0.17485
  Beta virt. eigenvalues --    0.19380   0.19681   0.24164   0.25008   0.29609
  Beta virt. eigenvalues --    0.54003   0.55925   0.57547   0.59512   0.63194

 Mulliken charges and spin densities:
               1          2
     1  C   -0.516663   0.048877
     2  C   -0.345347  -0.087266
     3  C   -0.344593   1.115344
     4  H    0.174623  -0.001064
     5  H    0.174621  -0.001066
     6  H    0.171655   0.013417
     7  H    0.174727   0.013544
     8  H    0.174724   0.013518
     9  H    0.168129  -0.057652
    10  H    0.168124  -0.057651
 Sum of Mulliken charges =  -0.00000   1.00000

 Dipole moment (field-independent basis, Debye):
    X=              0.2328    Y=             -0.0234    Z=              0.0001  Tot=              0.2340
 Quadrupole moment (field-independent basis, Debye-Ang):
   XX=            -21.4671   YY=            -21.0132   ZZ=            -19.7668
   XY=              0.7914   XZ=             -0.0005   YZ=              0.0005

 Normal termination of Gaussian 16 at Wed Oct  7 13:38:36 2020.
