 Gaussian 16, Revision A.03,
 Gaussian 16:  ES64L-G16RevA.03 25-Dec-2016

 ----------------------------------------------------------------------
 #P Opt(MaxCyc=100) PBE1PBE/6-31G* 5D 7F Integral=UltraFineGrid SCF=(No
 Symm,XQC,MaxCyc=120) IOp(1/33=1)
 ----------------------------------------------------------------------

 TstMul:  Mul=     1
 TstMul:  ICh=    -1
 TstMul:  Mul=     1
 Symbolic Z-matrix:
 Charge = -1 Multiplicity = 1

 SCF Done:  E(RPBE1PBE) =  -959.985108181     A.U. after   12 cycles
 SCF Done:  E(RPBE1PBE) =  -959.985294916     A.U. after    9 cycles
 SCF Done:  E(RPBE1PBE) =  -959.985399173     A.U. after    9 cycles
 SCF Done:  E(RPBE1PBE) =  -959.985464256     A.U. after    9 cycles
 SCF Done:  E(RPBE1PBE) =  -959.985478881     A.U. after    8 cycles
 SCF Done:  E(RPBE1PBE) =  -959.985480660     A.U. after    7 cycles
 Optimization completed.
    -- Stationary point found.

                         Standard orientation:
 ---------------------------------------------------------------------
 Center     Atomic      Atomic             Coordinates (Angstroms)
 Number     Number       Type             X           Y           Z
 ---------------------------------------------------------------------
      1         17           0        0.000000    0.000000   -2.345344
      2          6           0        0.000000    0.000000   -0.512670
      3          1           0       -0.000000    1.028253   -0.163818
      4          1           0       -0.890493   -0.514126   -0.163818
      5          1           0        0.890493   -0.514126   -0.163818
      6         17           0        0.000000    0.000000    2.555196
 ---------------------------------------------------------------------

 The electronic state is 1-A1.
 Alpha  occ. eigenvalues -- -101.54925-101.37570 -10.12334  -9.37986  -9.20087
 Alpha  occ. eigenvalues --   -7.11429  -7.10586  -7.10586  -6.93070  -6.93013
 Alpha  occ. eigenvalues --   -6.93013  -0.72387  -0.54469  -0.49183  -0.30307
 Alpha  occ. eigenvalues --   -0.30307  -0.27569  -0.17356  -0.17356  -0.03337
 Alpha  occ. eigenvalues --   -0.03173  -0.03173
 Alpha virt. eigenvalues --    0.18237   0.28235   0.31960   0.31960   0.54588
 Alpha virt. eigenvalues --    0.57988   0.60411   0.60411   0.64296   0.68244
 Alpha virt. eigenvalues --    0.68244   0.73523   0.74470   0.74470   0.96173

 Mulliken charges:
               1
     1  Cl  -0.215757
     2  C   -0.564328
     3  H    0.236679
     4  H    0.236679
     5  H    0.236679
     6  Cl  -0.929951
 Sum of Mulliken charges =  -1.00000

 Dipole moment (field-independent basis, Debye):
    X=             -0.0000    Y=             -0.0000    Z=             -7.7980  Tot=              7.7980
 Quadrupole moment (field-independent basis, Debye-Ang):
   XX=            -35.4963   YY=            -35.4963   ZZ=            -73.8066
   XY=             -0.0000   XZ=              0.0000   YZ=              0.0000

 Normal termination of Gaussian 16 at Wed Oct  7 13:39:55 2020.
