 Gaussian 16, Revision A.03,

 ----------------------------------------------------------------------
 #P Opt(TS,MaxCyc=50,NoEigenTest,MaxStep=10,AddRedundant) PBE1PBE/6-31G
 * 5D 7F Integral=UltraFineGrid SCF=(NoSymm,XQC,MaxCyc=120) IOp(1/33=1)
 ----------------------------------------------------------------------

 TstMul:  Mul=     1
 TstMul:  ICh=    -1
 TstMul:  Mul=     1
 Symbolic Z-matrix:
 Charge = -1 Multiplicity = 1

 SCF Done:  E(RPBE1PBE) =  -959.971497648     A.U. after   11 cycles
 SCF Done:  E(RPBE1PBE) =  -959.971572340     A.U. after    9 cycles
 SCF Done:  E(RPBE1PBE) =  -959.971581451     A.U. after    8 cycles
 SCF Done:  E(RPBE1PBE) =  -959.971580421     A.U. after    8 cycles
 Optimization completed.
    -- Stationary point found.
 Normal termination of Gaussian 16 at Wed Oct  7 13:39:35 2020.
 Gaussian 16:  ES64L-G16RevA.03 25-Dec-2016

 ----------------------------------------------------------------------
 #P Freq PBE1PBE/6-31G* 5D 7F Integral=UltraFineGrid SCF=(NoSymm,XQC,Ma
 xCyc=120) IOp(1/33=1) Geom=Check Guess=Read
 ----------------------------------------------------------------------

 TstMul:  Mul=     1
 TstMul:  ICh=    -1
 TstMul:  Mul=     1
 Structure from the checkpoint file:  "MN_28_clch3clts_BH76_PBE0_631Gs.chk"
 Charge = -1 Multiplicity = 1

                         Standard orientation:
 ---------------------------------------------------------------------
 Center     Atomic      Atomic             Coordinates (Angstroms)
 Number     Number       Type             X           Y           Z
 ---------------------------------------------------------------------
      1         17           0        2.320233   -0.000009    0.000016
      2          6           0       -0.000069    0.000031   -0.000048
      3          1           0        0.000198   -0.761315   -0.759626
      4          1           0       -0.000002   -0.277100    1.039079
      5          1           0        0.000201    1.038524   -0.279613
      6         17           0       -2.320232   -0.000008    0.000011
 ---------------------------------------------------------------------

 SCF Done:  E(RPBE1PBE) =  -959.971580421     A.U. after    1 cycles

 The electronic state is 1-A.
 Alpha  occ. eigenvalues -- -101.45244-101.45240 -10.13213  -9.27976  -9.27972
 Alpha  occ. eigenvalues --   -7.01170  -7.01165  -7.00754  -7.00754  -7.00750
 Alpha  occ. eigenvalues --   -7.00750  -0.61211  -0.57735  -0.52136  -0.29979
 Alpha  occ. eigenvalues --   -0.29979  -0.17550  -0.10457  -0.10457  -0.09635
 Alpha  occ. eigenvalues --   -0.09635  -0.08424
 Alpha virt. eigenvalues --    0.15003   0.26693   0.33404   0.33405   0.59294
 Alpha virt. eigenvalues --    0.59829   0.65615   0.65615   0.66235   0.66235
 Alpha virt. eigenvalues --    0.69906   0.74286   0.74287   0.76712   0.91639

 Mulliken charges:
               1
     1  Cl  -0.634533
     2  C   -0.463117
     3  H    0.244004
     4  H    0.244012
     5  H    0.244000
     6  Cl  -0.634366
 Sum of Mulliken charges =  -1.00000

 Dipole moment (field-independent basis, Debye):
    X=             -0.0014    Y=              0.0001    Z=             -0.0001  Tot=              0.0014
 Quadrupole moment (field-independent basis, Debye-Ang):
   XX=            -71.6532   YY=            -35.4460   ZZ=            -35.4460
   XY=              0.0001   XZ=             -0.0003   YZ=             -0.0000

  Exact polarizability:  96.031   0.000  22.338  -0.000  -0.000  22.338
 Approx polarizability: 135.207   0.000  28.009  -0.001   0.000  28.009

 ******    1 imaginary frequencies (negative Signs) ******

                      1                      2                      3
                      A                      A                      A
 Frequencies --   -375.2705               209.3146               209.5126
 Red. masses --     13.2647                 4.3402                 4.3403
 Frc consts  --      1.1006                 0.1120                 0.1123
 IR Inten    --   1073.2390                14.5295                14.5291

                      4                      5                      6
                      A                      A                      A
 Frequencies --    223.7060               968.7219               968.8497
 Red. masses --     34.9628                 1.0124                 1.0124
 Frc consts  --      1.0309                 0.5597                 0.5599
 IR Inten    --      0.0001                 0.0000                 0.0000

                      7                      8                      9
                      A                      A                      A
 Frequencies --   1047.3109              1413.5871              1413.6293
 Red. masses --      1.0437                 1.1045                 1.1045
 Frc consts  --      0.6745                 1.3003                 1.3004
 IR Inten    --     83.0333                 6.1836                 6.1842

                     10                     11                     12
                      A                      A                      A
 Frequencies --   3239.5629              3442.1710              3442.3113
 Red. masses --      1.0078                 1.1236                 1.1236
 Frc consts  --      6.2317                 7.8439                 7.8445
 IR Inten    --      0.0000                 0.9607                 0.9613

 - Thermochemistry -
 -------------------
 Temperature   298.150 Kelvin.  Pressure   1.00000 Atm.
 Atom     1 has atomic number 17 and mass  34.96885

 Molecular mass:    84.96118 amu.
 Principal axes and moments of inertia in atomic units:
                           1         2         3
     Eigenvalues --    12.487901350.778851350.77891
           X            1.00000   0.00000  -0.00000
           Y           -0.00000   1.00000   0.00074
           Z            0.00000  -0.00074   1.00000
 This molecule is an asymmetric top.
 Rotational symmetry number  1.
 Rotational temperatures (Kelvin)      6.93583     0.06412     0.06412
 Rotational constants (GHZ):         144.51916     1.33607     1.33607
    1 imaginary frequencies ignored.
 Zero-point vibrational energy      99162.5 (Joules/Mol)
                                   23.70041 (Kcal/Mol)
 Warning -- explicit consideration of   3 degrees of freedom as
           vibrations may cause significant error
 Vibrational temperatures:    301.16   301.44   321.86  1393.77  1393.96
          (Kelvin)           1506.85  2033.84  2033.90  4661.01  4952.52
                             4952.72

 Zero-point correction=                           0.037769 (Hartree/Particle)
 Thermal correction to Energy=                    0.042346
 Thermal correction to Enthalpy=                  0.043290
 Thermal correction to Gibbs Free Energy=         0.009927
 Sum of electronic and zero-point Energies=           -959.933811
 Sum of electronic and thermal Energies=              -959.929234
 Sum of electronic and thermal Enthalpies=            -959.928290
 Sum of electronic and thermal Free Energies=         -959.961653

                     E (Thermal)             CV                S
                      KCal/Mol        Cal/Mol-Kelvin    Cal/Mol-Kelvin
 Total                   26.573             12.775             70.218
 Electronic               0.000              0.000              0.000
 Translational            0.889              2.981             39.232
 Rotational               0.889              2.981             24.636
 Vibrational             24.795              6.813              6.350
 Vibration     1          0.642              1.827              2.050
 Vibration     2          0.642              1.826              2.048
 Vibration     3          0.649              1.805              1.929

 Optimization completed.
    -- Stationary point found.
 Normal termination of Gaussian 16 at Wed Oct  7 13:40:05 2020.
