 Gaussian 16, Revision A.03,

 ----------------------------------------------------------------------
 #P Opt(TS,MaxCyc=50,NoEigenTest,MaxStep=10,AddRedundant) PBE1PBE/6-31G
 * 5D 7F Integral=UltraFineGrid SCF=(NoSymm,XQC,MaxCyc=120) IOp(1/33=1)
 ----------------------------------------------------------------------

 TstMul:  Mul=     2
 TstMul:  ICh=     0
 TstMul:  Mul=     2
 Symbolic Z-matrix:
 Charge =  0 Multiplicity = 2

 SCF Done:  E(UPBE1PBE) =  -599.462037290     A.U. after   17 cycles
 SCF Done:  E(UPBE1PBE) =  -599.463114324     A.U. after   17 cycles
 SCF Done:  E(UPBE1PBE) =  -599.462139055     A.U. after   17 cycles
 SCF Done:  E(UPBE1PBE) =  -599.461387634     A.U. after   18 cycles
 SCF Done:  E(UPBE1PBE) =  -599.460829532     A.U. after   18 cycles
 SCF Done:  E(UPBE1PBE) =  -599.460437421     A.U. after   17 cycles
 SCF Done:  E(UPBE1PBE) =  -599.460204838     A.U. after   17 cycles
 SCF Done:  E(UPBE1PBE) =  -599.460125818     A.U. after   17 cycles
 SCF Done:  E(UPBE1PBE) =  -599.460128064     A.U. after   14 cycles
 SCF Done:  E(UPBE1PBE) =  -599.460136686     A.U. after   12 cycles
 SCF Done:  E(UPBE1PBE) =  -599.460175626     A.U. after   15 cycles
 SCF Done:  E(UPBE1PBE) =  -599.460191879     A.U. after   15 cycles
 SCF Done:  E(UPBE1PBE) =  -599.460192089     A.U. after   14 cycles
 SCF Done:  E(UPBE1PBE) =  -599.460192254     A.U. after   12 cycles
 Optimization completed.
    -- Stationary point found.
 Normal termination of Gaussian 16 at Wed Oct  7 13:42:12 2020.
 Gaussian 16:  ES64L-G16RevA.03 25-Dec-2016

 ----------------------------------------------------------------------
 #P Freq PBE1PBE/6-31G* 5D 7F Integral=UltraFineGrid SCF=(NoSymm,XQC,Ma
 xCyc=120) IOp(1/33=1) Geom=Check Guess=Read
 ----------------------------------------------------------------------

 TstMul:  Mul=     2
 TstMul:  ICh=     0
 TstMul:  Mul=     2
 Structure from the checkpoint file:  "MN_21_ch3fclts_BH76_PBE0_631Gs.chk"
 Charge =  0 Multiplicity = 2

                         Standard orientation:
 ---------------------------------------------------------------------
 Center     Atomic      Atomic             Coordinates (Angstroms)
 Number     Number       Type             X           Y           Z
 ---------------------------------------------------------------------
      1         17           0        1.475420   -0.000101    0.000078
      2          9           0       -0.242905    0.000328   -0.000581
      3          6           0       -2.523174   -0.000138    0.000358
      4          1           0       -2.587257    0.990328   -0.430693
      5          1           0       -2.588159   -0.868874   -0.641534
      6          1           0       -2.581533   -0.121866    1.073984
 ---------------------------------------------------------------------

 SCF Done:  E(UPBE1PBE) =  -599.460192254     A.U. after    1 cycles

 The electronic state is 2-A.
 Alpha  occ. eigenvalues -- -101.74553 -24.80229 -10.26006  -9.57021  -7.31206
 Alpha  occ. eigenvalues --   -7.29341  -7.29341  -1.21370  -0.83338  -0.72292
 Alpha  occ. eigenvalues --   -0.51083  -0.45997  -0.45995  -0.44038  -0.44035
 Alpha  occ. eigenvalues --   -0.32032  -0.32032  -0.24571
 Alpha virt. eigenvalues --   -0.09903   0.11660   0.18240   0.18242   0.36582
 Alpha virt. eigenvalues --    0.42092   0.46043   0.46044   0.54807   0.54808
 Alpha virt. eigenvalues --    0.56892   0.70708   0.78246   0.78246   0.86317

  Beta  occ. eigenvalues -- -101.74399 -24.80265 -10.24597  -9.56868  -7.30700
  Beta  occ. eigenvalues --   -7.29251  -7.29251  -1.21341  -0.82347  -0.68217
  Beta  occ. eigenvalues --   -0.50597  -0.45645  -0.45643  -0.43315  -0.43312
  Beta  occ. eigenvalues --   -0.31748  -0.31748
  Beta virt. eigenvalues --   -0.11490  -0.02448   0.13231   0.18815   0.18817
  Beta virt. eigenvalues --    0.37021   0.43004   0.46241   0.46241   0.55715
  Beta virt. eigenvalues --    0.55716   0.63722   0.73825   0.79407   0.79407

 Mulliken charges and spin densities:
               1          2
     1  Cl   0.179887   0.199027
     2  F   -0.293387  -0.046832
     3  C   -0.506373   0.993183
     4  H    0.206601  -0.048463
     5  H    0.206577  -0.048466
     6  H    0.206695  -0.048450
 Sum of Mulliken charges =  -0.00000   1.00000

 Dipole moment (field-independent basis, Debye):
    X=             -1.1585    Y=             -0.0003    Z=              0.0012  Tot=              1.1585
 Quadrupole moment (field-independent basis, Debye-Ang):
   XX=            -19.4727   YY=            -24.1010   ZZ=            -24.1007
   XY=             -0.0002   XZ=              0.0049   YZ=             -0.0001

  Exact polarizability:  87.814   0.001  18.400   0.016   0.000  18.399
 Approx polarizability: 114.725  -0.001  21.923   0.029   0.000  21.923

 ******    1 imaginary frequencies (negative Signs) ******

                      1                      2                      3
                      A                      A                      A
 Frequencies --   -187.8099                86.6750                86.7048
 Red. masses --      7.9604                 8.2291                 8.2239
 Frc consts  --      0.1654                 0.0364                 0.0364
 IR Inten    --    246.9389                 1.8807                 1.8811

                      4                      5                      6
                      A                      A                      A
 Frequencies --    310.3418               311.1355               477.8095
 Red. masses --      1.0613                 1.0608                 5.7303
 Frc consts  --      0.0602                 0.0605                 0.7708
 IR Inten    --      0.1243                 0.1253               330.4779

                      7                      8                      9
                      A                      A                      A
 Frequencies --    698.2692              1434.1786              1434.2104
 Red. masses --      1.2982                 1.1008                 1.1008
 Frc consts  --      0.3729                 1.3340                 1.3341
 IR Inten    --     38.9677                 4.0423                 4.0509

                     10                     11                     12
                      A                      A                      A
 Frequencies --   3172.8671              3358.7435              3358.9088
 Red. masses --      1.0084                 1.1191                 1.1191
 Frc consts  --      5.9812                 7.4380                 7.4387
 IR Inten    --      0.3469                 1.1056                 1.0949

 - Thermochemistry -
 -------------------
 Temperature   298.150 Kelvin.  Pressure   1.00000 Atm.
 Atom     1 has atomic number 17 and mass  34.96885

 Molecular mass:    68.99073 amu.
 Principal axes and moments of inertia in atomic units:
                           1         2         3
     Eigenvalues --    12.60034 623.05953 623.05965
           X            1.00000   0.00001   0.00001
           Y           -0.00001   0.99760   0.06929
           Z           -0.00001  -0.06929   0.99760
 This molecule is an asymmetric top.
 Rotational symmetry number  1.
 Rotational temperatures (Kelvin)      6.87394     0.13901     0.13901
 Rotational constants (GHZ):         143.22958     2.89658     2.89658
    1 imaginary frequencies ignored.
 Zero-point vibrational energy      88104.0 (Joules/Mol)
                                   21.05737 (Kcal/Mol)
 Warning -- explicit consideration of   5 degrees of freedom as
           vibrations may cause significant error
 Vibrational temperatures:    124.71   124.75   446.51   447.65   687.46
          (Kelvin)           1004.65  2063.46  2063.51  4565.05  4832.48
                             4832.72

 Zero-point correction=                           0.033557 (Hartree/Particle)
 Thermal correction to Energy=                    0.039092
 Thermal correction to Enthalpy=                  0.040036
 Thermal correction to Gibbs Free Energy=         0.004717
 Sum of electronic and zero-point Energies=           -599.426635
 Sum of electronic and thermal Energies=              -599.421101
 Sum of electronic and thermal Enthalpies=            -599.420157
 Sum of electronic and thermal Free Energies=         -599.455476

                     E (Thermal)             CV                S
                      KCal/Mol        Cal/Mol-Kelvin    Cal/Mol-Kelvin
 Total                   24.530             15.505             74.335
 Electronic               0.000              0.000              1.377
 Translational            0.889              2.981             38.612
 Rotational               0.889              2.981             23.107
 Vibrational             22.753              9.544             11.239
 Vibration     1          0.601              1.958              3.734
 Vibration     2          0.601              1.958              3.733
 Vibration     3          0.699              1.654              1.361
 Vibration     4          0.700              1.652              1.356
 Vibration     5          0.834              1.299              0.716

                           ! Non-Optimized Parameters !
 Normal termination of Gaussian 16 at Wed Oct  7 13:42:45 2020.
