 Gaussian 16, Revision A.03,
 Gaussian 16:  ES64L-G16RevA.03 25-Dec-2016

 ----------------------------------------------------------------------
 #P Opt(MaxCyc=100) PBE1PBE/6-31G* 5D 7F Integral=UltraFineGrid SCF=(No
 Symm,XQC,MaxCyc=120) IOp(1/33=1)
 ----------------------------------------------------------------------

 TstMul:  Mul=     1
 TstMul:  ICh=     0
 TstMul:  Mul=     1
 Symbolic Z-matrix:
 Charge =  0 Multiplicity = 1

 SCF Done:  E(RPBE1PBE) =  -40.4561575338     A.U. after    8 cycles
 SCF Done:  E(RPBE1PBE) =  -40.4562294079     A.U. after    5 cycles
 Optimization completed.
    -- Stationary point found.

                         Standard orientation:
 ---------------------------------------------------------------------
 Center     Atomic      Atomic             Coordinates (Angstroms)
 Number     Number       Type             X           Y           Z
 ---------------------------------------------------------------------
      1          6           0        0.000000    0.000000    0.000000
      2          1           0        0.630997    0.630997    0.630997
      3          1           0       -0.630997   -0.630997    0.630997
      4          1           0        0.630997   -0.630997   -0.630997
      5          1           0       -0.630997    0.630997   -0.630997
 ---------------------------------------------------------------------

 The electronic state is 1-A1.
 Alpha  occ. eigenvalues --  -10.20227  -0.70995  -0.39941  -0.39941  -0.39941
 Alpha virt. eigenvalues --    0.13327   0.18941   0.18941   0.18941   0.55329
 Alpha virt. eigenvalues --    0.55329   0.55329   0.92497   0.92497   0.92497
 Alpha virt. eigenvalues --    0.97509   1.12693   1.66270   1.66270   2.26124

 Mulliken charges:
               1
     1  C   -0.734197
     2  H    0.183549
     3  H    0.183549
     4  H    0.183549
     5  H    0.183549
 Sum of Mulliken charges =  -0.00000

 Dipole moment (field-independent basis, Debye):
    X=             -0.0000    Y=             -0.0000    Z=             -0.0000  Tot=              0.0000
 Quadrupole moment (field-independent basis, Debye-Ang):
   XX=             -8.2288   YY=             -8.2288   ZZ=             -8.2288
   XY=             -0.0000   XZ=             -0.0000   YZ=             -0.0000

 Normal termination of Gaussian 16 at Wed Oct  7 13:38:52 2020.
