 Gaussian 16, Revision A.03,
 Gaussian 16:  ES64L-G16RevA.03 25-Dec-2016

 ----------------------------------------------------------------------
 #P Opt(MaxCyc=100) PBE1PBE/6-31G* 5D 7F Integral=UltraFineGrid SCF=(No
 Symm,XQC,MaxCyc=120) IOp(1/33=1)
 ----------------------------------------------------------------------

 TstMul:  Mul=     1
 TstMul:  ICh=     0
 TstMul:  Mul=     1
 Symbolic Z-matrix:
 Charge =  0 Multiplicity = 1

 SCF Done:  E(RPBE1PBE) =  -115.577016268     A.U. after   11 cycles
 SCF Done:  E(RPBE1PBE) =  -115.577308481     A.U. after    8 cycles
 SCF Done:  E(RPBE1PBE) =  -115.577327494     A.U. after    8 cycles
 SCF Done:  E(RPBE1PBE) =  -115.577329582     A.U. after    7 cycles
 Optimization completed.
    -- Stationary point found.

                         Standard orientation:
 ---------------------------------------------------------------------
 Center     Atomic      Atomic             Coordinates (Angstroms)
 Number     Number       Type             X           Y           Z
 ---------------------------------------------------------------------
      1          6           0       -0.046609    0.654803    0.000000
      2          8           0       -0.046609   -0.752316    0.000000
      3          1           0       -1.092989    0.971709    0.000000
      4          1           0        0.872802   -1.046048    0.000000
      5          1           0        0.436358    1.082022    0.892694
      6          1           0        0.436358    1.082022   -0.892694
 ---------------------------------------------------------------------

 The electronic state is 1-A'.
 Alpha  occ. eigenvalues --  -19.20885 -10.26017  -1.04200  -0.69715  -0.51871
 Alpha  occ. eigenvalues --   -0.44712  -0.43296  -0.34079  -0.27570
 Alpha virt. eigenvalues --    0.09320   0.14813   0.18082   0.18966   0.22280
 Alpha virt. eigenvalues --    0.55978   0.58988   0.59841   0.80875   0.87484
 Alpha virt. eigenvalues --    0.89958   0.93565   1.00206   1.02130   1.04963

 Mulliken charges:
               1
     1  C   -0.264281
     2  O   -0.641903
     3  H    0.185271
     4  H    0.415731
     5  H    0.152591
     6  H    0.152591
 Sum of Mulliken charges =  -0.00000

 Dipole moment (field-independent basis, Debye):
    X=              1.4570    Y=              0.8813    Z=             -0.0000  Tot=              1.7028
 Quadrupole moment (field-independent basis, Debye-Ang):
   XX=            -11.4831   YY=            -12.9617   ZZ=            -13.5686
   XY=             -2.1455   XZ=             -0.0000   YZ=             -0.0000

 Normal termination of Gaussian 16 at Wed Oct  7 13:39:33 2020.
