 Gaussian 16, Revision A.03,
 Gaussian 16:  ES64L-G16RevA.03 25-Dec-2016

 ----------------------------------------------------------------------
 #P Opt(MaxCyc=100) PBE1PBE/6-31G* 5D 7F Integral=UltraFineGrid SCF=(No
 Symm,XQC,MaxCyc=120) IOp(1/33=1)
 ----------------------------------------------------------------------

 TstMul:  Mul=     1
 TstMul:  ICh=    -1
 TstMul:  Mul=     1
 Symbolic Z-matrix:
 Charge = -1 Multiplicity = 1

 SCF Done:  E(RPBE1PBE) =  -599.598789169     A.U. after   14 cycles
 SCF Done:  E(RPBE1PBE) =  -599.600668560     A.U. after   11 cycles
 SCF Done:  E(RPBE1PBE) =  -599.604356519     A.U. after   12 cycles
 SCF Done:  E(RPBE1PBE) =  -599.606273838     A.U. after   12 cycles
 SCF Done:  E(RPBE1PBE) =  -599.611327614     A.U. after   12 cycles
 SCF Done:  E(RPBE1PBE) =  -599.634612979     A.U. after   13 cycles
 SCF Done:  E(RPBE1PBE) =  -599.653602108     A.U. after   12 cycles
 SCF Done:  E(RPBE1PBE) =  -599.662433785     A.U. after   12 cycles
 SCF Done:  E(RPBE1PBE) =  -599.668148817     A.U. after   10 cycles
 SCF Done:  E(RPBE1PBE) =  -599.678792419     A.U. after   11 cycles
 SCF Done:  E(RPBE1PBE) =  -599.679797231     A.U. after   10 cycles
 SCF Done:  E(RPBE1PBE) =  -599.679953625     A.U. after   10 cycles
 SCF Done:  E(RPBE1PBE) =  -599.679962322     A.U. after    8 cycles
 SCF Done:  E(RPBE1PBE) =  -599.679966502     A.U. after    6 cycles
 SCF Done:  E(RPBE1PBE) =  -599.679982004     A.U. after    8 cycles
 SCF Done:  E(RPBE1PBE) =  -599.679984675     A.U. after    8 cycles
 Optimization completed.
    -- Stationary point found.

                         Standard orientation:
 ---------------------------------------------------------------------
 Center     Atomic      Atomic             Coordinates (Angstroms)
 Number     Number       Type             X           Y           Z
 ---------------------------------------------------------------------
      1         17           0        0.000000    0.000000    1.972094
      2          6           0        0.000000    0.000000   -1.225402
      3          1           0        0.000000    1.025299   -0.850411
      4          1           0        0.887935   -0.512650   -0.850411
      5          1           0       -0.887935   -0.512650   -0.850411
      6          9           0        0.000000    0.000000   -2.624662
 ---------------------------------------------------------------------

 The electronic state is 1-A1.
 Alpha  occ. eigenvalues -- -101.36448 -24.59825 -10.12362  -9.18949  -6.91917
 Alpha  occ. eigenvalues --   -6.91885  -6.91885  -1.05330  -0.55167  -0.48120
 Alpha  occ. eigenvalues --   -0.33504  -0.32694  -0.32694  -0.19246  -0.19246
 Alpha  occ. eigenvalues --   -0.02285  -0.02102  -0.02102
 Alpha virt. eigenvalues --    0.28033   0.31883   0.34599   0.34599   0.63650
 Alpha virt. eigenvalues --    0.71261   0.71261   0.71456   0.75299   0.75299
 Alpha virt. eigenvalues --    0.84038   1.04171   1.04171   1.13020   1.15629

 Mulliken charges:
               1
     1  Cl  -0.957326
     2  C   -0.161150
     3  H    0.171693
     4  H    0.171693
     5  H    0.171693
     6  F   -0.396605
 Sum of Mulliken charges =  -1.00000

 Dipole moment (field-independent basis, Debye):
    X=              0.0000    Y=             -0.0000    Z=             -6.4936  Tot=              6.4936
 Quadrupole moment (field-independent basis, Debye-Ang):
   XX=            -27.2927   YY=            -27.2927   ZZ=            -54.0777
   XY=             -0.0000   XZ=             -0.0000   YZ=              0.0000

 Normal termination of Gaussian 16 at Wed Oct  7 13:42:11 2020.
