 Gaussian 16, Revision A.03,

 ----------------------------------------------------------------------
 #P Opt(TS,MaxCyc=150,NoEigenTest,MaxStep=10,AddRedundant) PBE1PBE/6-31
 G* 5D 7F Integral=UltraFineGrid SCF=(NoSymm,XQC,MaxCyc=120) IOp(1/33=1
 )
 ----------------------------------------------------------------------

 TstMul:  Mul=     1
 TstMul:  ICh=    -1
 TstMul:  Mul=     1
 Symbolic Z-matrix:
 Charge = -1 Multiplicity = 1

 SCF Done:  E(RPBE1PBE) =  -599.611244675     A.U. after   13 cycles
 SCF Done:  E(RPBE1PBE) =  -599.611276445     A.U. after    8 cycles
 SCF Done:  E(RPBE1PBE) =  -599.611262311     A.U. after    9 cycles
 SCF Done:  E(RPBE1PBE) =  -599.610076117     A.U. after   11 cycles
 SCF Done:  E(RPBE1PBE) =  -599.608843238     A.U. after   11 cycles
 SCF Done:  E(RPBE1PBE) =  -599.607659441     A.U. after   11 cycles
 SCF Done:  E(RPBE1PBE) =  -599.606595325     A.U. after   11 cycles
 SCF Done:  E(RPBE1PBE) =  -599.605668485     A.U. after   11 cycles
 SCF Done:  E(RPBE1PBE) =  -599.604849423     A.U. after   11 cycles
 SCF Done:  E(RPBE1PBE) =  -599.604082828     A.U. after   11 cycles
 SCF Done:  E(RPBE1PBE) =  -599.603573751     A.U. after   11 cycles
 SCF Done:  E(RPBE1PBE) =  -599.603567768     A.U. after   11 cycles
 SCF Done:  E(RPBE1PBE) =  -599.603597821     A.U. after   11 cycles
 SCF Done:  E(RPBE1PBE) =  -599.603648659     A.U. after   11 cycles
 SCF Done:  E(RPBE1PBE) =  -599.603699867     A.U. after   11 cycles
 SCF Done:  E(RPBE1PBE) =  -599.603726023     A.U. after   10 cycles
 SCF Done:  E(RPBE1PBE) =  -599.603728321     A.U. after   11 cycles
 SCF Done:  E(RPBE1PBE) =  -599.603727875     A.U. after   11 cycles
 SCF Done:  E(RPBE1PBE) =  -599.603731403     A.U. after    9 cycles
 Optimization completed.
    -- Stationary point found.
 Normal termination of Gaussian 16 at Wed Oct  7 13:50:10 2020.
 Gaussian 16:  ES64L-G16RevA.03 25-Dec-2016

 ----------------------------------------------------------------------
 #P Freq PBE1PBE/6-31G* 5D 7F Integral=UltraFineGrid SCF=(NoSymm,XQC,Ma
 xCyc=120) IOp(1/33=1) Geom=Check Guess=Read
 ----------------------------------------------------------------------

 TstMul:  Mul=     1
 TstMul:  ICh=    -1
 TstMul:  Mul=     1
 Structure from the checkpoint file:  "MN_37_fch3clts_BH76_PBE0_631Gs.chk"
 Charge = -1 Multiplicity = 1

                         Standard orientation:
 ---------------------------------------------------------------------
 Center     Atomic      Atomic             Coordinates (Angstroms)
 Number     Number       Type             X           Y           Z
 ---------------------------------------------------------------------
      1          6           0        0.324994   -0.243135    0.000047
      2          9           0        2.592541    0.121189   -0.000021
      3         17           0       -1.598848    0.080234   -0.000016
      4          1           0        0.940054    0.659012   -0.002862
      5          1           0        0.478103   -0.829952   -0.899506
      6          1           0        0.479421   -0.824930    0.902557
 ---------------------------------------------------------------------

 SCF Done:  E(RPBE1PBE) =  -599.603731403     A.U. after    1 cycles

 The electronic state is 1-A.
 Alpha  occ. eigenvalues -- -101.49016 -24.32812 -10.07462  -9.31973  -7.05318
 Alpha  occ. eigenvalues --   -7.04641  -7.04640  -0.73833  -0.64820  -0.49462
 Alpha  occ. eigenvalues --   -0.25578  -0.24282  -0.20587  -0.12565  -0.12526
 Alpha  occ. eigenvalues --   -0.00164   0.00213   0.00710
 Alpha virt. eigenvalues --    0.21306   0.31190   0.35229   0.40305   0.58578
 Alpha virt. eigenvalues --    0.64281   0.64888   0.67039   0.74423   0.74452
 Alpha virt. eigenvalues --    0.90835   1.05740   1.06671   1.08085   1.11392

 Mulliken charges:
               1
     1  C   -0.534150
     2  F   -0.720894
     3  Cl  -0.380548
     4  H    0.267998
     5  H    0.183706
     6  H    0.183888
 Sum of Mulliken charges =  -1.00000

 Dipole moment (field-independent basis, Debye):
    X=             -4.7202    Y=             -0.8382    Z=              0.0005  Tot=              4.7941
 Quadrupole moment (field-independent basis, Debye-Ang):
   XX=            -56.0861   YY=            -26.5392   ZZ=            -26.3558
   XY=             -0.7799   XZ=              0.0006   YZ=             -0.0002

  Exact polarizability:  59.623  -0.894  18.441   0.004   0.002  18.651
 Approx polarizability:  91.480  -1.208  22.879   0.008   0.002  23.168

 ******    1 imaginary frequencies (negative Signs) ******

                      1                      2                      3
                      A                      A                      A
 Frequencies --   -271.9032               196.9816               288.8872
 Red. masses --      2.5541                 2.0426                17.7866
 Frc consts  --      0.1113                 0.0467                 0.8746
 IR Inten    --    108.2964                 5.3522                52.9064

                      4                      5                      6
                      A                      A                      A
 Frequencies --    367.8805               691.2384               963.2172
 Red. masses --      9.0237                 1.3240                 1.1097
 Frc consts  --      0.7195                 0.3727                 0.6066
 IR Inten    --    259.7306               173.8893                 0.1559

                      7                      8                      9
                      A                      A                      A
 Frequencies --   1162.1634              1429.5913              1438.5135
 Red. masses --      1.0659                 1.0659                 1.0758
 Frc consts  --      0.8482                 1.2835                 1.3116
 IR Inten    --      7.8707                 9.6905                14.0439

                     10                     11                     12
                      A                      A                      A
 Frequencies --   3130.8630              3270.6744              3300.4387
 Red. masses --      1.0244                 1.1093                 1.1130
 Frc consts  --      5.9161                 6.9917                 7.1433
 IR Inten    --     25.7460                46.3587                17.4574

 - Thermochemistry -
 -------------------
 Temperature   298.150 Kelvin.  Pressure   1.00000 Atm.
 Atom     1 has atomic number  6 and mass  12.00000

 Molecular mass:    68.99073 amu.
 Principal axes and moments of inertia in atomic units:
                           1         2         3
     Eigenvalues --    16.59336 790.38970 795.29545
           X            1.00000  -0.00173  -0.00000
           Y            0.00173   1.00000   0.00008
           Z            0.00000  -0.00008   1.00000
 This molecule is an asymmetric top.
 Rotational symmetry number  1.
 Rotational temperatures (Kelvin)      5.21979     0.10958     0.10891
 Rotational constants (GHZ):         108.76282     2.28336     2.26927
    1 imaginary frequencies ignored.
 Zero-point vibrational energy      97139.5 (Joules/Mol)
                                   23.21689 (Kcal/Mol)
 Warning -- explicit consideration of   3 degrees of freedom as
           vibrations may cause significant error
 Vibrational temperatures:    283.41   415.64   529.30   994.54  1385.85
          (Kelvin)           1672.09  2056.86  2069.70  4504.61  4705.77
                             4748.60

 Zero-point correction=                           0.036998 (Hartree/Particle)
 Thermal correction to Energy=                    0.041364
 Thermal correction to Enthalpy=                  0.042308
 Thermal correction to Gibbs Free Energy=         0.010139
 Sum of electronic and zero-point Energies=           -599.566733
 Sum of electronic and thermal Energies=              -599.562368
 Sum of electronic and thermal Enthalpies=            -599.561423
 Sum of electronic and thermal Free Energies=         -599.593593

                     E (Thermal)             CV                S
                      KCal/Mol        Cal/Mol-Kelvin    Cal/Mol-Kelvin
 Total                   25.956             12.723             67.706
 Electronic               0.000              0.000              0.000
 Translational            0.889              2.981             38.612
 Rotational               0.889              2.981             23.860
 Vibrational             24.179              6.762              5.235
 Vibration     1          0.636              1.844              2.161
 Vibration     2          0.685              1.694              1.480
 Vibration     3          0.740              1.538              1.089

                           ! Non-Optimized Parameters !
 Normal termination of Gaussian 16 at Wed Oct  7 13:50:49 2020.
