 Gaussian 16, Revision A.03,

 ----------------------------------------------------------------------
 #P Opt(TS,MaxCyc=50,NoEigenTest,MaxStep=10,AddRedundant) PBE1PBE/6-31G
 * 5D 7F Integral=UltraFineGrid SCF=(NoSymm,XQC,MaxCyc=120) IOp(1/33=1)
 ----------------------------------------------------------------------

 TstMul:  Mul=     1
 TstMul:  ICh=    -1
 TstMul:  Mul=     1
 Symbolic Z-matrix:
 Charge = -1 Multiplicity = 1

 SCF Done:  E(RPBE1PBE) =  -239.273420232     A.U. after   12 cycles
 SCF Done:  E(RPBE1PBE) =  -239.273985272     A.U. after   11 cycles
 SCF Done:  E(RPBE1PBE) =  -239.274191348     A.U. after   11 cycles
 SCF Done:  E(RPBE1PBE) =  -239.274128559     A.U. after   11 cycles
 SCF Done:  E(RPBE1PBE) =  -239.274149674     A.U. after    9 cycles
 Optimization completed.
    -- Stationary point found.
 Normal termination of Gaussian 16 at Wed Oct  7 13:40:28 2020.
 Gaussian 16:  ES64L-G16RevA.03 25-Dec-2016

 ----------------------------------------------------------------------
 #P Freq PBE1PBE/6-31G* 5D 7F Integral=UltraFineGrid SCF=(NoSymm,XQC,Ma
 xCyc=120) IOp(1/33=1) Geom=Check Guess=Read
 ----------------------------------------------------------------------

 TstMul:  Mul=     1
 TstMul:  ICh=    -1
 TstMul:  Mul=     1
 Structure from the checkpoint file:  "MN_39_fch3fts_BH76_PBE0_631Gs.chk"
 Charge = -1 Multiplicity = 1

                         Standard orientation:
 ---------------------------------------------------------------------
 Center     Atomic      Atomic             Coordinates (Angstroms)
 Number     Number       Type             X           Y           Z
 ---------------------------------------------------------------------
      1          9           0        1.783313    0.000006   -0.000010
      2          6           0       -0.000045    0.000001    0.000020
      3          1           0        0.000163   -0.585096    0.907035
      4          1           0        0.000202    1.078043    0.053134
      5          1           0        0.000143   -0.493086   -0.960122
      6          9           0       -1.783340    0.000009   -0.000009
 ---------------------------------------------------------------------

 SCF Done:  E(RPBE1PBE) =  -239.274149674     A.U. after    1 cycles

 The electronic state is 1-A.
 Alpha  occ. eigenvalues --  -24.37830 -24.37823 -10.05554  -0.80283  -0.79605
 Alpha  occ. eigenvalues --   -0.46170  -0.22596  -0.22594  -0.13533  -0.04951
 Alpha  occ. eigenvalues --   -0.04951  -0.02959  -0.02959  -0.01711
 Alpha virt. eigenvalues --    0.33589   0.34293   0.39222   0.39223   0.80258
 Alpha virt. eigenvalues --    0.80262   0.86750   1.06134   1.14135   1.14139
 Alpha virt. eigenvalues --    1.36108   1.45336   1.45336   1.60595   1.60671

 Mulliken charges:
               1
     1  F   -0.646950
     2  C   -0.110932
     3  H    0.134907
     4  H    0.134913
     5  H    0.134911
     6  F   -0.646849
 Sum of Mulliken charges =  -1.00000

 Dipole moment (field-independent basis, Debye):
    X=             -0.0005    Y=             -0.0001    Z=              0.0001  Tot=              0.0005
 Quadrupole moment (field-independent basis, Debye-Ang):
   XX=            -37.3891   YY=            -17.6071   ZZ=            -17.6075
   XY=              0.0001   XZ=              0.0000   YZ=              0.0000

  Exact polarizability:  28.860   0.000  14.758   0.000   0.000  14.758
 Approx polarizability:  42.254   0.000  17.461   0.000  -0.000  17.461

 ******    1 imaginary frequencies (negative Signs) ******

                      1                      2                      3
                      A                      A                      A
 Frequencies --   -497.0292               351.7091               351.7320
 Red. masses --     10.2694                 4.3156                 4.3157
 Frc consts  --      1.4947                 0.3145                 0.3146
 IR Inten    --    752.3010                17.5697                17.5698

                      4                      5                      6
                      A                      A                      A
 Frequencies --    381.7571              1060.7629              1060.8022
 Red. masses --     18.9567                 1.0217                 1.0217
 Frc consts  --      1.6277                 0.6774                 0.6774
 IR Inten    --      0.0000                 0.0000                 0.0000

                      7                      8                      9
                      A                      A                      A
 Frequencies --   1174.8762              1375.3346              1375.4228
 Red. masses --      1.0897                 1.1245                 1.1245
 Frc consts  --      0.8862                 1.2532                 1.2533
 IR Inten    --      0.1623                 1.7716                 1.7693

                     10                     11                     12
                      A                      A                      A
 Frequencies --   3139.7477              3330.4173              3330.4797
 Red. masses --      1.0079                 1.1283                 1.1283
 Frc consts  --      5.8543                 7.3737                 7.3740
 IR Inten    --      0.0000                56.3473                56.3424

 - Thermochemistry -
 -------------------
 Temperature   298.150 Kelvin.  Pressure   1.00000 Atm.
 Atom     1 has atomic number  9 and mass  18.99840

 Molecular mass:    53.02028 amu.
 Principal axes and moments of inertia in atomic units:
                           1         2         3
     Eigenvalues --    12.57860 437.81426 437.81526
           X            1.00000   0.00000   0.00000
           Y           -0.00000   1.00000   0.00000
           Z           -0.00000  -0.00000   1.00000
 This molecule is an asymmetric top.
 Rotational symmetry number  1.
 Rotational temperatures (Kelvin)      6.88582     0.19783     0.19783
 Rotational constants (GHZ):         143.47710     4.12216     4.12215
    1 imaginary frequencies ignored.
 Zero-point vibrational energy     101282.1 (Joules/Mol)
                                   24.20700 (Kcal/Mol)
 Warning -- explicit consideration of   3 degrees of freedom as
           vibrations may cause significant error
 Vibrational temperatures:    506.03   506.06   549.26  1526.20  1526.26
          (Kelvin)           1690.38  1978.80  1978.93  4517.40  4791.73
                             4791.82

 Zero-point correction=                           0.038576 (Hartree/Particle)
 Thermal correction to Energy=                    0.042548
 Thermal correction to Enthalpy=                  0.043493
 Thermal correction to Gibbs Free Energy=         0.013173
 Sum of electronic and zero-point Energies=           -239.235573
 Sum of electronic and thermal Energies=              -239.231601
 Sum of electronic and thermal Enthalpies=            -239.230657
 Sum of electronic and thermal Free Energies=         -239.260976

                     E (Thermal)             CV                S
                      KCal/Mol        Cal/Mol-Kelvin    Cal/Mol-Kelvin
 Total                   26.699             11.697             63.812
 Electronic               0.000              0.000              0.000
 Translational            0.889              2.981             37.827
 Rotational               0.889              2.981             22.404
 Vibrational             24.922              5.735              3.581
 Vibration     1          0.728              1.572              1.159
 Vibration     2          0.728              1.572              1.158
 Vibration     3          0.751              1.509              1.032

 Optimization completed.
    -- Stationary point found.
 Normal termination of Gaussian 16 at Wed Oct  7 13:40:55 2020.
