 Gaussian 16, Revision A.03,
 Gaussian 16:  ES64L-G16RevA.03 25-Dec-2016

 ----------------------------------------------------------------------
 #P Opt(MaxCyc=100) PBE1PBE/6-31G* 5D 7F Integral=UltraFineGrid SCF=(No
 Symm,XQC,MaxCyc=120) IOp(1/33=1)
 ----------------------------------------------------------------------

 TstMul:  Mul=     1
 TstMul:  ICh=    -1
 TstMul:  Mul=     1
 Symbolic Z-matrix:
 Charge = -1 Multiplicity = 1

 SCF Done:  E(RPBE1PBE) =  -239.286199246     A.U. after   12 cycles
 SCF Done:  E(RPBE1PBE) =  -239.287221629     A.U. after   10 cycles
 SCF Done:  E(RPBE1PBE) =  -239.288509692     A.U. after   11 cycles
 SCF Done:  E(RPBE1PBE) =  -239.288607859     A.U. after   10 cycles
 SCF Done:  E(RPBE1PBE) =  -239.288652533     A.U. after    9 cycles
 SCF Done:  E(RPBE1PBE) =  -239.288655651     A.U. after   10 cycles
 SCF Done:  E(RPBE1PBE) =  -239.288658946     A.U. after    8 cycles
 Optimization completed.
    -- Stationary point found.

                         Standard orientation:
 ---------------------------------------------------------------------
 Center     Atomic      Atomic             Coordinates (Angstroms)
 Number     Number       Type             X           Y           Z
 ---------------------------------------------------------------------
      1          9           0        0.000000    0.000000   -1.789552
      2          6           0        0.000000    0.000000   -0.355369
      3          1           0       -0.000000    1.019728    0.021660
      4          1           0       -0.883111   -0.509864    0.021660
      5          1           0        0.883111   -0.509864    0.021660
      6          9           0        0.000000    0.000000    2.019244
 ---------------------------------------------------------------------

 The electronic state is 1-A1.
 Alpha  occ. eigenvalues --  -24.53805 -24.26109 -10.06452  -0.98634  -0.67435
 Alpha  occ. eigenvalues --   -0.49082  -0.27138  -0.26496  -0.26496  -0.14013
 Alpha  occ. eigenvalues --   -0.14013   0.05772   0.06093   0.06093
 Alpha virt. eigenvalues --    0.33106   0.37611   0.39833   0.39833   0.77417
 Alpha virt. eigenvalues --    0.77417   0.79260   1.09562   1.09562   1.14950
 Alpha virt. eigenvalues --    1.25832   1.46592   1.47353   1.47353   1.64050

 Mulliken charges:
               1
     1  F   -0.435264
     2  C   -0.189474
     3  H    0.147927
     4  H    0.147927
     5  H    0.147927
     6  F   -0.819043
 Sum of Mulliken charges =  -1.00000

 Dipole moment (field-independent basis, Debye):
    X=             -0.0000    Y=             -0.0000    Z=             -5.1921  Tot=              5.1921
 Quadrupole moment (field-independent basis, Debye-Ang):
   XX=            -17.7860   YY=            -17.7860   ZZ=            -39.9084
   XY=             -0.0000   XZ=             -0.0000   YZ=              0.0000

 Normal termination of Gaussian 16 at Wed Oct  7 13:40:44 2020.
