 Gaussian 16, Revision A.03,
 Gaussian 16:  ES64L-G16RevA.03 25-Dec-2016

 ----------------------------------------------------------------------
 #P Opt(MaxCyc=100) PBE1PBE/6-31G* 5D 7F Integral=UltraFineGrid SCF=(No
 Symm,XQC,MaxCyc=120) IOp(1/33=1)
 ----------------------------------------------------------------------

 TstMul:  Mul=     1
 TstMul:  ICh=    -1
 TstMul:  Mul=     1
 Symbolic Z-matrix:
 Charge = -1 Multiplicity = 1

 SCF Done:  E(RPBE1PBE) =  -599.679704816     A.U. after   11 cycles
 SCF Done:  E(RPBE1PBE) =  -599.679906737     A.U. after    8 cycles
 SCF Done:  E(RPBE1PBE) =  -599.679965954     A.U. after    9 cycles
 SCF Done:  E(RPBE1PBE) =  -599.679979623     A.U. after    7 cycles
 SCF Done:  E(RPBE1PBE) =  -599.679983246     A.U. after    7 cycles
 SCF Done:  E(RPBE1PBE) =  -599.679984230     A.U. after    7 cycles
 SCF Done:  E(RPBE1PBE) =  -599.679984606     A.U. after    7 cycles
 Optimization completed.
    -- Stationary point found.

                         Standard orientation:
 ---------------------------------------------------------------------
 Center     Atomic      Atomic             Coordinates (Angstroms)
 Number     Number       Type             X           Y           Z
 ---------------------------------------------------------------------
      1          9           0        0.000000    0.000000   -2.624832
      2          6           0        0.000000    0.000000   -1.225629
      3          1           0       -0.000000    1.025075   -0.850455
      4          1           0       -0.887741   -0.512538   -0.850455
      5          1           0        0.887741   -0.512538   -0.850455
      6         17           0        0.000000    0.000000    1.972272
 ---------------------------------------------------------------------

 The electronic state is 1-A1.
 Alpha  occ. eigenvalues -- -101.36448 -24.59829 -10.12358  -9.18949  -6.91917
 Alpha  occ. eigenvalues --   -6.91885  -6.91885  -1.05334  -0.55172  -0.48120
 Alpha  occ. eigenvalues --   -0.33510  -0.32697  -0.32697  -0.19249  -0.19249
 Alpha  occ. eigenvalues --   -0.02285  -0.02102  -0.02102
 Alpha virt. eigenvalues --    0.28037   0.31882   0.34604   0.34604   0.63650
 Alpha virt. eigenvalues --    0.71257   0.71257   0.71453   0.75296   0.75296
 Alpha virt. eigenvalues --    0.84040   1.04178   1.04178   1.13041   1.15637

 Mulliken charges:
               1
     1  F   -0.396553
     2  C   -0.161252
     3  H    0.171714
     4  H    0.171714
     5  H    0.171714
     6  Cl  -0.957338
 Sum of Mulliken charges =  -1.00000

 Dipole moment (field-independent basis, Debye):
    X=              0.0000    Y=              0.0000    Z=             -6.4946  Tot=              6.4946
 Quadrupole moment (field-independent basis, Debye-Ang):
   XX=            -27.2928   YY=            -27.2928   ZZ=            -54.0798
   XY=             -0.0000   XZ=             -0.0000   YZ=              0.0000

 Normal termination of Gaussian 16 at Wed Oct  7 13:40:47 2020.
