 Gaussian 16, Revision A.03,
 Gaussian 16:  ES64L-G16RevA.03 25-Dec-2016

 ----------------------------------------------------------------------
 #P PBE1PBE/6-31G* 5D 7F Integral=UltraFineGrid SCF=(NoSymm,XQC,MaxCyc=
 120) IOp(1/33=1) Stable=Opt
 ----------------------------------------------------------------------

 TstMul:  Mul=     2
 TstMul:  ICh=     0
 TstMul:  Mul=     2
 Symbolic Z-matrix:
 Charge =  0 Multiplicity = 2

                         Standard orientation:
 ---------------------------------------------------------------------
 Center     Atomic      Atomic             Coordinates (Angstroms)
 Number     Number       Type             X           Y           Z
 ---------------------------------------------------------------------
      1         17           0        0.000000    0.000000    0.000000
 ---------------------------------------------------------------------

 SCF Done:  E(UPBE1PBE) =  -459.964960711     A.U. after    9 cycles

 Unable to determine electronic state:  an orbital has unidentified symmetry.
 Alpha  occ. eigenvalues -- -101.74861  -9.57614  -7.32309  -7.29879  -7.29879
 Alpha  occ. eigenvalues --   -0.86759  -0.42425  -0.36462  -0.36462
 Alpha virt. eigenvalues --    0.34336   0.41144   0.44434   0.44434   0.78936
 Alpha virt. eigenvalues --    0.80409   0.80409   0.85367   0.85367
  Beta  occ. eigenvalues -- -101.74157  -9.56924  -7.29921  -7.29482  -7.29482
  Beta  occ. eigenvalues --   -0.80692  -0.34714  -0.34714
  Beta virt. eigenvalues --   -0.22987   0.36402   0.45244   0.45244   0.46300
  Beta virt. eigenvalues --    0.86208   0.86208   0.87007   0.87007   0.88420

 Mulliken charges and spin densities:
               1          2
     1  Cl  -0.000000   1.000000
 Sum of Mulliken charges =  -0.00000   1.00000

 Dipole moment (field-independent basis, Debye):
    X=             -0.0000    Y=              0.0000    Z=             -0.0000  Tot=              0.0000
 Quadrupole moment (field-independent basis, Debye-Ang):
   XX=            -12.9336   YY=            -12.9336   ZZ=            -10.7251
   XY=              0.0000   XZ=             -0.0000   YZ=             -0.0031

 Normal termination of Gaussian 16 at Wed Oct  7 13:39:00 2020.
