 Gaussian 16, Revision A.03,

 ----------------------------------------------------------------------
 #P Opt(TS,MaxCyc=50,NoEigenTest,MaxStep=10,AddRedundant) PBE1PBE/6-31G
 * 5D 7F Integral=UltraFineGrid SCF=(NoSymm,XQC,MaxCyc=120) IOp(1/33=1)
 ----------------------------------------------------------------------

 TstMul:  Mul=     1
 TstMul:  ICh=     0
 TstMul:  Mul=     1
 Symbolic Z-matrix:
 Charge =  0 Multiplicity = 1

 SCF Done:  E(RPBE1PBE) =  -93.2261843175     A.U. after   12 cycles
 SCF Done:  E(RPBE1PBE) =  -93.2261855924     A.U. after    8 cycles
 SCF Done:  E(RPBE1PBE) =  -93.2261855159     A.U. after    8 cycles
 Optimization completed.
    -- Stationary point found.

 1\1\GINC-NODE20\FTS\RPBE1PBE\6-31G(d)\C1H1N1\RPEVERATI\07-Oct-2020\0\\
 #P Opt(TS,MaxCyc=50,NoEigenTest,MaxStep=10,AddRedundant) PBE1PBE/6-31G
 * 5D 7F Integral=UltraFineGrid SCF=(NoSymm,XQC,MaxCyc=120) IOp(1/33=1)
 \\TS search on BH76.\\0,1\C,0.0796562216,0.6203977792,0.\N,0.080515473
 2,-0.5685896538,0.\H,-1.0436796159,0.2554792598,0.\\Version=ES64L-G16R
 evA.03\State=1-A'\HF=-93.2261855\RMSD=2.961e-09\RMSF=2.212e-05\Dipole=
 -0.5074612,0.0626256,0.\Quadrupole=1.7356619,-1.7028077,-0.0328542,-0.
 2378042,0.,0.\PG=CS [SG(C1H1N1)]\\@

 Normal termination of Gaussian 16 at Wed Oct  7 13:40:30 2020.
 Gaussian 16:  ES64L-G16RevA.03 25-Dec-2016

 ----------------------------------------------------------------------
 #P Freq PBE1PBE/6-31G* 5D 7F Integral=UltraFineGrid SCF=(NoSymm,XQC,Ma
 xCyc=120) IOp(1/33=1) Geom=Check Guess=Read
 ----------------------------------------------------------------------

 TstMul:  Mul=     1
 TstMul:  ICh=     0
 TstMul:  Mul=     1
 Structure from the checkpoint file:  "MN_49_hcnts_BH76_PBE0_631Gs.chk"
 Charge =  0 Multiplicity = 1

                         Standard orientation:
 ---------------------------------------------------------------------
 Center     Atomic      Atomic             Coordinates (Angstroms)
 Number     Number       Type             X           Y           Z
 ---------------------------------------------------------------------
      1          6           0        0.080257    0.620501    0.000000
      2          7           0        0.080257   -0.568486    0.000000
      3          1           0       -1.043342    0.256395    0.000000
 ---------------------------------------------------------------------

 SCF Done:  E(RPBE1PBE) =  -93.2261855159     A.U. after    1 cycles

 The electronic state is 1-A'.
 Alpha  occ. eigenvalues --  -14.46895 -10.29133  -1.01364  -0.54122  -0.46408
 Alpha  occ. eigenvalues --   -0.39643  -0.34450
 Alpha virt. eigenvalues --   -0.05025   0.01922   0.07929   0.32933   0.54606
 Alpha virt. eigenvalues --    0.54681   0.59096   0.68630   0.73538   0.76374
 Alpha virt. eigenvalues --    0.79160   0.86161   1.27464   1.47572   1.49979

 Mulliken charges:
               1
     1  C   -0.057379
     2  N   -0.228615
     3  H    0.285994
 Sum of Mulliken charges =  -0.00000

 Dipole moment (field-independent basis, Debye):
    X=             -1.2897    Y=              0.1601    Z=              0.0000  Tot=              1.2996
 Quadrupole moment (field-independent basis, Debye-Ang):
   XX=             -9.4432   YY=            -14.0672   ZZ=            -11.8215
   XY=             -0.3232   XZ=              0.0000   YZ=              0.0000

  Exact polarizability:  12.832   0.280  17.695  -0.000   0.000   8.611
 Approx polarizability:  18.363   1.148  33.684  -0.000  -0.000  11.371

 ******    1 imaginary frequencies (negative Signs) ******

                      1                      2                      3
                     A'                     A'                     A'
 Frequencies --  -1158.0069              2098.4848              2686.5369
 Red. masses --      1.1647                12.1585                 1.0596
 Frc consts  --      0.9202                31.5459                 4.5059
 IR Inten    --     78.0827                 7.9655               121.1352

 - Thermochemistry -
 -------------------
 Temperature   298.150 Kelvin.  Pressure   1.00000 Atm.
 Atom     1 has atomic number  6 and mass  12.00000

 Molecular mass:    27.01090 amu.
 Principal axes and moments of inertia in atomic units:
                           1         2         3
     Eigenvalues --     4.33364  32.92840  37.26205
           X           -0.03763   0.99929   0.00000
           Y            0.99929   0.03763   0.00000
           Z            0.00000   0.00000   1.00000
 This molecule is an asymmetric top.
 Rotational symmetry number  1.
 Rotational temperatures (Kelvin)     19.98640     2.63037     2.32445
 Rotational constants (GHZ):         416.44893    54.80804    48.43377
    1 imaginary frequencies ignored.
 Zero-point vibrational energy      28620.8 (Joules/Mol)
                                    6.84053 (Kcal/Mol)
 Vibrational temperatures:   3019.25  3865.33
          (Kelvin)

 Zero-point correction=                           0.010901 (Hartree/Particle)
 Thermal correction to Energy=                    0.013734
 Thermal correction to Enthalpy=                  0.014678
 Thermal correction to Gibbs Free Energy=        -0.010097
 Sum of electronic and zero-point Energies=            -93.215284
 Sum of electronic and thermal Energies=               -93.212451
 Sum of electronic and thermal Enthalpies=             -93.211507
 Sum of electronic and thermal Free Energies=          -93.236283

                     E (Thermal)             CV                S
                      KCal/Mol        Cal/Mol-Kelvin    Cal/Mol-Kelvin
 Total                    8.618              5.971             52.144
 Electronic               0.000              0.000              0.000
 Translational            0.889              2.981             35.816
 Rotational               0.889              2.981             16.327
 Vibrational              6.841              0.009              0.001

 Optimization completed.
    -- Stationary point found.
 Normal termination of Gaussian 16 at Wed Oct  7 13:40:52 2020.
