 Gaussian 16, Revision A.03,
 Gaussian 16:  ES64L-G16RevA.03 25-Dec-2016

 ----------------------------------------------------------------------
 #P Opt(MaxCyc=100) PBE1PBE/6-31G* 5D 7F Integral=UltraFineGrid SCF=(No
 Symm,XQC,MaxCyc=120) IOp(1/33=1)
 ----------------------------------------------------------------------

 TstMul:  Mul=     1
 TstMul:  ICh=     0
 TstMul:  Mul=     1
 Symbolic Z-matrix:
 Charge =  0 Multiplicity = 1

 SCF Done:  E(RPBE1PBE) =  -76.3238010489     A.U. after    9 cycles
 SCF Done:  E(RPBE1PBE) =  -76.3239165547     A.U. after    7 cycles
 SCF Done:  E(RPBE1PBE) =  -76.3239189007     A.U. after    7 cycles
 Optimization completed.
    -- Stationary point found.

                         Standard orientation:
 ---------------------------------------------------------------------
 Center     Atomic      Atomic             Coordinates (Angstroms)
 Number     Number       Type             X           Y           Z
 ---------------------------------------------------------------------
      1          8           0        0.000000   -0.000000    0.118901
      2          1           0       -0.000000    0.759864   -0.475604
      3          1           0       -0.000000   -0.759864   -0.475604
 ---------------------------------------------------------------------

 The electronic state is 1-A1.
 Alpha  occ. eigenvalues --  -19.20220  -1.02446  -0.53165  -0.38515  -0.30391
 Alpha virt. eigenvalues --    0.08440   0.16808   0.79572   0.88996   0.91800
 Alpha virt. eigenvalues --    0.95686   1.09537   1.40167   1.73809   1.75393
 Alpha virt. eigenvalues --    1.78882   2.30836   2.60205

 Mulliken charges:
               1
     1  O   -0.827244
     2  H    0.413622
     3  H    0.413622
 Sum of Mulliken charges =   0.00000

 Dipole moment (field-independent basis, Debye):
    X=             -0.0000    Y=              0.0000    Z=             -2.1195  Tot=              2.1195
 Quadrupole moment (field-independent basis, Debye-Ang):
   XX=             -7.2136   YY=             -4.2083   ZZ=             -5.9558
   XY=              0.0000   XZ=              0.0000   YZ=              0.0000

 Normal termination of Gaussian 16 at Wed Oct  7 13:40:17 2020.
