 Gaussian 16, Revision A.03,

 ----------------------------------------------------------------------
 #P Opt(TS,MaxCyc=50,NoEigenTest,MaxStep=10,AddRedundant) PBE1PBE/6-31G
 * 5D 7F Integral=UltraFineGrid SCF=(NoSymm,XQC,MaxCyc=120) IOp(1/33=1)
 ----------------------------------------------------------------------

 TstMul:  Mul=     2
 TstMul:  ICh=     0
 TstMul:  Mul=     2
 Symbolic Z-matrix:
 Charge =  0 Multiplicity = 2

 SCF Done:  E(UPBE1PBE) =  -199.810968871     A.U. after   17 cycles
 SCF Done:  E(UPBE1PBE) =  -199.812729679     A.U. after   15 cycles
 SCF Done:  E(UPBE1PBE) =  -199.810386247     A.U. after   16 cycles
 SCF Done:  E(UPBE1PBE) =  -199.808822672     A.U. after   16 cycles
 SCF Done:  E(UPBE1PBE) =  -199.807874575     A.U. after   15 cycles
 SCF Done:  E(UPBE1PBE) =  -199.807367718     A.U. after   15 cycles
 SCF Done:  E(UPBE1PBE) =  -199.807146454     A.U. after   15 cycles
 SCF Done:  E(UPBE1PBE) =  -199.807095889     A.U. after   15 cycles
 SCF Done:  E(UPBE1PBE) =  -199.807089551     A.U. after   11 cycles
 SCF Done:  E(UPBE1PBE) =  -199.807089247     A.U. after    9 cycles
 Optimization completed.
    -- Stationary point found.
 Normal termination of Gaussian 16 at Wed Oct  7 13:42:21 2020.
 Gaussian 16:  ES64L-G16RevA.03 25-Dec-2016

 ----------------------------------------------------------------------
 #P Freq PBE1PBE/6-31G* 5D 7F Integral=UltraFineGrid SCF=(NoSymm,XQC,Ma
 xCyc=120) IOp(1/33=1) Geom=Check Guess=Read
 ----------------------------------------------------------------------

 TstMul:  Mul=     2
 TstMul:  ICh=     0
 TstMul:  Mul=     2
 Structure from the checkpoint file:  "MN_52_hf2ts_BH76_PBE0_631Gs.chk"
 Charge =  0 Multiplicity = 2

                         Standard orientation:
 ---------------------------------------------------------------------
 Center     Atomic      Atomic             Coordinates (Angstroms)
 Number     Number       Type             X           Y           Z
 ---------------------------------------------------------------------
      1          1           0        0.000000    0.000000   -2.466693
      2          9           0        0.000000    0.000000   -0.573851
      3          9           0        0.000000    0.000000    0.847928
 ---------------------------------------------------------------------

 SCF Done:  E(UPBE1PBE) =  -199.807089247     A.U. after    1 cycles

 The electronic state is 2-SG.
 Alpha  occ. eigenvalues --  -24.86605 -24.85835  -1.34985  -1.11734  -0.59923
 Alpha  occ. eigenvalues --   -0.52645  -0.52645  -0.39971  -0.39971  -0.34046
 Alpha virt. eigenvalues --   -0.10856   0.73230   1.09607   1.09607   1.15579
 Alpha virt. eigenvalues --    1.27549   1.27549   1.30103   1.32605   1.55880
 Alpha virt. eigenvalues --    1.55880   1.72111   1.72111   1.77117   1.95054

  Beta  occ. eigenvalues --  -24.86745 -24.85336  -1.34496  -1.11227  -0.58784
  Beta  occ. eigenvalues --   -0.52472  -0.52472  -0.39743  -0.39743
  Beta virt. eigenvalues --   -0.12520   0.00288   0.97146   1.09708   1.09708
  Beta virt. eigenvalues --    1.16827   1.27696   1.27696   1.30726   1.33616
  Beta virt. eigenvalues --    1.56068   1.56068   1.72160   1.72160   1.77601

 Mulliken charges and spin densities:
               1          2
     1  H    0.054236   0.926460
     2  F   -0.027994  -0.063790
     3  F   -0.026242   0.137330
 Sum of Mulliken charges =   0.00000   1.00000

 Dipole moment (field-independent basis, Debye):
    X=              0.0000    Y=             -0.0000    Z=             -0.6182  Tot=              0.6182
 Quadrupole moment (field-independent basis, Debye-Ang):
   XX=            -10.5365   YY=            -10.5365   ZZ=             -8.2627
   XY=              0.0000   XZ=              0.0000   YZ=              0.0000

  Exact polarizability:   2.817   0.000   2.817  -0.000  -0.000  24.453
 Approx polarizability:   3.320  -0.000   3.320  -0.000   0.000  34.422

 ******    1 imaginary frequencies (negative Signs) ******

                      1                      2                      3
                     SG                     PI                     PI
 Frequencies --   -478.3307               175.1592               175.1592
 Red. masses --      1.2132                 1.3655                 1.3655
 Frc consts  --      0.1635                 0.0247                 0.0247
 IR Inten    --    177.1931                 2.0874                 2.0874

                      4
                     SG
 Frequencies --    926.9426
 Red. masses --      5.0934
 Frc consts  --      2.5785
 IR Inten    --     48.5267

 - Thermochemistry -
 -------------------
 Temperature   298.150 Kelvin.  Pressure   1.00000 Atm.
 Atom     1 has atomic number  1 and mass   1.00783

 Molecular mass:    39.00463 amu.
 Principal axes and moments of inertia in atomic units:
                           1         2         3
     Eigenvalues --     0.00000  92.34101  92.34101
           X            0.00000   0.00000   1.00000
           Y            0.00000   1.00000   0.00000
           Z            1.00000   0.00000   0.00000
 This molecule is a prolate symmetric top.
 Rotational symmetry number  1.
 Rotational temperature (Kelvin)      0.93798
 Rotational constant (GHZ):          19.544308
    1 imaginary frequencies ignored.
 Zero-point vibrational energy       7639.7 (Joules/Mol)
                                    1.82594 (Kcal/Mol)
 Warning -- explicit consideration of   2 degrees of freedom as
           vibrations may cause significant error
 Vibrational temperatures:    252.02   252.02  1333.66
          (Kelvin)

 Zero-point correction=                           0.002910 (Hartree/Particle)
 Thermal correction to Energy=                    0.006520
 Thermal correction to Enthalpy=                  0.007465
 Thermal correction to Gibbs Free Energy=        -0.019433
 Sum of electronic and zero-point Energies=           -199.804179
 Sum of electronic and thermal Energies=              -199.800569
 Sum of electronic and thermal Enthalpies=            -199.799625
 Sum of electronic and thermal Free Energies=         -199.826522

                     E (Thermal)             CV                S
                      KCal/Mol        Cal/Mol-Kelvin    Cal/Mol-Kelvin
 Total                    4.092              9.178             56.610
 Electronic               0.000              0.000              1.377
 Translational            0.889              2.981             36.912
 Rotational               0.592              1.987             13.437
 Vibrational              2.610              4.210              4.884
 Vibration     1          0.627              1.873              2.379
 Vibration     2          0.627              1.873              2.379

 Optimization completed.
    -- Stationary point found.
 Normal termination of Gaussian 16 at Wed Oct  7 13:42:45 2020.
