 Gaussian 16, Revision A.03,

 ----------------------------------------------------------------------
 #P Opt(TS,MaxCyc=50,NoEigenTest,MaxStep=10,AddRedundant) PBE1PBE/6-31G
 * 5D 7F Integral=UltraFineGrid SCF=(NoSymm,XQC,MaxCyc=120) IOp(1/33=1)
 ----------------------------------------------------------------------

 TstMul:  Mul=     2
 TstMul:  ICh=     0
 TstMul:  Mul=     2
 Symbolic Z-matrix:
 Charge =  0 Multiplicity = 2

 SCF Done:  E(UPBE1PBE) =  -109.882921883     A.U. after   17 cycles
 SCF Done:  E(UPBE1PBE) =  -109.882896773     A.U. after   12 cycles
 SCF Done:  E(UPBE1PBE) =  -109.882832660     A.U. after   11 cycles
 SCF Done:  E(UPBE1PBE) =  -109.882202553     A.U. after   15 cycles
 SCF Done:  E(UPBE1PBE) =  -109.882251761     A.U. after   15 cycles
 SCF Done:  E(UPBE1PBE) =  -109.882275779     A.U. after   12 cycles
 SCF Done:  E(UPBE1PBE) =  -109.882278308     A.U. after   12 cycles
 Optimization completed.
    -- Stationary point found.
 Normal termination of Gaussian 16 at Wed Oct  7 13:42:13 2020.
 Gaussian 16:  ES64L-G16RevA.03 25-Dec-2016

 ----------------------------------------------------------------------
 #P Freq PBE1PBE/6-31G* 5D 7F Integral=UltraFineGrid SCF=(NoSymm,XQC,Ma
 xCyc=120) IOp(1/33=1) Geom=Check Guess=Read
 ----------------------------------------------------------------------

 TstMul:  Mul=     2
 TstMul:  ICh=     0
 TstMul:  Mul=     2
 Structure from the checkpoint file:  "MN_59_hn2ts_BH76_PBE0_631Gs.chk"
 Charge =  0 Multiplicity = 2

                         Standard orientation:
 ---------------------------------------------------------------------
 Center     Atomic      Atomic             Coordinates (Angstroms)
 Number     Number       Type             X           Y           Z
 ---------------------------------------------------------------------
      1          7           0        0.088727   -0.645832    0.000000
      2          7           0        0.088727    0.475616    0.000000
      3          1           0       -1.242179    1.191509    0.000000
 ---------------------------------------------------------------------

 SCF Done:  E(UPBE1PBE) =  -109.882278308     A.U. after    1 cycles

 The electronic state is 2-A'.
 Alpha  occ. eigenvalues --  -14.50918 -14.49486  -1.14332  -0.61013  -0.50555
 Alpha  occ. eigenvalues --   -0.47131  -0.45199  -0.25577
 Alpha virt. eigenvalues --   -0.02353   0.00571   0.41895   0.60222   0.62845
 Alpha virt. eigenvalues --    0.63660   0.66529   0.76862   0.79095   0.81259
 Alpha virt. eigenvalues --    0.94980   1.30966   1.45512   1.47745   1.54034

  Beta  occ. eigenvalues --  -14.50881 -14.48704  -1.13592  -0.58587  -0.47514
  Beta  occ. eigenvalues --   -0.46707  -0.43438
  Beta virt. eigenvalues --   -0.07511  -0.01698   0.05652   0.42600   0.61241
  Beta virt. eigenvalues --    0.63086   0.66603   0.72262   0.77347   0.80728
  Beta virt. eigenvalues --    0.84854   0.97840   1.31980   1.46324   1.49065

 Mulliken charges and spin densities:
               1          2
     1  N    0.005920   0.331504
     2  N   -0.088188  -0.067239
     3  H    0.082268   0.735735
 Sum of Mulliken charges =  -0.00000   1.00000

 Dipole moment (field-independent basis, Debye):
    X=             -0.3163    Y=              0.3002    Z=              0.0000  Tot=              0.4360
 Quadrupole moment (field-independent basis, Debye-Ang):
   XX=            -11.4147   YY=            -12.6842   ZZ=            -11.2733
   XY=             -0.2102   XZ=              0.0000   YZ=              0.0000

  Exact polarizability:  15.508  -7.241  19.742   0.000  -0.000   6.063
 Approx polarizability:  18.946  -9.190  34.711   0.000   0.000   8.127

 ******    1 imaginary frequencies (negative Signs) ******

                      1                      2                      3
                     A'                     A'                     A'
 Frequencies --  -1251.4193               695.0844              2266.1519
 Red. masses --      1.1005                 1.3603                 9.4909
 Frc consts  --      1.0154                 0.3872                28.7169
 IR Inten    --    348.8564                 3.5270                78.1238

 - Thermochemistry -
 -------------------
 Temperature   298.150 Kelvin.  Pressure   1.00000 Atm.
 Atom     1 has atomic number  7 and mass  14.00307

 Molecular mass:    29.01397 amu.
 Principal axes and moments of inertia in atomic units:
                           1         2         3
     Eigenvalues --     5.06616  38.19397  43.26013
           X           -0.18117   0.98345   0.00000
           Y            0.98345   0.18117   0.00000
           Z            0.00000   0.00000   1.00000
 This molecule is an asymmetric top.
 Rotational symmetry number  1.
 Rotational temperatures (Kelvin)     17.09655     2.26774     2.00217
 Rotational constants (GHZ):         356.23438    47.25200    41.71835
    1 imaginary frequencies ignored.
 Zero-point vibrational energy      17712.1 (Joules/Mol)
                                    4.23330 (Kcal/Mol)
 Vibrational temperatures:   1000.07  3260.49
          (Kelvin)

 Zero-point correction=                           0.006746 (Hartree/Particle)
 Thermal correction to Energy=                    0.009694
 Thermal correction to Enthalpy=                  0.010638
 Thermal correction to Gibbs Free Energy=        -0.015256
 Sum of electronic and zero-point Energies=           -109.875532
 Sum of electronic and thermal Energies=              -109.872585
 Sum of electronic and thermal Enthalpies=            -109.871641
 Sum of electronic and thermal Free Energies=         -109.897534

                     E (Thermal)             CV                S
                      KCal/Mol        Cal/Mol-Kelvin    Cal/Mol-Kelvin
 Total                    6.083              6.805             54.497
 Electronic               0.000              0.000              1.377
 Translational            0.889              2.981             36.030
 Rotational               0.889              2.981             16.778
 Vibrational              4.305              0.843              0.312

 Optimization completed.
    -- Stationary point found.
 Normal termination of Gaussian 16 at Wed Oct  7 13:42:36 2020.
