 Gaussian 16, Revision A.03,

 ----------------------------------------------------------------------
 #P Opt(TS,MaxCyc=150,NoEigenTest,MaxStep=10,AddRedundant) PBE1PBE/6-31
 G* 5D 7F Integral=UltraFineGrid SCF=(NoSymm,XQC,MaxCyc=120) IOp(1/33=1
 )
 ----------------------------------------------------------------------

 TstMul:  Mul=     2
 TstMul:  ICh=     0
 TstMul:  Mul=     2
 Symbolic Z-matrix:
 Charge =  0 Multiplicity = 2

 SCF Done:  E(UPBE1PBE) =  -113.678209181     A.U. after   16 cycles
 SCF Done:  E(UPBE1PBE) =  -113.678337949     A.U. after   11 cycles
 SCF Done:  E(UPBE1PBE) =  -113.678241929     A.U. after   11 cycles
 SCF Done:  E(UPBE1PBE) =  -113.677830484     A.U. after   14 cycles
 SCF Done:  E(UPBE1PBE) =  -113.677565255     A.U. after   14 cycles
 SCF Done:  E(UPBE1PBE) =  -113.677406877     A.U. after   14 cycles
 SCF Done:  E(UPBE1PBE) =  -113.677351820     A.U. after   13 cycles
 SCF Done:  E(UPBE1PBE) =  -113.677347916     A.U. after   10 cycles
 SCF Done:  E(UPBE1PBE) =  -113.677347983     A.U. after    9 cycles
 Optimization completed.
    -- Stationary point found.
 Normal termination of Gaussian 16 at Wed Oct  7 13:41:50 2020.
 Gaussian 16:  ES64L-G16RevA.03 25-Dec-2016

 ----------------------------------------------------------------------
 #P Freq PBE1PBE/6-31G* 5D 7F Integral=UltraFineGrid SCF=(NoSymm,XQC,Ma
 xCyc=120) IOp(1/33=1) Geom=Check Guess=Read
 ----------------------------------------------------------------------

 TstMul:  Mul=     2
 TstMul:  ICh=     0
 TstMul:  Mul=     2
 Structure from the checkpoint file:  "MN_51_hcots_BH76_PBE0_631Gs.chk"
 Charge =  0 Multiplicity = 2

                         Standard orientation:
 ---------------------------------------------------------------------
 Center     Atomic      Atomic             Coordinates (Angstroms)
 Number     Number       Type             X           Y           Z
 ---------------------------------------------------------------------
      1          6           0        0.123672    0.546193    0.000000
      2          8           0        0.123672   -0.591721    0.000000
      3          1           0       -1.731413    1.456611   -0.000000
 ---------------------------------------------------------------------

 SCF Done:  E(UPBE1PBE) =  -113.677347983     A.U. after    1 cycles

 The electronic state is 2-A'.
 Alpha  occ. eigenvalues --  -19.32597 -10.35212  -1.18615  -0.58917  -0.48860
 Alpha  occ. eigenvalues --   -0.48107  -0.41473  -0.29640
 Alpha virt. eigenvalues --   -0.01495   0.00427   0.26926   0.52922   0.54842
 Alpha virt. eigenvalues --    0.66653   0.75120   0.78369   0.85793   0.94281
 Alpha virt. eigenvalues --    0.96277   1.48338   1.49010   1.52350   1.54784

  Beta  occ. eigenvalues --  -19.32441 -10.35053  -1.18346  -0.58568  -0.47969
  Beta  occ. eigenvalues --   -0.47853  -0.38830
  Beta virt. eigenvalues --   -0.07385  -0.01167   0.04575   0.27150   0.53128
  Beta virt. eigenvalues --    0.55925   0.67735   0.76805   0.85774   0.92578
  Beta virt. eigenvalues --    0.94374   0.98985   1.48547   1.49327   1.52653

 Mulliken charges and spin densities:
               1          2
     1  C    0.161543   0.040299
     2  O   -0.168273   0.046854
     3  H    0.006731   0.912847
 Sum of Mulliken charges =  -0.00000   1.00000

 Dipole moment (field-independent basis, Debye):
    X=             -0.0269    Y=              0.0084    Z=              0.0000  Tot=              0.0282
 Quadrupole moment (field-independent basis, Debye-Ang):
   XX=            -11.2663   YY=            -13.0771   ZZ=            -11.1476
   XY=             -0.0419   XZ=             -0.0000   YZ=             -0.0000

  Exact polarizability:  15.652  -4.172  15.222  -0.000   0.000   7.959
 Approx polarizability:  18.375  -4.110  24.655  -0.000   0.000  10.524

 ******    1 imaginary frequencies (negative Signs) ******

                      1                      2                      3
                     A'                     A'                     A'
 Frequencies --   -500.3555               284.2499              2207.9580
 Red. masses --      1.0852                 1.5327                13.2981
 Frc consts  --      0.1601                 0.0730                38.1962
 IR Inten    --      2.8239                 0.9357               117.8627

 - Thermochemistry -
 -------------------
 Temperature   298.150 Kelvin.  Pressure   1.00000 Atm.
 Atom     1 has atomic number  6 and mass  12.00000

 Molecular mass:    29.00274 amu.
 Principal axes and moments of inertia in atomic units:
                           1         2         3
     Eigenvalues --     8.73664  43.38179  52.11843
           X           -0.30479   0.95242   0.00000
           Y            0.95242   0.30479   0.00000
           Z           -0.00000   0.00000   1.00000
 This molecule is an asymmetric top.
 Rotational symmetry number  1.
 Rotational temperatures (Kelvin)      9.91387     1.99655     1.66187
 Rotational constants (GHZ):         206.57155    41.60135    34.62770
    1 imaginary frequencies ignored.
 Zero-point vibrational energy      14906.7 (Joules/Mol)
                                    3.56279 (Kcal/Mol)
 Warning -- explicit consideration of   1 degrees of freedom as
           vibrations may cause significant error
 Vibrational temperatures:    408.97  3176.76
          (Kelvin)

 Zero-point correction=                           0.005678 (Hartree/Particle)
 Thermal correction to Energy=                    0.008951
 Thermal correction to Enthalpy=                  0.009895
 Thermal correction to Gibbs Free Energy=        -0.016972
 Sum of electronic and zero-point Energies=           -113.671670
 Sum of electronic and thermal Energies=              -113.668397
 Sum of electronic and thermal Enthalpies=            -113.667453
 Sum of electronic and thermal Free Energies=         -113.694319

                     E (Thermal)             CV                S
                      KCal/Mol        Cal/Mol-Kelvin    Cal/Mol-Kelvin
 Total                    5.617              7.670             56.545
 Electronic               0.000              0.000              1.377
 Translational            0.889              2.981             36.028
 Rotational               0.889              2.981             17.631
 Vibrational              3.839              1.708              1.509
 Vibration     1          0.683              1.703              1.508

                           ! Non-Optimized Parameters !
 Normal termination of Gaussian 16 at Wed Oct  7 13:42:12 2020.
