 Gaussian 16, Revision A.03,

 ----------------------------------------------------------------------
 #P Opt(TS,MaxCyc=50,NoEigenTest,MaxStep=10,AddRedundant) PBE1PBE/6-31G
 * 5D 7F Integral=UltraFineGrid SCF=(NoSymm,XQC,MaxCyc=120) IOp(1/33=1)
 ----------------------------------------------------------------------

 TstMul:  Mul=     2
 TstMul:  ICh=     0
 TstMul:  Mul=     2
 Symbolic Z-matrix:
 Charge =  0 Multiplicity = 2

 SCF Done:  E(UPBE1PBE) =  -100.765256827     A.U. after   10 cycles
 SCF Done:  E(UPBE1PBE) =  -100.766376238     A.U. after    9 cycles
 SCF Done:  E(UPBE1PBE) =  -100.766606289     A.U. after    9 cycles
 SCF Done:  E(UPBE1PBE) =  -100.766610019     A.U. after    7 cycles
 Optimization completed.
    -- Stationary point found.
 Normal termination of Gaussian 16 at Wed Oct  7 13:41:15 2020.
 Gaussian 16:  ES64L-G16RevA.03 25-Dec-2016

 ----------------------------------------------------------------------
 #P Freq PBE1PBE/6-31G* 5D 7F Integral=UltraFineGrid SCF=(NoSymm,XQC,Ma
 xCyc=120) IOp(1/33=1) Geom=Check Guess=Read
 ----------------------------------------------------------------------

 TstMul:  Mul=     2
 TstMul:  ICh=     0
 TstMul:  Mul=     2
 Structure from the checkpoint file:  "MN_54_hfhts_BH76_PBE0_631Gs.chk"
 Charge =  0 Multiplicity = 2

                         Standard orientation:
 ---------------------------------------------------------------------
 Center     Atomic      Atomic             Coordinates (Angstroms)
 Number     Number       Type             X           Y           Z
 ---------------------------------------------------------------------
      1          1           0        0.000000    0.000000    1.181873
      2          9           0        0.000000    0.000000    0.000000
      3          1           0        0.000000    0.000000   -1.181873
 ---------------------------------------------------------------------

 SCF Done:  E(UPBE1PBE) =  -100.766610019     A.U. after    1 cycles

 The electronic state is 2-SGG.
 Alpha  occ. eigenvalues --  -24.78859  -1.20456  -0.59933  -0.42340  -0.42340
 Alpha  occ. eigenvalues --   -0.20001
 Alpha virt. eigenvalues --    0.02027   0.60837   0.76892   1.17429   1.17429
 Alpha virt. eigenvalues --    1.61199   1.69544   1.78392   1.78392   1.85908
 Alpha virt. eigenvalues --    1.85908   2.34717
  Beta  occ. eigenvalues --  -24.78711  -1.19912  -0.57405  -0.41949  -0.41949
  Beta virt. eigenvalues --   -0.02749   0.09734   0.69118   0.85797   1.18019
  Beta virt. eigenvalues --    1.18019   1.62119   1.71928   1.77995   1.77995
  Beta virt. eigenvalues --    1.86034   1.86034   2.37589

 Mulliken charges and spin densities:
               1          2
     1  H    0.197979   0.567202
     2  F   -0.395957  -0.134403
     3  H    0.197979   0.567202
 Sum of Mulliken charges =  -0.00000   1.00000

 Dipole moment (field-independent basis, Debye):
    X=              0.0000    Y=              0.0000    Z=             -0.0000  Tot=              0.0000
 Quadrupole moment (field-independent basis, Debye-Ang):
   XX=             -6.9950   YY=             -6.9950   ZZ=             -4.7477
   XY=              0.0000   XZ=             -0.0000   YZ=              0.0000

  Exact polarizability:   1.948   0.000   1.948  -0.000  -0.000  37.837
 Approx polarizability:   2.203   0.000   2.203  -0.000  -0.000  49.018

 ******    1 imaginary frequencies (negative Signs) ******

                      1                      2                      3
                     SGU                    PIU                    PIU
 Frequencies --  -2513.1936               320.2457               320.2457
 Red. masses --      1.1085                 1.1085                 1.1085
 Frc consts  --      4.1252                 0.0670                 0.0670
 IR Inten    --   5490.2850                47.1628                47.1628

                      4
                     SGG
 Frequencies --   2138.7370
 Red. masses --      1.0078
 Frc consts  --      2.7161
 IR Inten    --      0.0000

 - Thermochemistry -
 -------------------
 Temperature   298.150 Kelvin.  Pressure   1.00000 Atm.
 Atom     1 has atomic number  1 and mass   1.00783

 Molecular mass:    21.01405 amu.
 Principal axes and moments of inertia in atomic units:
                           1         2         3
     Eigenvalues --     0.00000  10.05435  10.05435
           X           -0.00000   1.00000   0.00000
           Y            0.00000   0.00000   1.00000
           Z            1.00000   0.00000   0.00000
 This molecule is a prolate symmetric top.
 Rotational symmetry number  2.
 Rotational temperature (Kelvin)      8.61457
 Rotational constant (GHZ):         179.498487
    1 imaginary frequencies ignored.
 Zero-point vibrational energy      16623.5 (Joules/Mol)
                                    3.97311 (Kcal/Mol)
 Warning -- explicit consideration of   2 degrees of freedom as
           vibrations may cause significant error
 Vibrational temperatures:    460.76   460.76  3077.17
          (Kelvin)

 Zero-point correction=                           0.006332 (Hartree/Particle)
 Thermal correction to Energy=                    0.009483
 Thermal correction to Enthalpy=                  0.010427
 Thermal correction to Gibbs Free Energy=        -0.011769
 Sum of electronic and zero-point Energies=           -100.760278
 Sum of electronic and thermal Energies=              -100.757127
 Sum of electronic and thermal Enthalpies=            -100.756183
 Sum of electronic and thermal Free Energies=         -100.778379

                     E (Thermal)             CV                S
                      KCal/Mol        Cal/Mol-Kelvin    Cal/Mol-Kelvin
 Total                    5.951              8.245             46.717
 Electronic               0.000              0.000              1.377
 Translational            0.889              2.981             35.068
 Rotational               0.592              1.987              7.653
 Vibrational              4.470              3.277              2.618
 Vibration     1          0.706              1.635              1.309
 Vibration     2          0.706              1.635              1.309

 Optimization completed.
    -- Stationary point found.
 Normal termination of Gaussian 16 at Wed Oct  7 13:41:42 2020.
