 Gaussian 16, Revision A.03,

 ----------------------------------------------------------------------
 #P Opt(TS,MaxCyc=50,NoEigenTest,MaxStep=10,AddRedundant) PBE1PBE/6-31G
 * 5D 7F Integral=UltraFineGrid SCF=(NoSymm,XQC,MaxCyc=120) IOp(1/33=1)
 ----------------------------------------------------------------------

 TstMul:  Mul=     2
 TstMul:  ICh=     0
 TstMul:  Mul=     2
 Symbolic Z-matrix:
 Charge =  0 Multiplicity = 2

 SCF Done:  E(UPBE1PBE) =  -140.032722774     A.U. after   15 cycles
 SCF Done:  E(UPBE1PBE) =  -140.032950174     A.U. after   13 cycles
 SCF Done:  E(UPBE1PBE) =  -140.032966189     A.U. after   12 cycles
 SCF Done:  E(UPBE1PBE) =  -140.033002916     A.U. after   10 cycles
 SCF Done:  E(UPBE1PBE) =  -140.032963897     A.U. after   10 cycles
 SCF Done:  E(UPBE1PBE) =  -140.032965436     A.U. after    9 cycles
 Optimization completed.
    -- Stationary point found.
 Normal termination of Gaussian 16 at Wed Oct  7 13:41:31 2020.
 Gaussian 16:  ES64L-G16RevA.03 25-Dec-2016

 ----------------------------------------------------------------------
 #P Freq PBE1PBE/6-31G* 5D 7F Integral=UltraFineGrid SCF=(NoSymm,XQC,Ma
 xCyc=120) IOp(1/33=1) Geom=Check Guess=Read
 ----------------------------------------------------------------------

 TstMul:  Mul=     2
 TstMul:  ICh=     0
 TstMul:  Mul=     2
 Structure from the checkpoint file:  "MN_53_hfch3ts_BH76_PBE0_631Gs.chk"
 Charge =  0 Multiplicity = 2

                         Standard orientation:
 ---------------------------------------------------------------------
 Center     Atomic      Atomic             Coordinates (Angstroms)
 Number     Number       Type             X           Y           Z
 ---------------------------------------------------------------------
      1          1           0        0.001128    2.024218    0.000000
      2          9           0       -0.000038    0.771496    0.000000
      3          6           0       -0.000038   -0.913395   -0.000000
      4          1           0        1.055950   -1.163287   -0.000000
      5          1           0       -0.528253   -1.162012    0.914695
      6          1           0       -0.528253   -1.162012   -0.914695
 ---------------------------------------------------------------------

 SCF Done:  E(UPBE1PBE) =  -140.032965436     A.U. after    1 cycles

 The electronic state is 2-A'.
 Alpha  occ. eigenvalues --  -24.75327 -10.27168  -1.16179  -0.72727  -0.50767
 Alpha  occ. eigenvalues --   -0.45767  -0.45764  -0.36975  -0.36973  -0.18290
 Alpha virt. eigenvalues --    0.03478   0.12522   0.18055   0.18056   0.50914
 Alpha virt. eigenvalues --    0.56476   0.56477   0.71220   0.85418   0.90249
 Alpha virt. eigenvalues --    0.90254   1.02591   1.23673   1.23686   1.54679

  Beta  occ. eigenvalues --  -24.75291 -10.26211  -1.15941  -0.70474  -0.48937
  Beta  occ. eigenvalues --   -0.45131  -0.45128  -0.36728  -0.36727
  Beta virt. eigenvalues --   -0.02325   0.09927   0.13211   0.18589   0.18590
  Beta virt. eigenvalues --    0.55063   0.56952   0.56953   0.80189   0.86848
  Beta virt. eigenvalues --    0.90926   0.90931   1.04189   1.24336   1.24349

 Mulliken charges and spin densities:
               1          2
     1  H    0.117453   0.650962
     2  F   -0.350269  -0.131518
     3  C   -0.353005   0.552456
     4  H    0.195245  -0.023966
     5  H    0.195288  -0.023967
     6  H    0.195288  -0.023967
 Sum of Mulliken charges =  -0.00000   1.00000

 Dipole moment (field-independent basis, Debye):
    X=              0.0002    Y=             -1.3513    Z=             -0.0000  Tot=              1.3513
 Quadrupole moment (field-independent basis, Debye-Ang):
   XX=            -12.7770   YY=            -11.9498   ZZ=            -12.7765
   XY=              0.0000   XZ=              0.0000   YZ=              0.0000

  Exact polarizability:  12.903   0.012  52.787   0.000   0.000  12.904
 Approx polarizability:  14.984   0.014  66.243  -0.000  -0.000  14.985

 ******    1 imaginary frequencies (negative Signs) ******

                      1                      2                      3
                     A'                     A"                     A'
 Frequencies --  -1593.8359               302.5634               302.5910
 Red. masses --      1.7989                 1.1488                 1.1487
 Frc consts  --      2.6924                 0.0620                 0.0620
 IR Inten    --   2508.8440                 9.9533                 9.9609

                      4                      5                      6
                     A'                     A"                     A'
 Frequencies --    810.0177               810.2665               962.8983
 Red. masses --      1.1423                 1.1422                 1.5953
 Frc consts  --      0.4416                 0.4418                 0.8715
 IR Inten    --      0.4371                 0.4394               207.0299

                      7                      8                      9
                     A'                     A'                     A"
 Frequencies --   1203.4721              1473.5575              1473.6690
 Red. masses --      1.2897                 1.0852                 1.0852
 Frc consts  --      1.1006                 1.3884                 1.3886
 IR Inten    --     53.7880                 3.7257                 3.7298

                     10                     11                     12
                     A'                     A'                     A"
 Frequencies --   3147.2958              3300.2465              3300.4374
 Red. masses --      1.0170                 1.1151                 1.1151
 Frc consts  --      5.9352                 7.1557                 7.1566
 IR Inten    --      0.9008                 9.7337                 9.7146

 - Thermochemistry -
 -------------------
 Temperature   298.150 Kelvin.  Pressure   1.00000 Atm.
 Atom     1 has atomic number  1 and mass   1.00783

 Molecular mass:    35.02970 amu.
 Principal axes and moments of inertia in atomic units:
                           1         2         3
     Eigenvalues --    12.04396 110.98778 110.98850
           X            0.00005   0.00000   1.00000
           Y            1.00000   0.00000  -0.00005
           Z           -0.00000   1.00000   0.00000
 This molecule is an asymmetric top.
 Rotational symmetry number  1.
 Rotational temperatures (Kelvin)      7.19148     0.78039     0.78039
 Rotational constants (GHZ):         149.84616    16.26072    16.26061
    1 imaginary frequencies ignored.
 Zero-point vibrational energy     102203.0 (Joules/Mol)
                                   24.42711 (Kcal/Mol)
 Warning -- explicit consideration of   2 degrees of freedom as
           vibrations may cause significant error
 Vibrational temperatures:    435.32   435.36  1165.43  1165.79  1385.40
          (Kelvin)           1731.53  2120.12  2120.28  4528.26  4748.32
                             4748.59

 Zero-point correction=                           0.038927 (Hartree/Particle)
 Thermal correction to Energy=                    0.042815
 Thermal correction to Enthalpy=                  0.043759
 Thermal correction to Gibbs Free Energy=         0.014784
 Sum of electronic and zero-point Energies=           -139.994038
 Sum of electronic and thermal Energies=              -139.990151
 Sum of electronic and thermal Enthalpies=            -139.989207
 Sum of electronic and thermal Free Energies=         -140.018181

                     E (Thermal)             CV                S
                      KCal/Mol        Cal/Mol-Kelvin    Cal/Mol-Kelvin
 Total                   26.867             11.354             60.982
 Electronic               0.000              0.000              1.377
 Translational            0.889              2.981             36.591
 Rotational               0.889              2.981             19.634
 Vibrational             25.089              5.393              3.379
 Vibration     1          0.694              1.669              1.403
 Vibration     2          0.694              1.669              1.403

 Optimization completed.
    -- Stationary point found.
 Normal termination of Gaussian 16 at Wed Oct  7 13:41:57 2020.
