 Gaussian 16, Revision A.03,
 Gaussian 16:  ES64L-G16RevA.03 25-Dec-2016

 ----------------------------------------------------------------------
 #P Opt(MaxCyc=100) PBE1PBE/6-31G* 5D 7F Integral=UltraFineGrid SCF=(No
 Symm,XQC,MaxCyc=120) IOp(1/33=1)
 ----------------------------------------------------------------------

 TstMul:  Mul=     1
 TstMul:  ICh=     0
 TstMul:  Mul=     1
 Symbolic Z-matrix:
 Charge =  0 Multiplicity = 1

 SCF Done:  E(RPBE1PBE) =  -100.323035260     A.U. after    9 cycles
 SCF Done:  E(RPBE1PBE) =  -100.323274559     A.U. after    7 cycles
 SCF Done:  E(RPBE1PBE) =  -100.323275491     A.U. after    6 cycles
 Optimization completed.
    -- Stationary point found.

                         Standard orientation:
 ---------------------------------------------------------------------
 Center     Atomic      Atomic             Coordinates (Angstroms)
 Number     Number       Type             X           Y           Z
 ---------------------------------------------------------------------
      1          9           0        0.000000    0.000000    0.093023
      2          1           0        0.000000    0.000000   -0.837206
 ---------------------------------------------------------------------

 The electronic state is 1-SG.
 Alpha  occ. eigenvalues --  -24.74001  -1.19829  -0.53479  -0.39185  -0.39185
 Alpha virt. eigenvalues --    0.08522   0.83346   1.20870   1.20870   1.28859
 Alpha virt. eigenvalues --    1.67185   1.81288   1.81288   1.88267   1.88267
 Alpha virt. eigenvalues --    2.63745

 Mulliken charges:
               1
     1  F   -0.498966
     2  H    0.498966
 Sum of Mulliken charges =  -0.00000

 Dipole moment (field-independent basis, Debye):
    X=              0.0000    Y=             -0.0000    Z=             -1.8810  Tot=              1.8810
 Quadrupole moment (field-independent basis, Debye-Ang):
   XX=             -5.4060   YY=             -5.4060   ZZ=             -3.3604
   XY=              0.0000   XZ=              0.0000   YZ=              0.0000

 Normal termination of Gaussian 16 at Wed Oct  7 13:41:00 2020.
