 Gaussian 16, Revision A.03,
 Gaussian 16:  ES64L-G16RevA.03 25-Dec-2016

 ----------------------------------------------------------------------
 #P Opt(MaxCyc=100) PBE1PBE/6-31G* 5D 7F Integral=UltraFineGrid SCF=(No
 Symm,XQC,MaxCyc=120) IOp(1/33=1)
 ----------------------------------------------------------------------

 TstMul:  Mul=     1
 TstMul:  ICh=    -1
 TstMul:  Mul=     1
 Symbolic Z-matrix:
 Charge = -1 Multiplicity = 1

 SCF Done:  E(RPBE1PBE) =  -215.325893663     A.U. after   12 cycles
 SCF Done:  E(RPBE1PBE) =  -215.326377961     A.U. after   11 cycles
 SCF Done:  E(RPBE1PBE) =  -215.328196942     A.U. after   11 cycles
 SCF Done:  E(RPBE1PBE) =  -215.329292823     A.U. after   11 cycles
 SCF Done:  E(RPBE1PBE) =  -215.329377557     A.U. after   12 cycles
 SCF Done:  E(RPBE1PBE) =  -215.331599733     A.U. after   11 cycles
 SCF Done:  E(RPBE1PBE) =  -215.331822548     A.U. after   11 cycles
 SCF Done:  E(RPBE1PBE) =  -215.331866335     A.U. after    9 cycles
 SCF Done:  E(RPBE1PBE) =  -215.331872127     A.U. after    8 cycles
 SCF Done:  E(RPBE1PBE) =  -215.331873591     A.U. after    8 cycles
 Optimization completed.
    -- Stationary point found.

                         Standard orientation:
 ---------------------------------------------------------------------
 Center     Atomic      Atomic             Coordinates (Angstroms)
 Number     Number       Type             X           Y           Z
 ---------------------------------------------------------------------
      1          6           0       -1.247591   -0.375091   -0.000041
      2          8           0       -0.477353    0.737665    0.000052
      3          1           0       -2.342082   -0.140751   -0.010164
      4          1           0       -1.100571   -1.060587   -0.878703
      5          1           0       -1.115378   -1.051208    0.888449
      6          1           0        0.682159    0.300397    0.000443
      7          9           0        1.686693   -0.188736   -0.000022
 ---------------------------------------------------------------------

 The electronic state is 1-A.
 Alpha  occ. eigenvalues --  -24.39039 -18.91313 -10.04969  -0.83193  -0.74504
 Alpha  occ. eigenvalues --   -0.44882  -0.25680  -0.21744  -0.19605  -0.13697
 Alpha  occ. eigenvalues --   -0.06302  -0.06249  -0.01111  -0.00274
 Alpha virt. eigenvalues --    0.31343   0.37298   0.38363   0.42137   0.56277
 Alpha virt. eigenvalues --    0.80623   0.80737   0.83717   0.96600   1.05980
 Alpha virt. eigenvalues --    1.07077   1.13110   1.25232   1.25312   1.26443

 Mulliken charges:
               1
     1  C   -0.149376
     2  O   -0.754364
     3  H    0.039537
     4  H    0.044012
     5  H    0.043137
     6  H    0.496277
     7  F   -0.719223
 Sum of Mulliken charges =  -1.00000

 Dipole moment (field-independent basis, Debye):
    X=             -1.9846    Y=             -1.0167    Z=             -0.0023  Tot=              2.2299
 Quadrupole moment (field-independent basis, Debye-Ang):
   XX=            -30.1451   YY=            -22.7251   ZZ=            -20.6063
   XY=              1.8980   XZ=              0.0046   YZ=              0.0038

 Normal termination of Gaussian 16 at Wed Oct  7 13:43:14 2020.
