 Gaussian 16, Revision A.03,
 Gaussian 16:  ES64L-G16RevA.03 25-Dec-2016

 ----------------------------------------------------------------------
 #P Opt(MaxCyc=100) PBE1PBE/6-31G* 5D 7F Integral=UltraFineGrid SCF=(No
 Symm,XQC,MaxCyc=120) IOp(1/33=1)
 ----------------------------------------------------------------------

 TstMul:  Mul=     1
 TstMul:  ICh=     0
 TstMul:  Mul=     1
 Symbolic Z-matrix:
 Charge =  0 Multiplicity = 1

 SCF Done:  E(RPBE1PBE) =  -109.397810597     A.U. after    8 cycles
 SCF Done:  E(RPBE1PBE) =  -109.397894253     A.U. after    6 cycles
 SCF Done:  E(RPBE1PBE) =  -109.397894575     A.U. after    5 cycles
 Optimization completed.
    -- Stationary point found.

                         Standard orientation:
 ---------------------------------------------------------------------
 Center     Atomic      Atomic             Coordinates (Angstroms)
 Number     Number       Type             X           Y           Z
 ---------------------------------------------------------------------
      1          7           0        0.000000    0.000000    0.551206
      2          7           0        0.000000    0.000000   -0.551206
 ---------------------------------------------------------------------

 The electronic state is 1-SGG.
 Alpha  occ. eigenvalues --  -14.50095 -14.49937  -1.15123  -0.56842  -0.47549
 Alpha  occ. eigenvalues --   -0.47549  -0.43734
 Alpha virt. eigenvalues --   -0.01005  -0.01005   0.43170   0.61595   0.62907
 Alpha virt. eigenvalues --    0.62907   0.74257   0.77853   0.77853   0.84175
 Alpha virt. eigenvalues --    1.30531   1.45457   1.45457   1.56033   1.56033

 Mulliken charges:
               1
     1  N    0.000000
     2  N    0.000000
 Sum of Mulliken charges =   0.00000

 Dipole moment (field-independent basis, Debye):
    X=              0.0000    Y=              0.0000    Z=              0.0000  Tot=              0.0000
 Quadrupole moment (field-independent basis, Debye-Ang):
   XX=            -10.0274   YY=            -10.0274   ZZ=            -11.5835
   XY=             -0.0000   XZ=              0.0000   YZ=             -0.0000

 Normal termination of Gaussian 16 at Wed Oct  7 13:41:33 2020.
