 Gaussian 16, Revision A.03,
 Gaussian 16:  ES64L-G16RevA.03 25-Dec-2016

 ----------------------------------------------------------------------
 #P Opt(MaxCyc=100) PBE1PBE/6-31G* 5D 7F Integral=UltraFineGrid SCF=(No
 Symm,XQC,MaxCyc=120) IOp(1/33=1)
 ----------------------------------------------------------------------

 TstMul:  Mul=     1
 TstMul:  ICh=     0
 TstMul:  Mul=     1
 Symbolic Z-matrix:
 Charge =  0 Multiplicity = 1

 SCF Done:  E(RPBE1PBE) =  -93.2792982396     A.U. after   11 cycles
 SCF Done:  E(RPBE1PBE) =  -93.2793722880     A.U. after    8 cycles
 Optimization completed.
    -- Stationary point found.

                         Standard orientation:
 ---------------------------------------------------------------------
 Center     Atomic      Atomic             Coordinates (Angstroms)
 Number     Number       Type             X           Y           Z
 ---------------------------------------------------------------------
      1          6           0        0.000000    0.000000   -0.742506
      2          7           0        0.000000    0.000000    0.431997
      3          1           0        0.000000    0.000000    1.431058
 ---------------------------------------------------------------------

 The electronic state is 1-SG.
 Alpha  occ. eigenvalues --  -14.43302 -10.28055  -0.96824  -0.68081  -0.38404
 Alpha  occ. eigenvalues --   -0.38404  -0.32305
 Alpha virt. eigenvalues --    0.03654   0.03654   0.08309   0.36162   0.52708
 Alpha virt. eigenvalues --    0.57398   0.57398   0.66626   0.75382   0.75382
 Alpha virt. eigenvalues --    0.95239   1.20753   1.44906   1.51567   1.51567

 Mulliken charges:
               1
     1  C    0.054708
     2  N   -0.443125
     3  H    0.388417
 Sum of Mulliken charges =   0.00000

 Dipole moment (field-independent basis, Debye):
    X=              0.0000    Y=             -0.0000    Z=              2.9619  Tot=              2.9619
 Quadrupole moment (field-independent basis, Debye-Ang):
   XX=            -11.5516   YY=            -11.5516   ZZ=             -9.8350
   XY=              0.0000   XZ=              0.0000   YZ=              0.0000

 Normal termination of Gaussian 16 at Wed Oct  7 13:41:08 2020.
