 Gaussian 16, Revision A.03,
 Gaussian 16:  ES64L-G16RevA.03 25-Dec-2016

 ----------------------------------------------------------------------
 #P Opt(MaxCyc=100) PBE1PBE/6-31G* 5D 7F Integral=UltraFineGrid SCF=(No
 Symm,XQC,MaxCyc=120) IOp(1/33=1)
 ----------------------------------------------------------------------

 TstMul:  Mul=     1
 TstMul:  ICh=    -1
 TstMul:  Mul=     1
 Symbolic Z-matrix:
 Charge = -1 Multiplicity = 1

 SCF Done:  E(RPBE1PBE) =  -215.247920261     A.U. after   13 cycles
 SCF Done:  E(RPBE1PBE) =  -215.250721247     A.U. after   13 cycles
 SCF Done:  E(RPBE1PBE) =  -215.252585322     A.U. after   13 cycles
 SCF Done:  E(RPBE1PBE) =  -215.253771066     A.U. after   13 cycles
 SCF Done:  E(RPBE1PBE) =  -215.254350718     A.U. after   13 cycles
 SCF Done:  E(RPBE1PBE) =  -215.254650757     A.U. after   12 cycles
 SCF Done:  E(RPBE1PBE) =  -215.254711772     A.U. after   11 cycles
 SCF Done:  E(RPBE1PBE) =  -215.254781936     A.U. after   11 cycles
 SCF Done:  E(RPBE1PBE) =  -215.254827364     A.U. after   12 cycles
 SCF Done:  E(RPBE1PBE) =  -215.254830775     A.U. after    9 cycles
 SCF Done:  E(RPBE1PBE) =  -215.258877464     A.U. after   13 cycles
 SCF Done:  E(RPBE1PBE) =  -215.257938975     A.U. after   11 cycles
 SCF Done:  E(RPBE1PBE) =  -215.260542062     A.U. after   12 cycles
 SCF Done:  E(RPBE1PBE) =  -215.260880310     A.U. after   11 cycles
 SCF Done:  E(RPBE1PBE) =  -215.260934589     A.U. after   11 cycles
 SCF Done:  E(RPBE1PBE) =  -215.260959748     A.U. after   11 cycles
 SCF Done:  E(RPBE1PBE) =  -215.260968729     A.U. after    9 cycles
 SCF Done:  E(RPBE1PBE) =  -215.260971438     A.U. after   10 cycles
 SCF Done:  E(RPBE1PBE) =  -215.260971857     A.U. after    8 cycles
 SCF Done:  E(RPBE1PBE) =  -215.260971949     A.U. after    8 cycles
 Optimization completed.
    -- Stationary point found.

                         Standard orientation:
 ---------------------------------------------------------------------
 Center     Atomic      Atomic             Coordinates (Angstroms)
 Number     Number       Type             X           Y           Z
 ---------------------------------------------------------------------
      1          9           0        1.604386    0.459438   -0.025069
      2          6           0        0.592224   -0.525017    0.028834
      3          1           0       -0.506106   -0.112526   -0.073131
      4          1           0        0.805558   -1.251755   -0.774986
      5          1           0        0.716699   -1.060198    0.987414
      6          8           0       -2.106066    0.121899   -0.110671
      7          1           0       -2.160446    0.464446    0.798687
 ---------------------------------------------------------------------

 The electronic state is 1-A.
 Alpha  occ. eigenvalues --  -24.54773 -18.82409 -10.06088  -0.99856  -0.60180
 Alpha  occ. eigenvalues --   -0.49190  -0.28331  -0.27644  -0.25760  -0.14633
 Alpha  occ. eigenvalues --   -0.13768  -0.08350   0.06396   0.06576
 Alpha virt. eigenvalues --    0.31155   0.33996   0.36059   0.38469   0.53390
 Alpha virt. eigenvalues --    0.74812   0.77259   0.80258   1.06105   1.08181
 Alpha virt. eigenvalues --    1.12277   1.17287   1.22856   1.28574   1.36926

 Mulliken charges:
               1
     1  F   -0.411261
     2  C   -0.236283
     3  H    0.280821
     4  H    0.072021
     5  H    0.068187
     6  O   -1.021622
     7  H    0.248138
 Sum of Mulliken charges =  -1.00000

 Dipole moment (field-independent basis, Debye):
    X=              5.4699    Y=             -0.7519    Z=              1.3433  Tot=              5.6823
 Quadrupole moment (field-independent basis, Debye-Ang):
   XX=            -41.2688   YY=            -20.6806   ZZ=            -19.2533
   XY=             -0.6041   XZ=             -2.9473   YZ=              0.7523

 Normal termination of Gaussian 16 at Wed Oct  7 13:54:16 2020.
