 Gaussian 16, Revision A.03,
 Gaussian 16:  ES64L-G16RevA.03 25-Dec-2016

 ----------------------------------------------------------------------
 #P Opt(MaxCyc=100) PBE1PBE/6-31G* 5D 7F Integral=UltraFineGrid SCF=(No
 Symm,XQC,MaxCyc=120) IOp(1/33=1)
 ----------------------------------------------------------------------

 TstMul:  Mul=     1
 TstMul:  ICh=     0
 TstMul:  Mul=     1
 Symbolic Z-matrix:
 Charge =  0 Multiplicity = 1

 SCF Done:  E(RPBE1PBE) =  -184.462743236     A.U. after   12 cycles
 SCF Done:  E(RPBE1PBE) =  -184.462952287     A.U. after    9 cycles
 SCF Done:  E(RPBE1PBE) =  -184.462958820     A.U. after    9 cycles
 Optimization completed.
    -- Stationary point found.

                         Standard orientation:
 ---------------------------------------------------------------------
 Center     Atomic      Atomic             Coordinates (Angstroms)
 Number     Number       Type             X           Y           Z
 ---------------------------------------------------------------------
      1          7           0        0.000000    0.000000   -1.200694
      2          7           0        0.000000    0.000000   -0.070952
      3          8           0        0.000000    0.000000    1.112690
 ---------------------------------------------------------------------

 The electronic state is 1-SG.
 Alpha  occ. eigenvalues --  -19.32445 -14.63064 -14.49639  -1.27974  -1.11593
 Alpha  occ. eigenvalues --   -0.62160  -0.58086  -0.58086  -0.49042  -0.35288
 Alpha  occ. eigenvalues --   -0.35288
 Alpha virt. eigenvalues --   -0.00397  -0.00397   0.15313   0.42912   0.61547
 Alpha virt. eigenvalues --    0.61547   0.62003   0.75420   0.76466   0.76466
 Alpha virt. eigenvalues --    0.77045   0.97782   0.97782   1.08790   1.35345

 Mulliken charges:
               1
     1  N   -0.097844
     2  N    0.566678
     3  O   -0.468834
 Sum of Mulliken charges =  -0.00000

 Dipole moment (field-independent basis, Debye):
    X=              0.0000    Y=              0.0000    Z=             -0.0028  Tot=              0.0028
 Quadrupole moment (field-independent basis, Debye-Ang):
   XX=            -15.0046   YY=            -15.0046   ZZ=            -18.8394
   XY=              0.0000   XZ=              0.0000   YZ=             -0.0000

 Normal termination of Gaussian 16 at Wed Oct  7 13:41:32 2020.
