 Gaussian 16, Revision A.03,

 ----------------------------------------------------------------------
 #P Opt(TS,MaxCyc=50,NoEigenTest,MaxStep=10,AddRedundant) PBE1PBE/6-31G
 * 5D 7F Integral=UltraFineGrid SCF=(NoSymm,XQC,MaxCyc=120) IOp(1/33=1)
 ----------------------------------------------------------------------

 TstMul:  Mul=     2
 TstMul:  ICh=     0
 TstMul:  Mul=     2
 Symbolic Z-matrix:
 Charge =  0 Multiplicity = 2

 SCF Done:  E(UPBE1PBE) =  -184.937138214     A.U. after   19 cycles
 SCF Done:  E(UPBE1PBE) =  -184.937916579     A.U. after   16 cycles
 SCF Done:  E(UPBE1PBE) =  -184.937386700     A.U. after   18 cycles
 SCF Done:  E(UPBE1PBE) =  -184.937516280     A.U. after   17 cycles
 SCF Done:  E(UPBE1PBE) =  -184.937521033     A.U. after   12 cycles
 SCF Done:  E(UPBE1PBE) =  -184.937521911     A.U. after   11 cycles
 Optimization completed.
    -- Stationary point found.
 Normal termination of Gaussian 16 at Wed Oct  7 13:43:12 2020.
 Gaussian 16:  ES64L-G16RevA.03 25-Dec-2016

 ----------------------------------------------------------------------
 #P Freq PBE1PBE/6-31G* 5D 7F Integral=UltraFineGrid SCF=(NoSymm,XQC,Ma
 xCyc=120) IOp(1/33=1) Geom=Check Guess=Read
 ----------------------------------------------------------------------

 TstMul:  Mul=     2
 TstMul:  ICh=     0
 TstMul:  Mul=     2
 Structure from the checkpoint file:  "MN_68_n2ohts_BH76_PBE0_631Gs.chk"
 Charge =  0 Multiplicity = 2

                         Standard orientation:
 ---------------------------------------------------------------------
 Center     Atomic      Atomic             Coordinates (Angstroms)
 Number     Number       Type             X           Y           Z
 ---------------------------------------------------------------------
      1          1           0       -0.378183   -1.977054   -0.000000
      2          8           0       -0.865047   -0.609141   -0.000000
      3          7           0       -0.000000    0.256420    0.000000
      4          7           0        1.042651    0.722177    0.000000
 ---------------------------------------------------------------------

 SCF Done:  E(UPBE1PBE) =  -184.937521911     A.U. after    1 cycles

 The electronic state is 2-A'.
 Alpha  occ. eigenvalues --  -19.34589 -14.60635 -14.49749  -1.26219  -1.10041
 Alpha  occ. eigenvalues --   -0.66801  -0.57382  -0.56557  -0.49942  -0.39915
 Alpha  occ. eigenvalues --   -0.36264  -0.22987
 Alpha virt. eigenvalues --   -0.04129  -0.01721   0.17535   0.46019   0.59826
 Alpha virt. eigenvalues --    0.62202   0.62210   0.70386   0.72838   0.76485
 Alpha virt. eigenvalues --    0.76803   0.78340   0.94951   0.96198   1.13784

  Beta  occ. eigenvalues --  -19.34591 -14.60458 -14.49056  -1.25658  -1.09238
  Beta  occ. eigenvalues --   -0.65661  -0.56282  -0.56205  -0.48452  -0.37471
  Beta  occ. eigenvalues --   -0.35946
  Beta virt. eigenvalues --   -0.07590  -0.01097   0.02373   0.18203   0.46635
  Beta virt. eigenvalues --    0.62484   0.62625   0.63459   0.72960   0.76625
  Beta virt. eigenvalues --    0.76908   0.78889   0.80573   0.95062   0.96919

 Mulliken charges and spin densities:
               1          2
     1  H    0.062792   0.731857
     2  O   -0.414007  -0.121346
     3  N    0.448206   0.064576
     4  N   -0.096991   0.324912
 Sum of Mulliken charges =  -0.00000   1.00000

 Dipole moment (field-independent basis, Debye):
    X=             -0.1741    Y=             -0.1570    Z=              0.0000  Tot=              0.2344
 Quadrupole moment (field-independent basis, Debye-Ang):
   XX=            -18.9447   YY=            -17.3400   ZZ=            -16.3885
   XY=             -1.4910   XZ=             -0.0000   YZ=             -0.0000

  Exact polarizability:  22.283  12.354  39.612  -0.000  -0.000   7.545
 Approx polarizability:  50.010  31.278  65.188   0.000  -0.000  10.054

 ******    1 imaginary frequencies (negative Signs) ******

                      1                      2                      3
                     A'                     A'                     A"
 Frequencies --  -1466.7167               486.5194               595.2137
 Red. masses --      1.4295                 1.3758                 4.4675
 Frc consts  --      1.8118                 0.1919                 0.9325
 IR Inten    --    913.3746                12.3279                 7.5604

                      4                      5                      6
                     A'                     A'                     A'
 Frequencies --    837.4520              1267.7551              2235.9397
 Red. masses --      2.5031                 6.0293                14.0225
 Frc consts  --      1.0343                 5.7094                41.3043
 IR Inten    --      0.7800                41.7672               295.9530

 - Thermochemistry -
 -------------------
 Temperature   298.150 Kelvin.  Pressure   1.00000 Atm.
 Atom     1 has atomic number  1 and mass   1.00783

 Molecular mass:    45.00889 amu.
 Principal axes and moments of inertia in atomic units:
                           1         2         3
     Eigenvalues --     8.64182 153.28859 161.93041
           X            0.78426  -0.62044   0.00000
           Y            0.62044   0.78426   0.00000
           Z           -0.00000   0.00000   1.00000
 This molecule is an asymmetric top.
 Rotational symmetry number  1.
 Rotational temperatures (Kelvin)     10.02265     0.56504     0.53488
 Rotational constants (GHZ):         208.83804    11.77349    11.14517
    1 imaginary frequencies ignored.
 Zero-point vibrational energy      32436.0 (Joules/Mol)
                                    7.75240 (Kcal/Mol)
 Warning -- explicit consideration of   2 degrees of freedom as
           vibrations may cause significant error
 Vibrational temperatures:    699.99   856.38  1204.91  1824.02  3217.02
          (Kelvin)

 Zero-point correction=                           0.012354 (Hartree/Particle)
 Thermal correction to Energy=                    0.015665
 Thermal correction to Enthalpy=                  0.016609
 Thermal correction to Gibbs Free Energy=        -0.011936
 Sum of electronic and zero-point Energies=           -184.925168
 Sum of electronic and thermal Energies=              -184.921857
 Sum of electronic and thermal Enthalpies=            -184.920913
 Sum of electronic and thermal Free Energies=         -184.949458

                     E (Thermal)             CV                S
                      KCal/Mol        Cal/Mol-Kelvin    Cal/Mol-Kelvin
 Total                    9.830              9.044             60.078
 Electronic               0.000              0.000              1.377
 Translational            0.889              2.981             37.338
 Rotational               0.889              2.981             20.000
 Vibrational              8.052              3.082              1.361
 Vibration     1          0.843              1.280              0.693
 Vibration     2          0.953              1.042              0.458

 Optimization completed.
    -- Stationary point found.
 Normal termination of Gaussian 16 at Wed Oct  7 13:43:49 2020.
