 Gaussian 16, Revision A.03,

 ----------------------------------------------------------------------
 #P Opt(TS,MaxCyc=50,NoEigenTest,MaxStep=10,AddRedundant) PBE1PBE/6-31G
 * 5D 7F Integral=UltraFineGrid SCF=(NoSymm,XQC,MaxCyc=120) IOp(1/33=1)
 ----------------------------------------------------------------------

 TstMul:  Mul=     1
 TstMul:  ICh=    -1
 TstMul:  Mul=     1
 Symbolic Z-matrix:
 Charge = -1 Multiplicity = 1

 SCF Done:  E(RPBE1PBE) =  -215.242760169     A.U. after   12 cycles
 SCF Done:  E(RPBE1PBE) =  -215.243579852     A.U. after   11 cycles
 SCF Done:  E(RPBE1PBE) =  -215.243666186     A.U. after   11 cycles
 SCF Done:  E(RPBE1PBE) =  -215.243688990     A.U. after   10 cycles
 SCF Done:  E(RPBE1PBE) =  -215.243713980     A.U. after   10 cycles
 SCF Done:  E(RPBE1PBE) =  -215.243744026     A.U. after   11 cycles
 SCF Done:  E(RPBE1PBE) =  -215.243674135     A.U. after   12 cycles
 SCF Done:  E(RPBE1PBE) =  -215.243681174     A.U. after    9 cycles
 SCF Done:  E(RPBE1PBE) =  -215.243681531     A.U. after    9 cycles
 SCF Done:  E(RPBE1PBE) =  -215.243682651     A.U. after    8 cycles
 SCF Done:  E(RPBE1PBE) =  -215.243697159     A.U. after   10 cycles
 SCF Done:  E(RPBE1PBE) =  -215.243682538     A.U. after   11 cycles
 SCF Done:  E(RPBE1PBE) =  -215.243684752     A.U. after   10 cycles
 SCF Done:  E(RPBE1PBE) =  -215.243684769     A.U. after    7 cycles
 Optimization completed.
    -- Stationary point found.
 Normal termination of Gaussian 16 at Wed Oct  7 13:44:24 2020.
 Gaussian 16:  ES64L-G16RevA.03 25-Dec-2016

 ----------------------------------------------------------------------
 #P Freq PBE1PBE/6-31G* 5D 7F Integral=UltraFineGrid SCF=(NoSymm,XQC,Ma
 xCyc=120) IOp(1/33=1) Geom=Check Guess=Read
 ----------------------------------------------------------------------

 TstMul:  Mul=     1
 TstMul:  ICh=    -1
 TstMul:  Mul=     1
 Structure from the checkpoint file:  "MN_63_hoch3fts_BH76_PBE0_631Gs.chk"
 Charge = -1 Multiplicity = 1

                         Standard orientation:
 ---------------------------------------------------------------------
 Center     Atomic      Atomic             Coordinates (Angstroms)
 Number     Number       Type             X           Y           Z
 ---------------------------------------------------------------------
      1          9           0        1.818275   -0.019951   -0.000012
      2          6           0        0.078229    0.025590    0.000014
      3          1           0        0.036385    1.104125    0.000072
      4          1           0        0.021922   -0.504031   -0.939193
      5          1           0        0.022070   -0.504149    0.939165
      6          8           0       -1.857653    0.097845   -0.000001
      7          1           0       -2.053006   -0.852683   -0.000016
 ---------------------------------------------------------------------

 SCF Done:  E(RPBE1PBE) =  -215.243684769     A.U. after    1 cycles

 The electronic state is 1-A.
 Alpha  occ. eigenvalues --  -24.39386 -18.88640 -10.05347  -0.81597  -0.66856
 Alpha  occ. eigenvalues --   -0.46143  -0.22793  -0.22645  -0.15066  -0.11136
 Alpha  occ. eigenvalues --   -0.05321  -0.05073   0.01353   0.01415
 Alpha virt. eigenvalues --    0.31160   0.33065   0.38926   0.38968   0.39303
 Alpha virt. eigenvalues --    0.79773   0.80592   0.90774   1.05455   1.11088
 Alpha virt. eigenvalues --    1.13432   1.15653   1.22233   1.24853   1.37320

 Mulliken charges:
               1
     1  F   -0.620743
     2  C   -0.158484
     3  H    0.148699
     4  H    0.134477
     5  H    0.134471
     6  O   -0.923512
     7  H    0.285092
 Sum of Mulliken charges =  -1.00000

 Dipole moment (field-independent basis, Debye):
    X=              0.4433    Y=             -1.2682    Z=              0.0000  Tot=              1.3434
 Quadrupole moment (field-independent basis, Debye-Ang):
   XX=            -39.8636   YY=            -18.1448   ZZ=            -19.6366
   XY=              3.1161   XZ=              0.0002   YZ=              0.0000

  Exact polarizability:  37.592   2.169  19.805   0.000   0.000  15.787
 Approx polarizability:  53.255   0.823  24.894   0.001   0.000  18.700

 ******    1 imaginary frequencies (negative Signs) ******

                      1                      2                      3
                      A                      A                      A
 Frequencies --   -499.7642               213.9220               319.1696
 Red. masses --     10.2417                 1.0531                 3.1652
 Frc consts  --      1.5071                 0.0284                 0.1900
 IR Inten    --    877.0548                51.2590                17.5047

                      4                      5                      6
                      A                      A                      A
 Frequencies --    344.9313               372.9843               801.8439
 Red. masses --      4.4027                12.9107                 1.1499
 Frc consts  --      0.3086                 1.0582                 0.4356
 IR Inten    --     24.8473                 6.8213                38.4088

                      7                      8                      9
                      A                      A                      A
 Frequencies --   1065.7930              1104.0718              1179.7356
 Red. masses --      1.0219                 1.0451                 1.0664
 Frc consts  --      0.6839                 0.7506                 0.8745
 IR Inten    --      0.2256                 1.1908                 2.9375

                     10                     11                     12
                      A                      A                      A
 Frequencies --   1372.5045              1375.4565              3139.3752
 Red. masses --      1.1281                 1.1182                 1.0086
 Frc consts  --      1.2521                 1.2464                 5.8568
 IR Inten    --      1.3523                 2.1079                 0.3480

                     13                     14                     15
                      A                      A                      A
 Frequencies --   3325.9229              3334.0083              3703.6101
 Red. masses --      1.1288                 1.1265                 1.0675
 Frc consts  --      7.3568                 7.3773                 8.6270
 IR Inten    --     53.7771                44.2358                60.4699

 - Thermochemistry -
 -------------------
 Temperature   298.150 Kelvin.  Pressure   1.00000 Atm.
 Atom     1 has atomic number  9 and mass  18.99840

 Molecular mass:    51.02462 amu.
 Principal axes and moments of inertia in atomic units:
                           1         2         3
     Eigenvalues --    15.64525 442.30181 445.24895
           X            0.99988   0.01544   0.00000
           Y           -0.01544   0.99988  -0.00000
           Z           -0.00000   0.00000   1.00000
 This molecule is an asymmetric top.
 Rotational symmetry number  1.
 Rotational temperatures (Kelvin)      5.53612     0.19583     0.19453
 Rotational constants (GHZ):         115.35392     4.08034     4.05333
    1 imaginary frequencies ignored.
 Zero-point vibrational energy     129515.7 (Joules/Mol)
                                   30.95499 (Kcal/Mol)
 Warning -- explicit consideration of   4 degrees of freedom as
           vibrations may cause significant error
 Vibrational temperatures:    307.79   459.21   496.28   536.64  1153.67
          (Kelvin)           1533.44  1588.51  1697.38  1974.73  1978.98
                             4516.86  4785.26  4796.89  5328.67

 Zero-point correction=                           0.049330 (Hartree/Particle)
 Thermal correction to Energy=                    0.053968
 Thermal correction to Enthalpy=                  0.054912
 Thermal correction to Gibbs Free Energy=         0.023379
 Sum of electronic and zero-point Energies=           -215.194355
 Sum of electronic and thermal Energies=              -215.189717
 Sum of electronic and thermal Enthalpies=            -215.188773
 Sum of electronic and thermal Free Energies=         -215.220305

                     E (Thermal)             CV                S
                      KCal/Mol        Cal/Mol-Kelvin    Cal/Mol-Kelvin
 Total                   33.865             14.216             66.365
 Electronic               0.000              0.000              0.000
 Translational            0.889              2.981             37.712
 Rotational               0.889              2.981             22.648
 Vibrational             32.088              8.254              6.005
 Vibration     1          0.644              1.820              2.010
 Vibration     2          0.705              1.637              1.314
 Vibration     3          0.723              1.586              1.189
 Vibration     4          0.744              1.528              1.067

 Optimization completed.
    -- Stationary point found.
 Normal termination of Gaussian 16 at Wed Oct  7 13:44:55 2020.
