 Gaussian 16, Revision A.03,
 Gaussian 16:  ES64L-G16RevA.03 25-Dec-2016

 ----------------------------------------------------------------------
 #P Opt(MaxCyc=100) PBE1PBE/6-31G* 5D 7F Integral=UltraFineGrid SCF=(No
 Symm,XQC,MaxCyc=120) IOp(1/33=1)
 ----------------------------------------------------------------------

 TstMul:  Mul=     1
 TstMul:  ICh=     0
 TstMul:  Mul=     1
 Symbolic Z-matrix:
 Charge =  0 Multiplicity = 1

 SCF Done:  E(RPBE1PBE) =  -342.979372064     A.U. after    9 cycles
 SCF Done:  E(RPBE1PBE) =  -342.979495892     A.U. after    7 cycles
 SCF Done:  E(RPBE1PBE) =  -342.979497799     A.U. after    6 cycles
 Optimization completed.
    -- Stationary point found.

                         Standard orientation:
 ---------------------------------------------------------------------
 Center     Atomic      Atomic             Coordinates (Angstroms)
 Number     Number       Type             X           Y           Z
 ---------------------------------------------------------------------
      1         15           0        0.000000    0.000000    0.128747
      2          1           0        0.000000    1.193910   -0.643737
      3          1           0        1.033957   -0.596955   -0.643737
      4          1           0       -1.033957   -0.596955   -0.643737
 ---------------------------------------------------------------------

 The electronic state is 1-A1.
 Alpha  occ. eigenvalues --  -77.20066  -6.60644  -4.74135  -4.74135  -4.73714
 Alpha  occ. eigenvalues --   -0.66597  -0.39856  -0.39856  -0.28488
 Alpha virt. eigenvalues --    0.04022   0.04022   0.12959   0.29766   0.29766
 Alpha virt. eigenvalues --    0.31634   0.39786   0.67275   0.67275   0.69591
 Alpha virt. eigenvalues --    0.69640   0.69640   0.96428   1.17194   1.17194

 Mulliken charges:
               1
     1  P   -0.136345
     2  H    0.045448
     3  H    0.045448
     4  H    0.045448
 Sum of Mulliken charges =   0.00000

 Dipole moment (field-independent basis, Debye):
    X=             -0.0000    Y=             -0.0000    Z=             -1.0450  Tot=              1.0450
 Quadrupole moment (field-independent basis, Debye-Ang):
   XX=            -14.5830   YY=            -14.5830   ZZ=            -17.0497
   XY=              0.0000   XZ=              0.0000   YZ=             -0.0000

 Normal termination of Gaussian 16 at Wed Oct  7 13:41:58 2020.
