 Gaussian 16, Revision A.03,

 ----------------------------------------------------------------------
 #P Opt(TS,MaxCyc=50,NoEigenTest,MaxStep=10,AddRedundant) PBE1PBE/6-31G
 * 5D 7F Integral=UltraFineGrid SCF=(NoSymm,XQC,MaxCyc=120) IOp(1/33=1)
 ----------------------------------------------------------------------

 TstMul:  Mul=     2
 TstMul:  ICh=     0
 TstMul:  Mul=     2
 Symbolic Z-matrix:
 Charge =  0 Multiplicity = 2

 SCF Done:  E(UPBE1PBE) =  -76.8004427179     A.U. after   16 cycles
 SCF Done:  E(UPBE1PBE) =  -76.8004981115     A.U. after   17 cycles
 SCF Done:  E(UPBE1PBE) =  -76.8005685733     A.U. after   13 cycles
 SCF Done:  E(UPBE1PBE) =  -76.8005744671     A.U. after   12 cycles
 SCF Done:  E(UPBE1PBE) =  -76.8005800870     A.U. after   12 cycles
 SCF Done:  E(UPBE1PBE) =  -76.8005800510     A.U. after   13 cycles
 SCF Done:  E(UPBE1PBE) =  -76.8005915783     A.U. after   16 cycles
 SCF Done:  E(UPBE1PBE) =  -76.8005928708     A.U. after   11 cycles
 Optimization completed.
    -- Stationary point found.
 Normal termination of Gaussian 16 at Wed Oct  7 13:43:05 2020.
 Gaussian 16:  ES64L-G16RevA.03 25-Dec-2016

 ----------------------------------------------------------------------
 #P Freq PBE1PBE/6-31G* 5D 7F Integral=UltraFineGrid SCF=(NoSymm,XQC,Ma
 xCyc=120) IOp(1/33=1) Geom=Check Guess=Read
 ----------------------------------------------------------------------

 TstMul:  Mul=     2
 TstMul:  ICh=     0
 TstMul:  Mul=     2
 Structure from the checkpoint file:  "MN_79_RKT02_BH76_PBE0_631Gs.chk"
 Charge =  0 Multiplicity = 2

                         Standard orientation:
 ---------------------------------------------------------------------
 Center     Atomic      Atomic             Coordinates (Angstroms)
 Number     Number       Type             X           Y           Z
 ---------------------------------------------------------------------
      1          8           0       -0.298983   -0.110798    0.000002
      2          1           0       -0.472951    0.850091   -0.000004
      3          1           0        1.028409   -0.087120   -0.000033
      4          1           0        1.836404    0.123412    0.000020
 ---------------------------------------------------------------------

 SCF Done:  E(UPBE1PBE) =  -76.8005928708     A.U. after    1 cycles

 The electronic state is 2-A.
 Alpha  occ. eigenvalues --  -19.26034  -1.03254  -0.54179  -0.46037  -0.33354
 Alpha  occ. eigenvalues --   -0.33289
 Alpha virt. eigenvalues --    0.09765   0.19723   0.66205   0.80856   0.85203
 Alpha virt. eigenvalues --    0.89318   1.02651   1.08842   1.43554   1.71062
 Alpha virt. eigenvalues --    1.75047   1.76253   2.02063   2.43627
  Beta  occ. eigenvalues --  -19.24029  -0.97750  -0.49674  -0.41637  -0.31284
  Beta virt. eigenvalues --   -0.13592   0.10626   0.23225   0.68519   0.81728
  Beta virt. eigenvalues --    0.90491   0.90927   1.04734   1.12543   1.46842
  Beta virt. eigenvalues --    1.75925   1.75986   1.80856   2.06426   2.45654

 Mulliken charges and spin densities:
               1          2
     1  O   -0.560344   0.735237
     2  H    0.418618  -0.021168
     3  H    0.131739  -0.119774
     4  H    0.009987   0.405705
 Sum of Mulliken charges =  -0.00000   1.00000

 Dipole moment (field-independent basis, Debye):
    X=              0.3538    Y=              1.6976    Z=             -0.0000  Tot=              1.7340
 Quadrupole moment (field-independent basis, Debye-Ang):
   XX=             -6.7673   YY=             -6.5447   ZZ=             -8.5111
   XY=             -0.8111   XZ=              0.0000   YZ=             -0.0000

  Exact polarizability:  22.029   0.751   6.734   0.000   0.000   2.596
 Approx polarizability:  25.900   1.982   8.235   0.000   0.000   2.690

 ******    1 imaginary frequencies (negative Signs) ******

                      1                      2                      3
                      A                      A                      A
 Frequencies --  -1006.2021               513.9983               662.3626
 Red. masses --      1.1074                 1.0191                 1.0157
 Frc consts  --      0.6606                 0.1586                 0.2625
 IR Inten    --    145.8033                18.7120                24.5637

                      4                      5                      6
                      A                      A                      A
 Frequencies --   1134.0112              2516.5655              3726.5761
 Red. masses --      1.0658                 1.0219                 1.0666
 Frc consts  --      0.8075                 3.8130                 8.7275
 IR Inten    --    141.8880               134.9674                15.1832

 - Thermochemistry -
 -------------------
 Temperature   298.150 Kelvin.  Pressure   1.00000 Atm.
 Atom     1 has atomic number  8 and mass  15.99491

 Molecular mass:    19.01839 amu.
 Principal axes and moments of inertia in atomic units:
                           1         2         3
     Eigenvalues --     3.22211  20.81545  24.03756
           X            0.99952  -0.03111   0.00000
           Y            0.03111   0.99952   0.00000
           Z           -0.00000  -0.00000   1.00000
 This molecule is an asymmetric top.
 Rotational symmetry number  1.
 Rotational temperatures (Kelvin)     26.88111     4.16104     3.60327
 Rotational constants (GHZ):         560.11140    86.70202    75.08006
    1 imaginary frequencies ignored.
 Zero-point vibrational energy      51161.4 (Joules/Mol)
                                   12.22786 (Kcal/Mol)
 Warning -- explicit consideration of   1 degrees of freedom as
           vibrations may cause significant error
 Vibrational temperatures:    739.53   952.99  1631.59  3620.78  5361.71
          (Kelvin)

 Zero-point correction=                           0.019486 (Hartree/Particle)
 Thermal correction to Energy=                    0.022683
 Thermal correction to Enthalpy=                  0.023628
 Thermal correction to Gibbs Free Energy=        -0.001232
 Sum of electronic and zero-point Energies=            -76.781107
 Sum of electronic and thermal Energies=               -76.777909
 Sum of electronic and thermal Enthalpies=             -76.776965
 Sum of electronic and thermal Free Energies=          -76.801825

                     E (Thermal)             CV                S
                      KCal/Mol        Cal/Mol-Kelvin    Cal/Mol-Kelvin
 Total                   14.234              8.337             52.321
 Electronic               0.000              0.000              1.377
 Translational            0.889              2.981             34.771
 Rotational               0.889              2.981             15.141
 Vibrational             12.457              2.376              1.032
 Vibration     1          0.869              1.219              0.624

 Optimization completed.
    -- Stationary point found.
 Normal termination of Gaussian 16 at Wed Oct  7 13:43:28 2020.
