 Gaussian 16, Revision A.03,
 Gaussian 16:  ES64L-G16RevA.03 25-Dec-2016

 ----------------------------------------------------------------------
 #P PBE1PBE/6-31G* 5D 7F Integral=UltraFineGrid SCF=(NoSymm,XQC,MaxCyc=
 120) IOp(1/33=1) Stable=Opt
 ----------------------------------------------------------------------

 TstMul:  Mul=     3
 TstMul:  ICh=     0
 TstMul:  Mul=     3
 Symbolic Z-matrix:
 Charge =  0 Multiplicity = 3

                         Standard orientation:
 ---------------------------------------------------------------------
 Center     Atomic      Atomic             Coordinates (Angstroms)
 Number     Number       Type             X           Y           Z
 ---------------------------------------------------------------------
      1          8           0        0.000000    0.000000    0.000000
 ---------------------------------------------------------------------

 SCF Done:  E(UPBE1PBE) =  -74.9838454612     A.U. after   10 cycles

 Unable to determine electronic state:  partially filled degenerate orbitals.
 Alpha  occ. eigenvalues --  -19.35570  -1.03783  -0.46618  -0.46618  -0.38306
 Alpha virt. eigenvalues --    0.81378   0.81378   0.86488   0.93583   1.68060
 Alpha virt. eigenvalues --    1.68060   1.73155   1.73155   1.74999
  Beta  occ. eigenvalues --  -19.30236  -0.86122  -0.32916
  Beta virt. eigenvalues --   -0.13751  -0.13751   0.89660   0.94214   0.94214
  Beta virt. eigenvalues --    1.02182   1.80963   1.80963   1.81725   1.83671
  Beta virt. eigenvalues --    1.83671

 Mulliken charges and spin densities:
               1          2
     1  O   -0.000000   2.000000
 Sum of Mulliken charges =  -0.00000   2.00000

 Dipole moment (field-independent basis, Debye):
    X=              0.0000    Y=             -0.0000    Z=             -0.0000  Tot=              0.0000
 Quadrupole moment (field-independent basis, Debye-Ang):
   XX=             -5.6675   YY=             -4.5462   ZZ=             -4.5462
   XY=             -0.0000   XZ=              0.0000   YZ=             -0.0000

 Normal termination of Gaussian 16 at Wed Oct  7 13:41:19 2020.
