 Gaussian 16, Revision A.03,
 Gaussian 16:  ES64L-G16RevA.03 25-Dec-2016

 ----------------------------------------------------------------------
 #P Opt(MaxCyc=100) PBE1PBE/6-31G* 5D 7F Integral=UltraFineGrid SCF=(No
 Symm,XQC,MaxCyc=120) IOp(1/33=1)
 ----------------------------------------------------------------------

 TstMul:  Mul=     2
 TstMul:  ICh=     0
 TstMul:  Mul=     2
 Symbolic Z-matrix:
 Charge =  0 Multiplicity = 2

 SCF Done:  E(UPBE1PBE) =  -342.346784102     A.U. after   13 cycles
 SCF Done:  E(UPBE1PBE) =  -342.346879779     A.U. after    8 cycles
 Optimization completed.
    -- Stationary point found.

                         Standard orientation:
 ---------------------------------------------------------------------
 Center     Atomic      Atomic             Coordinates (Angstroms)
 Number     Number       Type             X           Y           Z
 ---------------------------------------------------------------------
      1         15           0        0.000000    0.000000    0.117117
      2          1           0       -0.000000    1.023467   -0.878379
      3          1           0       -0.000000   -1.023467   -0.878379
 ---------------------------------------------------------------------

 The electronic state is 2-B1.
 Alpha  occ. eigenvalues --  -77.21909  -6.62211  -4.76234  -4.75542  -4.75232
 Alpha  occ. eigenvalues --   -0.65864  -0.40210  -0.32064  -0.26371
 Alpha virt. eigenvalues --    0.03477   0.08698   0.24796   0.29309   0.30832
 Alpha virt. eigenvalues --    0.31663   0.65148   0.65893   0.66890   0.69098
 Alpha virt. eigenvalues --    0.74532   0.98675   1.15569
  Beta  occ. eigenvalues --  -77.21473  -6.61722  -4.75249  -4.74971  -4.74653
  Beta  occ. eigenvalues --   -0.62408  -0.39563  -0.30413
  Beta virt. eigenvalues --   -0.10970   0.04221   0.11038   0.27548   0.30099
  Beta virt. eigenvalues --    0.32595   0.35642   0.67639   0.69248   0.70799
  Beta virt. eigenvalues --    0.71335   0.79569   1.00082   1.15979

 Mulliken charges and spin densities:
               1          2
     1  P   -0.024948   1.086048
     2  H    0.012474  -0.043024
     3  H    0.012474  -0.043024
 Sum of Mulliken charges =   0.00000   1.00000

 Dipole moment (field-independent basis, Debye):
    X=              0.0000    Y=              0.0000    Z=             -0.9498  Tot=              0.9498
 Quadrupole moment (field-independent basis, Debye-Ang):
   XX=            -14.9402   YY=            -13.9084   ZZ=            -15.4485
   XY=             -0.0000   XZ=             -0.0000   YZ=              0.0000

 Normal termination of Gaussian 16 at Wed Oct  7 13:42:05 2020.
