 Gaussian 16, Revision A.03,
 Gaussian 16:  ES64L-G16RevA.03 25-Dec-2016

 ----------------------------------------------------------------------
 #P Opt(MaxCyc=100) PBE1PBE/6-31G* 5D 7F Integral=UltraFineGrid SCF=(No
 Symm,XQC,MaxCyc=120) IOp(1/33=1)
 ----------------------------------------------------------------------

 TstMul:  Mul=     1
 TstMul:  ICh=     0
 TstMul:  Mul=     1
 Symbolic Z-matrix:
 Charge =  0 Multiplicity = 1

 SCF Done:  E(RPBE1PBE) =  -56.4760774263     A.U. after    9 cycles
 SCF Done:  E(RPBE1PBE) =  -56.4761700100     A.U. after    7 cycles
 SCF Done:  E(RPBE1PBE) =  -56.4761826386     A.U. after    7 cycles
 Optimization completed.
    -- Stationary point found.

                         Standard orientation:
 ---------------------------------------------------------------------
 Center     Atomic      Atomic             Coordinates (Angstroms)
 Number     Number       Type             X           Y           Z
 ---------------------------------------------------------------------
      1          7           0        0.000000    0.000000    0.117840
      2          1           0        0.000000    0.937701   -0.274959
      3          1           0        0.812073   -0.468851   -0.274959
      4          1           0       -0.812073   -0.468851   -0.274959
 ---------------------------------------------------------------------

 The electronic state is 1-A1.
 Alpha  occ. eigenvalues --  -14.35712  -0.86819  -0.46491  -0.46491  -0.26359
 Alpha virt. eigenvalues --    0.09758   0.18489   0.18489   0.70185   0.70185
 Alpha virt. eigenvalues --    0.74867   0.94540   0.94540   0.95482   1.25526
 Alpha virt. eigenvalues --    1.68094   1.68094   1.96124   2.42326   2.42326

 Mulliken charges:
               1
     1  N   -0.958747
     2  H    0.319582
     3  H    0.319582
     4  H    0.319582
 Sum of Mulliken charges =   0.00000

 Dipole moment (field-independent basis, Debye):
    X=              0.0000    Y=              0.0000    Z=             -1.9324  Tot=              1.9324
 Quadrupole moment (field-independent basis, Debye-Ang):
   XX=             -6.0953   YY=             -6.0953   ZZ=             -8.8088
   XY=             -0.0000   XZ=             -0.0000   YZ=             -0.0000

 Normal termination of Gaussian 16 at Wed Oct  7 13:42:00 2020.
