 Gaussian 16, Revision A.03,
 Gaussian 16:  ES64L-G16RevA.03 25-Dec-2016

 ----------------------------------------------------------------------
 #P Opt(MaxCyc=100) PBE1PBE/6-31G* 5D 7F Integral=UltraFineGrid SCF=(No
 Symm,XQC,MaxCyc=120) IOp(1/33=1)
 ----------------------------------------------------------------------

 TstMul:  Mul=     2
 TstMul:  ICh=     0
 TstMul:  Mul=     2
 Symbolic Z-matrix:
 Charge =  0 Multiplicity = 2

 SCF Done:  E(UPBE1PBE) =  -75.6412050394     A.U. after   11 cycles
 SCF Done:  E(UPBE1PBE) =  -75.6412913898     A.U. after    8 cycles
 SCF Done:  E(UPBE1PBE) =  -75.6412916146     A.U. after    7 cycles
 Optimization completed.
    -- Stationary point found.

                         Standard orientation:
 ---------------------------------------------------------------------
 Center     Atomic      Atomic             Coordinates (Angstroms)
 Number     Number       Type             X           Y           Z
 ---------------------------------------------------------------------
      1          8           0        0.000000    0.000000    0.108746
      2          1           0        0.000000    0.000000   -0.869970
 ---------------------------------------------------------------------

 Unable to determine electronic state:  partially filled degenerate orbitals.
 Alpha  occ. eigenvalues --  -19.27860  -1.03581  -0.48047  -0.42256  -0.34136
 Alpha virt. eigenvalues --    0.08936   0.79874   0.83933   0.89179   0.94221
 Alpha virt. eigenvalues --    1.24936   1.69688   1.74858   1.75987   1.76046
 Alpha virt. eigenvalues --    2.41759
  Beta  occ. eigenvalues --  -19.25220  -0.95753  -0.45311  -0.31346
  Beta virt. eigenvalues --   -0.12932   0.09906   0.80862   0.90880   0.95165
  Beta virt. eigenvalues --    0.96269   1.29027   1.75828   1.77009   1.83051
  Beta virt. eigenvalues --    1.84176   2.44450

 Mulliken charges and spin densities:
               1          2
     1  O   -0.426924   1.033302
     2  H    0.426924  -0.033302
 Sum of Mulliken charges =   0.00000   1.00000

 Dipole moment (field-independent basis, Debye):
    X=              0.0000    Y=              0.0000    Z=             -1.7848  Tot=              1.7848
 Quadrupole moment (field-independent basis, Debye-Ang):
   XX=             -6.4406   YY=             -5.2872   ZZ=             -4.4076
   XY=             -0.0000   XZ=              0.0000   YZ=              0.0000

 Normal termination of Gaussian 16 at Wed Oct  7 13:42:09 2020.
