 Gaussian 16, Revision A.03,

 ----------------------------------------------------------------------
 #P Opt(TS,MaxCyc=50,NoEigenTest,MaxStep=10,AddRedundant) PBE1PBE/6-31G
 * 5D 7F Integral=UltraFineGrid SCF=(NoSymm,XQC,MaxCyc=120) IOp(1/33=1)
 ----------------------------------------------------------------------

 TstMul:  Mul=     2
 TstMul:  ICh=     0
 TstMul:  Mul=     2
 Symbolic Z-matrix:
 Charge =  0 Multiplicity = 2

 SCF Done:  E(UPBE1PBE) =  -100.789806215     A.U. after   18 cycles
 SCF Done:  E(UPBE1PBE) =  -100.789801110     A.U. after   12 cycles
 SCF Done:  E(UPBE1PBE) =  -100.789798196     A.U. after   11 cycles
 SCF Done:  E(UPBE1PBE) =  -100.789791848     A.U. after   11 cycles
 SCF Done:  E(UPBE1PBE) =  -100.789885094     A.U. after   13 cycles
 SCF Done:  E(UPBE1PBE) =  -100.789716089     A.U. after   18 cycles
 SCF Done:  E(UPBE1PBE) =  -100.789603601     A.U. after   14 cycles
 SCF Done:  E(UPBE1PBE) =  -100.789530641     A.U. after   13 cycles
 SCF Done:  E(UPBE1PBE) =  -100.789487199     A.U. after   14 cycles
 SCF Done:  E(UPBE1PBE) =  -100.789464619     A.U. after   13 cycles
 SCF Done:  E(UPBE1PBE) =  -100.789455073     A.U. after   17 cycles
 SCF Done:  E(UPBE1PBE) =  -100.789452444     A.U. after   17 cycles
 SCF Done:  E(UPBE1PBE) =  -100.789452087     A.U. after   11 cycles
 SCF Done:  E(UPBE1PBE) =  -100.789452107     A.U. after   11 cycles
 SCF Done:  E(UPBE1PBE) =  -100.789452100     A.U. after   11 cycles
 Optimization completed.
    -- Stationary point found.
 Normal termination of Gaussian 16 at Wed Oct  7 13:44:35 2020.
 Gaussian 16:  ES64L-G16RevA.03 25-Dec-2016

 ----------------------------------------------------------------------
 #P Freq PBE1PBE/6-31G* 5D 7F Integral=UltraFineGrid SCF=(NoSymm,XQC,Ma
 xCyc=120) IOp(1/33=1) Geom=Check Guess=Read
 ----------------------------------------------------------------------

 TstMul:  Mul=     2
 TstMul:  ICh=     0
 TstMul:  Mul=     2
 Structure from the checkpoint file:  "MN_86_RKT10_BH76_PBE0_631Gs.chk"
 Charge =  0 Multiplicity = 2

                         Standard orientation:
 ---------------------------------------------------------------------
 Center     Atomic      Atomic             Coordinates (Angstroms)
 Number     Number       Type             X           Y           Z
 ---------------------------------------------------------------------
      1          1           0        0.291335   -1.280881    0.000000
      2          9           0        0.000000    0.339307    0.000000
      3          1           0       -0.291335   -1.772878    0.000000
 ---------------------------------------------------------------------

 SCF Done:  E(UPBE1PBE) =  -100.789452100     A.U. after    1 cycles

 The electronic state is 2-A'.
 Alpha  occ. eigenvalues --  -24.82505  -1.21269  -0.56380  -0.44087  -0.43666
 Alpha  occ. eigenvalues --   -0.42787
 Alpha virt. eigenvalues --    0.11524   0.61059   1.01290   1.18098   1.20835
 Alpha virt. eigenvalues --    1.23141   1.46348   1.81212   1.82323   1.85187
 Alpha virt. eigenvalues --    1.86042   1.86098
  Beta  occ. eigenvalues --  -24.79552  -1.12584  -0.47200  -0.40765  -0.40750
  Beta virt. eigenvalues --   -0.19360   0.12959   0.62409   1.04669   1.19779
  Beta virt. eigenvalues --    1.22666   1.31567   1.51009   1.86498   1.86680
  Beta virt. eigenvalues --    1.86870   1.88140   1.92445

 Mulliken charges and spin densities:
               1          2
     1  H    0.060089  -0.031547
     2  F   -0.092848   0.877280
     3  H    0.032759   0.154267
 Sum of Mulliken charges =   0.00000   1.00000

 Dipole moment (field-independent basis, Debye):
    X=              0.0112    Y=             -0.7347    Z=              0.0000  Tot=              0.7348
 Quadrupole moment (field-independent basis, Debye-Ang):
   XX=             -6.4411   YY=             -4.8957   ZZ=             -6.6958
   XY=              0.1867   XZ=              0.0000   YZ=              0.0000

  Exact polarizability:   5.294   2.672  15.070  -0.000  -0.000   1.563
 Approx polarizability:   6.075   3.316  16.387   0.000  -0.000   1.707

 ******    1 imaginary frequencies (negative Signs) ******

                      1                      2                      3
                     A'                     A'                     A'
 Frequencies --   -239.9416               280.1247              4059.1729
 Red. masses --      1.0295                 1.0879                 1.0080
 Frc consts  --      0.0349                 0.0503                 9.7852
 IR Inten    --     43.7366                29.5121               199.3436

 - Thermochemistry -
 -------------------
 Temperature   298.150 Kelvin.  Pressure   1.00000 Atm.
 Atom     1 has atomic number  1 and mass   1.00783

 Molecular mass:    21.01405 amu.
 Principal axes and moments of inertia in atomic units:
                           1         2         3
     Eigenvalues --     0.59911  23.11108  23.71019
           X            0.02292   0.99974   0.00000
           Y            0.99974  -0.02292   0.00000
           Z            0.00000   0.00000   1.00000
 This molecule is an asymmetric top.
 Rotational symmetry number  1.
 Rotational temperatures (Kelvin)    144.57079     3.74772     3.65303
 Rotational constants (GHZ):        3012.36622    78.08987    76.11669
    1 imaginary frequencies ignored.
 Zero-point vibrational energy      25954.8 (Joules/Mol)
                                    6.20334 (Kcal/Mol)
 Warning -- explicit consideration of   1 degrees of freedom as
           vibrations may cause significant error
 Vibrational temperatures:    403.04  5840.24
          (Kelvin)

 Zero-point correction=                           0.009886 (Hartree/Particle)
 Thermal correction to Energy=                    0.013164
 Thermal correction to Enthalpy=                  0.014108
 Thermal correction to Gibbs Free Energy=        -0.010379
 Sum of electronic and zero-point Energies=           -100.779566
 Sum of electronic and thermal Energies=              -100.776288
 Sum of electronic and thermal Enthalpies=            -100.775344
 Sum of electronic and thermal Free Energies=         -100.799832

                     E (Thermal)             CV                S
                      KCal/Mol        Cal/Mol-Kelvin    Cal/Mol-Kelvin
 Total                    8.260              7.672             51.538
 Electronic               0.000              0.000              1.377
 Translational            0.889              2.981             35.068
 Rotational               0.889              2.981             13.560
 Vibrational              6.483              1.710              1.533
 Vibration     1          0.680              1.710              1.533

                           ! Non-Optimized Parameters !
 Normal termination of Gaussian 16 at Wed Oct  7 13:44:54 2020.
