 Gaussian 16, Revision A.03,

 ----------------------------------------------------------------------
 #P Opt(TS,MaxCyc=50,NoEigenTest,MaxStep=10,AddRedundant) PBE1PBE/6-31G
 * 5D 7F Integral=UltraFineGrid SCF=(NoSymm,XQC,MaxCyc=120) IOp(1/33=1)
 ----------------------------------------------------------------------

 TstMul:  Mul=     3
 TstMul:  ICh=     0
 TstMul:  Mul=     3
 Symbolic Z-matrix:
 Charge =  0 Multiplicity = 3

 SCF Done:  E(UPBE1PBE) =  -76.1317279345     A.U. after   12 cycles
 SCF Done:  E(UPBE1PBE) =  -76.1317850626     A.U. after    9 cycles
 SCF Done:  E(UPBE1PBE) =  -76.1321097187     A.U. after   12 cycles
 SCF Done:  E(UPBE1PBE) =  -76.1317059827     A.U. after   12 cycles
 SCF Done:  E(UPBE1PBE) =  -76.1316539736     A.U. after   12 cycles
 SCF Done:  E(UPBE1PBE) =  -76.1316560290     A.U. after    8 cycles
 Optimization completed.
    -- Stationary point found.
 Normal termination of Gaussian 16 at Wed Oct  7 13:44:19 2020.
 Gaussian 16:  ES64L-G16RevA.03 25-Dec-2016

 ----------------------------------------------------------------------
 #P Freq PBE1PBE/6-31G* 5D 7F Integral=UltraFineGrid SCF=(NoSymm,XQC,Ma
 xCyc=120) IOp(1/33=1) Geom=Check Guess=Read
 ----------------------------------------------------------------------

 TstMul:  Mul=     3
 TstMul:  ICh=     0
 TstMul:  Mul=     3
 Structure from the checkpoint file:  "MN_89_RKT14_BH76_PBE0_631Gs.chk"
 Charge =  0 Multiplicity = 3

                         Standard orientation:
 ---------------------------------------------------------------------
 Center     Atomic      Atomic             Coordinates (Angstroms)
 Number     Number       Type             X           Y           Z
 ---------------------------------------------------------------------
      1          1           0        0.000000    0.000000   -0.839578
      2          8           0        0.000000    0.000000    0.327805
      3          1           0        0.000000    0.000000   -1.782862
 ---------------------------------------------------------------------

 SCF Done:  E(UPBE1PBE) =  -76.1316560290     A.U. after    1 cycles

 Unable to determine electronic state:  partially filled degenerate orbitals.
 Alpha  occ. eigenvalues --  -19.31264  -1.03366  -0.54925  -0.44092  -0.35913
 Alpha  occ. eigenvalues --   -0.34333
 Alpha virt. eigenvalues --    0.18604   0.64123   0.80406   0.82466   0.87661
 Alpha virt. eigenvalues --    0.94841   1.38458   1.68758   1.73920   1.74855
 Alpha virt. eigenvalues --    1.74902   2.20013
  Beta  occ. eigenvalues --  -19.27177  -0.91093  -0.46010  -0.31835
  Beta virt. eigenvalues --   -0.13797  -0.13175   0.23993   0.67462   0.88439
  Beta virt. eigenvalues --    0.90053   0.94461   1.00399   1.45458   1.78012
  Beta virt. eigenvalues --    1.79810   1.82280   1.83468   2.26271

 Mulliken charges and spin densities:
               1          2
     1  H    0.222682  -0.123394
     2  O   -0.261358   1.515575
     3  H    0.038676   0.607818
 Sum of Mulliken charges =  -0.00000   2.00000

 Dipole moment (field-independent basis, Debye):
    X=              0.0000    Y=              0.0000    Z=             -1.1848  Tot=              1.1848
 Quadrupole moment (field-independent basis, Debye-Ang):
   XX=             -6.5731   YY=             -7.7211   ZZ=             -6.1193
   XY=              0.0000   XZ=              0.0000   YZ=             -0.0000

  Exact polarizability:   2.653   0.000   2.296  -0.000  -0.000  20.586
 Approx polarizability:   3.036   0.000   2.341  -0.000  -0.000  24.970

 ******    1 imaginary frequencies (negative Signs) ******

                      1                      2                      3
                     SG                     PI                     PI
 Frequencies --  -1526.3291               531.5106               904.1621
 Red. masses --      1.0401                 1.0169                 1.0169
 Frc consts  --      1.4276                 0.1693                 0.4898
 IR Inten    --    390.1794                16.6787                13.1453

                      4
                     SG
 Frequencies --   1568.8701
 Red. masses --      1.0882
 Frc consts  --      1.5781
 IR Inten    --     39.6271

 - Thermochemistry -
 -------------------
 Temperature   298.150 Kelvin.  Pressure   1.00000 Atm.
 Atom     1 has atomic number  1 and mass   1.00783

 Molecular mass:    18.01056 amu.
 Principal axes and moments of inertia in atomic units:
                           1         2         3
     Eigenvalues --     0.00000  18.77388  18.77388
           X            0.00000   0.00000   1.00000
           Y            0.00000   1.00000   0.00000
           Z            1.00000   0.00000   0.00000
 This molecule is a prolate symmetric top.
 Rotational symmetry number  1.
 Rotational temperature (Kelvin)      4.61353
 Rotational constant (GHZ):          96.130412
    1 imaginary frequencies ignored.
 Zero-point vibrational energy      17971.2 (Joules/Mol)
                                    4.29521 (Kcal/Mol)
 Warning -- explicit consideration of   1 degrees of freedom as
           vibrations may cause significant error
 Vibrational temperatures:    764.73  1300.89  2257.25
          (Kelvin)

 Zero-point correction=                           0.006845 (Hartree/Particle)
 Thermal correction to Energy=                    0.009464
 Thermal correction to Enthalpy=                  0.010408
 Thermal correction to Gibbs Free Energy=        -0.012300
 Sum of electronic and zero-point Energies=            -76.124811
 Sum of electronic and thermal Energies=               -76.122192
 Sum of electronic and thermal Enthalpies=             -76.121248
 Sum of electronic and thermal Free Energies=          -76.143956

                     E (Thermal)             CV                S
                      KCal/Mol        Cal/Mol-Kelvin    Cal/Mol-Kelvin
 Total                    5.939              6.701             47.792
 Electronic               0.000              0.000              2.183
 Translational            0.889              2.981             34.608
 Rotational               0.592              1.987             10.271
 Vibrational              4.458              1.733              0.730
 Vibration     1          0.886              1.180              0.584

 Optimization completed.
    -- Stationary point found.
 Normal termination of Gaussian 16 at Wed Oct  7 13:44:57 2020.
