 Gaussian 16, Revision A.03,

 ----------------------------------------------------------------------
 #P Opt(TS,MaxCyc=50,NoEigenTest,MaxStep=10,AddRedundant) PBE1PBE/6-31G
 * 5D 7F Integral=UltraFineGrid SCF=(NoSymm,XQC,MaxCyc=120) IOp(1/33=1)
 ----------------------------------------------------------------------

 TstMul:  Mul=     3
 TstMul:  ICh=     0
 TstMul:  Mul=     3
 Symbolic Z-matrix:
 Charge =  0 Multiplicity = 3

 SCF Done:  E(UPBE1PBE) =  -115.421629001     A.U. after   13 cycles
 SCF Done:  E(UPBE1PBE) =  -115.421963203     A.U. after   12 cycles
 SCF Done:  E(UPBE1PBE) =  -115.421425737     A.U. after   13 cycles
 SCF Done:  E(UPBE1PBE) =  -115.421019061     A.U. after   13 cycles
 SCF Done:  E(UPBE1PBE) =  -115.421022933     A.U. after   12 cycles
 SCF Done:  E(UPBE1PBE) =  -115.421050312     A.U. after   11 cycles
 SCF Done:  E(UPBE1PBE) =  -115.421076551     A.U. after   12 cycles
 Optimization completed.
    -- Stationary point found.
 Normal termination of Gaussian 16 at Wed Oct  7 13:43:30 2020.
 Gaussian 16:  ES64L-G16RevA.03 25-Dec-2016

 ----------------------------------------------------------------------
 #P Freq PBE1PBE/6-31G* 5D 7F Integral=UltraFineGrid SCF=(NoSymm,XQC,Ma
 xCyc=120) IOp(1/33=1) Geom=Check Guess=Read
 ----------------------------------------------------------------------

 TstMul:  Mul=     3
 TstMul:  ICh=     0
 TstMul:  Mul=     3
 Structure from the checkpoint file:  "MN_87_RKT11_BH76_PBE0_631Gs.chk"
 Charge =  0 Multiplicity = 3

                         Standard orientation:
 ---------------------------------------------------------------------
 Center     Atomic      Atomic             Coordinates (Angstroms)
 Number     Number       Type             X           Y           Z
 ---------------------------------------------------------------------
      1          6           0        0.000261   -1.154222    0.000000
      2          1           0       -1.064577   -1.381130    0.000000
      3          1           0        0.524732   -1.406461    0.919579
      4          1           0        0.524732   -1.406461   -0.919579
      5          1           0        0.011467    0.217817   -0.000000
      6          8           0        0.000261    1.362695   -0.000000
 ---------------------------------------------------------------------

 SCF Done:  E(UPBE1PBE) =  -115.421076551     A.U. after    1 cycles

 The electronic state is 3-A'.
 Alpha  occ. eigenvalues --  -19.27746 -10.25661  -1.00639  -0.74316  -0.49338
 Alpha  occ. eigenvalues --   -0.44940  -0.44814  -0.41037  -0.33061  -0.28669
 Alpha virt. eigenvalues --    0.11236   0.16694   0.16788   0.26080   0.51800
 Alpha virt. eigenvalues --    0.52233   0.54733   0.72519   0.87248   0.90165
 Alpha virt. eigenvalues --    0.90223   0.90236   0.92426   0.96527   1.16762

  Beta  occ. eigenvalues --  -19.23888 -10.24487  -0.89235  -0.70772  -0.43971
  Beta  occ. eigenvalues --   -0.43936  -0.41405  -0.29207
  Beta virt. eigenvalues --   -0.10912  -0.10789   0.12210   0.17440   0.17497
  Beta virt. eigenvalues --    0.30095   0.52944   0.53031   0.60087   0.74352
  Beta virt. eigenvalues --    0.90892   0.90969   0.92191   0.94685   0.98749

 Mulliken charges and spin densities:
               1          2
     1  C   -0.705321   0.724962
     2  H    0.219487  -0.024121
     3  H    0.220003  -0.025048
     4  H    0.220003  -0.025048
     5  H    0.413339  -0.081436
     6  O   -0.367510   1.430690
 Sum of Mulliken charges =  -0.00000   2.00000

 Dipole moment (field-independent basis, Debye):
    X=              0.0015    Y=             -2.1662    Z=             -0.0000  Tot=              2.1662
 Quadrupole moment (field-independent basis, Debye-Ang):
   XX=            -12.3229   YY=            -15.2782   ZZ=            -13.4625
   XY=              0.0032   XZ=              0.0000   YZ=              0.0000

  Exact polarizability:  14.290  -0.062  31.193   0.000  -0.000  14.027
 Approx polarizability:  16.657  -0.077  36.602  -0.000   0.000  16.051

 ******    1 imaginary frequencies (negative Signs) ******

                      1                      2                      3
                     A'                     A"                     A'
 Frequencies --  -1381.2036               339.8716               410.4580
 Red. masses --      1.1114                 1.0565                 1.0719
 Frc consts  --      1.2492                 0.0719                 0.1064
 IR Inten    --    402.4504                 7.3754                 3.2288

                      4                      5                      6
                     A'                     A"                     A'
 Frequencies --    582.6359               960.4045              1143.8502
 Red. masses --      3.9081                 1.0684                 1.0633
 Frc consts  --      0.7816                 0.5806                 0.8197
 IR Inten    --      0.3041                40.3977                46.7692

                      7                      8                      9
                     A'                     A'                     A"
 Frequencies --   1220.2853              1448.8437              1459.5399
 Red. masses --      1.2500                 1.0776                 1.0830
 Frc consts  --      1.0967                 1.3327                 1.3593
 IR Inten    --     24.4552                 4.7890                 5.0927

                     10                     11                     12
                     A'                     A'                     A"
 Frequencies --   3121.9119              3273.7445              3280.6857
 Red. masses --      1.0173                 1.1120                 1.1133
 Frc consts  --      5.8416                 7.0215                 7.0597
 IR Inten    --      0.0065                 3.0680                 3.0083

 - Thermochemistry -
 -------------------
 Temperature   298.150 Kelvin.  Pressure   1.00000 Atm.
 Atom     1 has atomic number  6 and mass  12.00000

 Molecular mass:    32.02621 amu.
 Principal axes and moments of inertia in atomic units:
                           1         2         3
     Eigenvalues --    12.14808 188.76235 188.78794
           X           -0.00003   0.00000   1.00000
           Y            1.00000   0.00000   0.00003
           Z           -0.00000   1.00000   0.00000
 This molecule is an asymmetric top.
 Rotational symmetry number  1.
 Rotational temperatures (Kelvin)      7.12984     0.45885     0.45879
 Rotational constants (GHZ):         148.56183     9.56092     9.55962
    1 imaginary frequencies ignored.
 Zero-point vibrational energy     103131.4 (Joules/Mol)
                                   24.64901 (Kcal/Mol)
 Warning -- explicit consideration of   3 degrees of freedom as
           vibrations may cause significant error
 Vibrational temperatures:    489.00   590.56   838.28  1381.81  1645.75
          (Kelvin)           1755.72  2084.56  2099.95  4491.73  4710.19
                             4720.17

 Zero-point correction=                           0.039281 (Hartree/Particle)
 Thermal correction to Energy=                    0.043046
 Thermal correction to Enthalpy=                  0.043990
 Thermal correction to Gibbs Free Energy=         0.014507
 Sum of electronic and zero-point Energies=           -115.381796
 Sum of electronic and thermal Energies=              -115.378030
 Sum of electronic and thermal Enthalpies=            -115.377086
 Sum of electronic and thermal Free Energies=         -115.406569

                     E (Thermal)             CV                S
                      KCal/Mol        Cal/Mol-Kelvin    Cal/Mol-Kelvin
 Total                   27.012             11.109             62.052
 Electronic               0.000              0.000              2.183
 Translational            0.889              2.981             36.324
 Rotational               0.889              2.981             20.698
 Vibrational             25.234              5.147              2.847
 Vibration     1          0.720              1.596              1.213
 Vibration     2          0.775              1.448              0.925
 Vibration     3          0.939              1.069              0.481

                           ! Non-Optimized Parameters !
 Normal termination of Gaussian 16 at Wed Oct  7 13:43:54 2020.
