 Gaussian 16, Revision A.03,

 ----------------------------------------------------------------------
 #P Opt(TS,MaxCyc=50,NoEigenTest,MaxStep=10,AddRedundant) PBE1PBE/6-31G
 * 5D 7F Integral=UltraFineGrid SCF=(NoSymm,XQC,MaxCyc=120) IOp(1/33=1)
 ----------------------------------------------------------------------

 TstMul:  Mul=     2
 TstMul:  ICh=     0
 TstMul:  Mul=     2
 Symbolic Z-matrix:
 Charge =  0 Multiplicity = 2

 SCF Done:  E(UPBE1PBE) =  -1.65319780206     A.U. after    9 cycles
 SCF Done:  E(UPBE1PBE) =  -1.65320133988     A.U. after    7 cycles
 Optimization completed.
    -- Stationary point found.
 Normal termination of Gaussian 16 at Wed Oct  7 13:42:00 2020.
 Gaussian 16:  ES64L-G16RevA.03 25-Dec-2016

 ----------------------------------------------------------------------
 #P Freq PBE1PBE/6-31G* 5D 7F Integral=UltraFineGrid SCF=(NoSymm,XQC,Ma
 xCyc=120) IOp(1/33=1) Geom=Check Guess=Read
 ----------------------------------------------------------------------

 TstMul:  Mul=     2
 TstMul:  ICh=     0
 TstMul:  Mul=     2
 Structure from the checkpoint file:  "MN_82_RKT06_BH76_PBE0_631Gs.chk"
 Charge =  0 Multiplicity = 2

                         Standard orientation:
 ---------------------------------------------------------------------
 Center     Atomic      Atomic             Coordinates (Angstroms)
 Number     Number       Type             X           Y           Z
 ---------------------------------------------------------------------
      1          1           0        0.000000    0.000000    0.000000
      2          1           0        0.000000    0.000000    0.931392
      3          1           0        0.000000    0.000000   -0.931392
 ---------------------------------------------------------------------

 SCF Done:  E(UPBE1PBE) =  -1.65320133988     A.U. after    1 cycles

 The electronic state is 2-SGU.
 Alpha  occ. eigenvalues --   -0.52291  -0.26508
 Alpha virt. eigenvalues --    0.16008   0.69056   0.76870   1.04838
  Beta  occ. eigenvalues --   -0.46737
  Beta virt. eigenvalues --   -0.07753   0.21441   0.73826   0.86086   1.08992

 Mulliken charges and spin densities:
               1          2
     1  H   -0.125051  -0.218832
     2  H    0.062526   0.609416
     3  H    0.062526   0.609416
 Sum of Mulliken charges =  -0.00000   1.00000

 Dipole moment (field-independent basis, Debye):
    X=              0.0000    Y=              0.0000    Z=              0.0000  Tot=              0.0000
 Quadrupole moment (field-independent basis, Debye-Ang):
   XX=             -3.3195   YY=             -3.3195   ZZ=             -3.3027
   XY=              0.0000   XZ=             -0.0000   YZ=              0.0000

  Exact polarizability:   0.000   0.000   0.000  -0.000   0.000  18.483
 Approx polarizability:   0.000  -0.000  -0.000  -0.000  -0.000  21.415

 ******    1 imaginary frequencies (negative Signs) ******

                      1                      2                      3
                     SGU                    PIU                    PIU
 Frequencies --  -1087.2524              1101.2927              1101.2927
 Red. masses --      1.0078                 1.0078                 1.0078
 Frc consts  --      0.7019                 0.7202                 0.7202
 IR Inten    --     88.1839                12.8209                12.8209

                      4
                     SGG
 Frequencies --   2070.9217
 Red. masses --      1.0078
 Frc consts  --      2.5466
 IR Inten    --      0.0000

 - Thermochemistry -
 -------------------
 Temperature   298.150 Kelvin.  Pressure   1.00000 Atm.
 Atom     1 has atomic number  1 and mass   1.00783

 Molecular mass:     3.02348 amu.
 Principal axes and moments of inertia in atomic units:
                           1         2         3
     Eigenvalues --     0.00000   6.24421   6.24421
           X           -0.00000   1.00000   0.00000
           Y            0.00000   0.00000   1.00000
           Z            1.00000   0.00000   0.00000
 This molecule is a prolate symmetric top.
 Rotational symmetry number  2.
 Rotational temperature (Kelvin)     13.87107
 Rotational constant (GHZ):         289.026263
    1 imaginary frequencies ignored.
 Zero-point vibrational energy      25561.2 (Joules/Mol)
                                    6.10929 (Kcal/Mol)
 Vibrational temperatures:   1584.51  1584.51  2979.59
          (Kelvin)

 Zero-point correction=                           0.009736 (Hartree/Particle)
 Thermal correction to Energy=                    0.012146
 Thermal correction to Enthalpy=                  0.013090
 Thermal correction to Gibbs Free Energy=        -0.004726
 Sum of electronic and zero-point Energies=             -1.643466
 Sum of electronic and thermal Energies=                -1.641055
 Sum of electronic and thermal Enthalpies=              -1.640111
 Sum of electronic and thermal Free Energies=           -1.657927

                     E (Thermal)             CV                S
                      KCal/Mol        Cal/Mol-Kelvin    Cal/Mol-Kelvin
 Total                    7.622              5.535             37.497
 Electronic               0.000              0.000              1.377
 Translational            0.889              2.981             29.289
 Rotational               0.592              1.987              6.706
 Vibrational              6.141              0.567              0.125

 Optimization completed.
    -- Stationary point found.

 1\1\GINC-NODE60\Freq\UPBE1PBE\6-31G(d)\H3(2)\RPEVERATI\07-Oct-2020\0\\
 #P Freq PBE1PBE/6-31G* 5D 7F Integral=UltraFineGrid SCF=(NoSymm,XQC,Ma
 xCyc=120) IOp(1/33=1) Geom=Check Guess=Read\\TS search on BH76.\\0,2\H
 ,0.,0.,0.\H,0.,0.,0.9313917287\H,0.,0.,-0.9313917287\\Version=ES64L-G1
 6RevA.03\State=2-SGU\HF=-1.6532013\S2=0.761603\S2-1=0.\S2A=0.75\RMSD=0
 .000e+00\RMSF=8.975e-05\ZeroPoint=0.0097358\Thermal=0.0121463\Dipole=0
 .,0.,0.\DipoleDeriv=-0.0940005,0.,0.,0.,-0.0940005,0.,0.,0.,0.2465278,
 0.0470003,0.,0.,0.,0.0470003,0.,0.,0.,-0.1232639,0.0470003,0.,0.,0.,0.

 Normal termination of Gaussian 16 at Wed Oct  7 13:42:20 2020.
