 Gaussian 16, Revision A.03,

 ----------------------------------------------------------------------
 #P Opt(TS,MaxCyc=50,NoEigenTest,MaxStep=10,AddRedundant) PBE1PBE/6-31G
 * 5D 7F Integral=UltraFineGrid SCF=(NoSymm,XQC,MaxCyc=120) IOp(1/33=1)
 ----------------------------------------------------------------------

 TstMul:  Mul=     2
 TstMul:  ICh=     0
 TstMul:  Mul=     2
 Symbolic Z-matrix:
 Charge =  0 Multiplicity = 2

 SCF Done:  E(UPBE1PBE) =  -116.090386686     A.U. after   17 cycles
 SCF Done:  E(UPBE1PBE) =  -116.090388389     A.U. after   10 cycles
 SCF Done:  E(UPBE1PBE) =  -116.090402362     A.U. after   10 cycles
 SCF Done:  E(UPBE1PBE) =  -116.090420043     A.U. after   15 cycles
 SCF Done:  E(UPBE1PBE) =  -116.090473812     A.U. after   14 cycles
 SCF Done:  E(UPBE1PBE) =  -116.090479239     A.U. after   12 cycles
 SCF Done:  E(UPBE1PBE) =  -116.090480158     A.U. after   11 cycles
 SCF Done:  E(UPBE1PBE) =  -116.090480298     A.U. after   10 cycles
 Optimization completed.
    -- Stationary point found.
 Normal termination of Gaussian 16 at Fri Oct  9 11:00:01 2020.
 Gaussian 16:  ES64L-G16RevA.03 25-Dec-2016

 ----------------------------------------------------------------------
 #P Freq PBE1PBE/6-31G* 5D 7F Integral=UltraFineGrid SCF=(NoSymm,XQC,Ma
 xCyc=120) IOp(1/33=1) Geom=Check Guess=Read
 ----------------------------------------------------------------------

 TstMul:  Mul=     2
 TstMul:  ICh=     0
 TstMul:  Mul=     2
 Structure from the checkpoint file:  "MN_81_RKT04_BH76_PBE0_631Gs.chk"
 Charge =  0 Multiplicity = 2

                         Standard orientation:
 ---------------------------------------------------------------------
 Center     Atomic      Atomic             Coordinates (Angstroms)
 Number     Number       Type             X           Y           Z
 ---------------------------------------------------------------------
      1          6           0       -1.205596    0.009348    0.000289
      2          8           0        1.284066   -0.109061    0.000030
      3          1           0        0.037557   -0.157128    0.011519
      4          1           0       -1.533978   -0.220668    1.013888
      5          1           0       -1.395711    1.044083   -0.285559
      6          1           0       -1.561044   -0.705921   -0.741839
      7          1           0        1.414226    0.856029    0.000022
 ---------------------------------------------------------------------

 SCF Done:  E(UPBE1PBE) =  -116.090480298     A.U. after    1 cycles

 The electronic state is 2-A.
 Alpha  occ. eigenvalues --  -19.22937 -10.23918  -1.01197  -0.73568  -0.50702
 Alpha  occ. eigenvalues --   -0.43713  -0.43197  -0.42348  -0.30936  -0.28485
 Alpha virt. eigenvalues --    0.09959   0.13993   0.17304   0.17583   0.29759
 Alpha virt. eigenvalues --    0.53081   0.53194   0.56282   0.78597   0.84276
 Alpha virt. eigenvalues --    0.90629   0.90767   0.92570   0.94055   0.99514

  Beta  occ. eigenvalues --  -19.21220 -10.23001  -0.96650  -0.71030  -0.47241
  Beta  occ. eigenvalues --   -0.42565  -0.42462  -0.38014  -0.29257
  Beta virt. eigenvalues --   -0.11293   0.10604   0.14722   0.17898   0.18186
  Beta virt. eigenvalues --    0.32219   0.53593   0.53691   0.60303   0.79260
  Beta virt. eigenvalues --    0.86038   0.91274   0.91437   0.93544   0.95073

 Mulliken charges and spin densities:
               1          2
     1  C   -0.733715   0.538354
     2  O   -0.658779   0.605314
     3  H    0.366924  -0.080353
     4  H    0.210473  -0.015044
     5  H    0.198286  -0.018885
     6  H    0.213376  -0.013906
     7  H    0.403434  -0.015480
 Sum of Mulliken charges =   0.00000   1.00000

 Dipole moment (field-independent basis, Debye):
    X=             -1.3511    Y=              1.5612    Z=              0.0015  Tot=              2.0646
 Quadrupole moment (field-independent basis, Debye-Ang):
   XX=            -14.5684   YY=            -12.5028   ZZ=            -14.3943
   XY=              2.6408   XZ=             -0.0019   YZ=              0.0150

  Exact polarizability:  35.749   1.034  17.839  -0.042  -0.008  14.487
 Approx polarizability:  40.602   0.036  21.668  -0.091  -0.017  16.643

 ******    1 imaginary frequencies (negative Signs) ******

                      1                      2                      3
                      A                      A                      A
 Frequencies --  -1377.7646                21.5079               311.5427
 Red. masses --      1.0819                 1.0483                 1.0680
 Frc consts  --      1.2100                 0.0003                 0.0611
 IR Inten    --    737.8138                86.5982                 8.1482

                      4                      5                      6
                      A                      A                      A
 Frequencies --    373.4963               652.1536               916.4220
 Red. masses --      1.1416                 3.1983                 1.1882
 Frc consts  --      0.0938                 0.8014                 0.5879
 IR Inten    --     10.3473                47.2428               117.1643

                      7                      8                      9
                      A                      A                      A
 Frequencies --   1123.8534              1260.4945              1447.3197
 Red. masses --      1.0974                 1.1444                 1.1075
 Frc consts  --      0.8167                 1.0713                 1.3668
 IR Inten    --     46.7024                 5.7166                38.0745

                     10                     11                     12
                      A                      A                      A
 Frequencies --   1467.7783              1505.1738              3111.0185
 Red. masses --      1.0609                 1.0215                 1.0221
 Frc consts  --      1.3467                 1.3635                 5.8284
 IR Inten    --      2.9278                44.4829                 1.8440

                     13                     14                     15
                      A                      A                      A
 Frequencies --   3244.4990              3249.0270              3751.6992
 Red. masses --      1.1085                 1.1091                 1.0664
 Frc consts  --      6.8754                 6.8983                 8.8439
 IR Inten    --      8.0885                 6.1832                19.2423

 - Thermochemistry -
 -------------------
 Temperature   298.150 Kelvin.  Pressure   1.00000 Atm.
 Atom     1 has atomic number  6 and mass  12.00000

 Molecular mass:    33.03404 amu.
 Principal axes and moments of inertia in atomic units:
                           1         2         3
     Eigenvalues --    15.11729 193.00035 196.16914
           X            0.99975   0.02217   0.00004
           Y           -0.02217   0.99975   0.00000
           Z           -0.00004  -0.00001   1.00000
 This molecule is an asymmetric top.
 Rotational symmetry number  1.
 Rotational temperatures (Kelvin)      5.72946     0.44878     0.44153
 Rotational constants (GHZ):         119.38257     9.35097     9.19992
    1 imaginary frequencies ignored.
 Zero-point vibrational energy     134197.0 (Joules/Mol)
                                   32.07385 (Kcal/Mol)
 Warning -- explicit consideration of   3 degrees of freedom as
           vibrations may cause significant error
 Vibrational temperatures:     30.95   448.24   537.38   938.30  1318.53
          (Kelvin)           1616.97  1813.57  2082.37  2111.81  2165.61
                             4476.06  4668.11  4674.63  5397.86

 Zero-point correction=                           0.051113 (Hartree/Particle)
 Thermal correction to Energy=                    0.055820
 Thermal correction to Enthalpy=                  0.056764
 Thermal correction to Gibbs Free Energy=         0.024310
 Sum of electronic and zero-point Energies=           -116.039367
 Sum of electronic and thermal Energies=              -116.034660
 Sum of electronic and thermal Enthalpies=            -116.033716
 Sum of electronic and thermal Free Energies=         -116.066171

                     E (Thermal)             CV                S
                      KCal/Mol        Cal/Mol-Kelvin    Cal/Mol-Kelvin
 Total                   35.028             13.203             68.306
 Electronic               0.000              0.000              1.377
 Translational            0.889              2.981             36.416
 Rotational               0.889              2.981             20.976
 Vibrational             33.250              7.242              9.537
 Vibration     1          0.593              1.985              6.490
 Vibration     2          0.700              1.652              1.354
 Vibration     3          0.745              1.527              1.065

                           ! Non-Optimized Parameters !
 Normal termination of Gaussian 16 at Fri Oct  9 11:00:16 2020.
