 Gaussian 16, Revision A.03,

 ----------------------------------------------------------------------
 #P Opt(TS,MaxCyc=50,NoEigenTest,MaxStep=10,AddRedundant) PBE1PBE/6-31G
 * 5D 7F Integral=UltraFineGrid SCF=(NoSymm,XQC,MaxCyc=120) IOp(1/33=1)
 ----------------------------------------------------------------------

 TstMul:  Mul=     2
 TstMul:  ICh=     0
 TstMul:  Mul=     2
 Symbolic Z-matrix:
 Charge =  0 Multiplicity = 2

 SCF Done:  E(UPBE1PBE) =  -343.476823991     A.U. after   14 cycles
 SCF Done:  E(UPBE1PBE) =  -343.476892872     A.U. after   11 cycles
 SCF Done:  E(UPBE1PBE) =  -343.477160406     A.U. after   13 cycles
 SCF Done:  E(UPBE1PBE) =  -343.476858960     A.U. after   13 cycles
 SCF Done:  E(UPBE1PBE) =  -343.476586147     A.U. after   13 cycles
 SCF Done:  E(UPBE1PBE) =  -343.476459223     A.U. after   12 cycles
 SCF Done:  E(UPBE1PBE) =  -343.476431150     A.U. after   12 cycles
 SCF Done:  E(UPBE1PBE) =  -343.476430577     A.U. after   10 cycles
 Optimization completed.
    -- Stationary point found.
 Normal termination of Gaussian 16 at Wed Oct  7 13:44:39 2020.
 Gaussian 16:  ES64L-G16RevA.03 25-Dec-2016

 ----------------------------------------------------------------------
 #P Freq PBE1PBE/6-31G* 5D 7F Integral=UltraFineGrid SCF=(NoSymm,XQC,Ma
 xCyc=120) IOp(1/33=1) Geom=Check Guess=Read
 ----------------------------------------------------------------------

 TstMul:  Mul=     2
 TstMul:  ICh=     0
 TstMul:  Mul=     2
 Structure from the checkpoint file:  "MN_88_RKT12_BH76_PBE0_631Gs.chk"
 Charge =  0 Multiplicity = 2

                         Standard orientation:
 ---------------------------------------------------------------------
 Center     Atomic      Atomic             Coordinates (Angstroms)
 Number     Number       Type             X           Y           Z
 ---------------------------------------------------------------------
      1         15           0        0.222439   -0.000002   -0.113445
      2          1           0        0.278810    1.032832    0.863893
      3          1           0        0.278279   -1.033175    0.863565
      4          1           0       -1.245793    0.000370   -0.121903
      5          1           0       -2.647876   -0.000005    0.096123
 ---------------------------------------------------------------------

 SCF Done:  E(UPBE1PBE) =  -343.476430577     A.U. after    1 cycles

 The electronic state is 2-A.
 Alpha  occ. eigenvalues --  -77.20650  -6.61181  -4.74777  -4.74630  -4.74279
 Alpha  occ. eigenvalues --   -0.67256  -0.43472  -0.40212  -0.31605  -0.26803
 Alpha virt. eigenvalues --    0.03676   0.04233   0.13990   0.29383   0.30497
 Alpha virt. eigenvalues --    0.33069   0.38441   0.66315   0.66829   0.68445
 Alpha virt. eigenvalues --    0.69309   0.73759   0.79531   1.01503   1.16304

  Beta  occ. eigenvalues --  -77.20531  -6.61051  -4.74555  -4.74452  -4.74098
  Beta  occ. eigenvalues --   -0.66391  -0.40722  -0.40067  -0.29127
  Beta virt. eigenvalues --   -0.08050   0.03773   0.05919   0.15198   0.29542
  Beta virt. eigenvalues --    0.30660   0.35075   0.39165   0.67332   0.67711
  Beta virt. eigenvalues --    0.69336   0.69418   0.76011   0.91619   1.03308

 Mulliken charges and spin densities:
               1          2
     1  P   -0.054832   0.223410
     2  H    0.050505  -0.007120
     3  H    0.050508  -0.007121
     4  H   -0.045178  -0.093127
     5  H   -0.001003   0.883958
 Sum of Mulliken charges =  -0.00000   1.00000

 Dipole moment (field-independent basis, Debye):
    X=             -0.2322    Y=             -0.0000    Z=              0.8672  Tot=              0.8977
 Quadrupole moment (field-independent basis, Debye-Ang):
   XX=            -17.6390   YY=            -15.8385   ZZ=            -17.5422
   XY=              0.0001   XZ=              1.1543   YZ=              0.0000

  Exact polarizability:  40.691   0.001  21.739  -0.369  -0.000  19.749
 Approx polarizability:  48.220   0.001  29.622   0.505  -0.000  25.422

 ******    1 imaginary frequencies (negative Signs) ******

                      1                      2                      3
                      A                      A                      A
 Frequencies --   -645.7605               342.7180               343.1565
 Red. masses --      1.0191                 1.0229                 1.0079
 Frc consts  --      0.2504                 0.0708                 0.0699
 IR Inten    --     73.4208                 3.5876                 2.8843

                      4                      5                      6
                      A                      A                      A
 Frequencies --   1029.9258              1153.2840              1160.2024
 Red. masses --      1.0775                 1.0242                 1.0270
 Frc consts  --      0.6734                 0.8026                 0.8145
 IR Inten    --     13.5148                16.4022                 7.1541

                      7                      8                      9
                      A                      A                      A
 Frequencies --   1789.0480              2439.7632              2451.4417
 Red. masses --      1.0495                 1.0353                 1.0409
 Frc consts  --      1.9792                 3.6308                 3.6856
 IR Inten    --     94.1686                66.4675               101.6044

 - Thermochemistry -
 -------------------
 Temperature   298.150 Kelvin.  Pressure   1.00000 Atm.
 Atom     1 has atomic number 15 and mass  30.97376

 Molecular mass:    35.00506 amu.
 Principal axes and moments of inertia in atomic units:
                           1         2         3
     Eigenvalues --    14.21002  42.13148  43.28342
           X            0.99964   0.00000   0.02689
           Y           -0.00000   1.00000  -0.00000
           Z           -0.02689   0.00000   0.99964
 This molecule is an asymmetric top.
 Rotational symmetry number  1.
 Rotational temperatures (Kelvin)      6.09527     2.05580     2.00109
 Rotational constants (GHZ):         127.00484    42.83593    41.69590
    1 imaginary frequencies ignored.
 Zero-point vibrational energy      64057.3 (Joules/Mol)
                                   15.31006 (Kcal/Mol)
 Warning -- explicit consideration of   2 degrees of freedom as
           vibrations may cause significant error
 Vibrational temperatures:    493.09   493.73  1481.83  1659.32  1669.27
          (Kelvin)           2574.04  3510.28  3527.08

 Zero-point correction=                           0.024398 (Hartree/Particle)
 Thermal correction to Energy=                    0.028043
 Thermal correction to Enthalpy=                  0.028987
 Thermal correction to Gibbs Free Energy=         0.001216
 Sum of electronic and zero-point Energies=           -343.452032
 Sum of electronic and thermal Energies=              -343.448387
 Sum of electronic and thermal Enthalpies=            -343.447443
 Sum of electronic and thermal Free Energies=         -343.475214

                     E (Thermal)             CV                S
                      KCal/Mol        Cal/Mol-Kelvin    Cal/Mol-Kelvin
 Total                   17.597              9.987             58.449
 Electronic               0.000              0.000              1.377
 Translational            0.889              2.981             36.589
 Rotational               0.889              2.981             17.900
 Vibrational             15.820              4.025              2.582
 Vibration     1          0.722              1.590              1.199
 Vibration     2          0.722              1.589              1.197

 Optimization completed.
    -- Stationary point found.
 Normal termination of Gaussian 16 at Wed Oct  7 13:45:11 2020.
