 Gaussian 16, Revision A.03,

 ----------------------------------------------------------------------
 #P Opt(TS,MaxCyc=50,NoEigenTest,MaxStep=10,AddRedundant) PBE1PBE/6-31G
 * 5D 7F Integral=UltraFineGrid SCF=(NoSymm,XQC,MaxCyc=120) IOp(1/33=1)
 ----------------------------------------------------------------------

 TstMul:  Mul=     2
 TstMul:  ICh=     0
 TstMul:  Mul=     2
 Symbolic Z-matrix:
 Charge =  0 Multiplicity = 2

 SCF Done:  E(UPBE1PBE) =  -132.121274665     A.U. after   19 cycles
 SCF Done:  E(UPBE1PBE) =  -132.121273545     A.U. after   11 cycles
 SCF Done:  E(UPBE1PBE) =  -132.121280019     A.U. after   14 cycles
 SCF Done:  E(UPBE1PBE) =  -132.121537229     A.U. after   18 cycles
 SCF Done:  E(UPBE1PBE) =  -132.121722453     A.U. after   15 cycles
 SCF Done:  E(UPBE1PBE) =  -132.121775102     A.U. after   14 cycles
 SCF Done:  E(UPBE1PBE) =  -132.121812705     A.U. after   15 cycles
 SCF Done:  E(UPBE1PBE) =  -132.121831948     A.U. after   14 cycles
 SCF Done:  E(UPBE1PBE) =  -132.121840937     A.U. after   12 cycles
 SCF Done:  E(UPBE1PBE) =  -132.121849306     A.U. after   12 cycles
 SCF Done:  E(UPBE1PBE) =  -132.121857082     A.U. after   12 cycles
 SCF Done:  E(UPBE1PBE) =  -132.121862357     A.U. after   12 cycles
 SCF Done:  E(UPBE1PBE) =  -132.121863323     A.U. after   12 cycles
 SCF Done:  E(UPBE1PBE) =  -132.121863565     A.U. after   11 cycles
 Optimization completed.
    -- Stationary point found.
 Normal termination of Gaussian 16 at Fri Oct  9 11:00:45 2020.
 Gaussian 16:  ES64L-G16RevA.03 25-Dec-2016

 ----------------------------------------------------------------------
 #P Freq PBE1PBE/6-31G* 5D 7F Integral=UltraFineGrid SCF=(NoSymm,XQC,Ma
 xCyc=120) IOp(1/33=1) Geom=Check Guess=Read
 ----------------------------------------------------------------------

 TstMul:  Mul=     2
 TstMul:  ICh=     0
 TstMul:  Mul=     2
 Structure from the checkpoint file:  "MN_83_RKT07_BH76_PBE0_631Gs.chk"
 Charge =  0 Multiplicity = 2

                         Standard orientation:
 ---------------------------------------------------------------------
 Center     Atomic      Atomic             Coordinates (Angstroms)
 Number     Number       Type             X           Y           Z
 ---------------------------------------------------------------------
      1          7           0       -1.141115   -0.015585   -0.111602
      2          8           0        1.159009   -0.104120    0.013622
      3          1           0       -1.299029   -0.687004    0.641270
      4          1           0       -1.303272    0.906270    0.296583
      5          1           0       -0.020038   -0.119611   -0.410283
      6          1           0        1.338074    0.842405    0.144666
 ---------------------------------------------------------------------

 SCF Done:  E(UPBE1PBE) =  -132.121863565     A.U. after    1 cycles

 The electronic state is 2-A.
 Alpha  occ. eigenvalues --  -19.22042 -14.41541  -1.01031  -0.89664  -0.53597
 Alpha  occ. eigenvalues --   -0.50380  -0.43045  -0.35553  -0.30694  -0.29515
 Alpha virt. eigenvalues --    0.07428   0.13158   0.16121   0.29147   0.64017
 Alpha virt. eigenvalues --    0.65764   0.70493   0.83470   0.85244   0.85648
 Alpha virt. eigenvalues --    0.90342   0.97257   0.99504   1.11815   1.25504

  Beta  occ. eigenvalues --  -19.20536 -14.40294  -0.97202  -0.86259  -0.51086
  Beta  occ. eigenvalues --   -0.49261  -0.41024  -0.29547  -0.28792
  Beta virt. eigenvalues --   -0.11958   0.08143   0.13772   0.16464   0.30237
  Beta virt. eigenvalues --    0.65564   0.66523   0.74840   0.84278   0.86041
  Beta virt. eigenvalues --    0.87776   0.90968   0.98352   1.01793   1.13890

 Mulliken charges and spin densities:
               1          2
     1  N   -0.839911   0.576502
     2  O   -0.706519   0.527872
     3  H    0.352354  -0.020460
     4  H    0.336458  -0.021082
     5  H    0.456675  -0.047848
     6  H    0.400942  -0.014984
 Sum of Mulliken charges =   0.00000   1.00000

 Dipole moment (field-independent basis, Debye):
    X=             -1.0928    Y=              1.8854    Z=              1.4644  Tot=              2.6255
 Quadrupole moment (field-independent basis, Debye-Ang):
   XX=            -14.2359   YY=            -10.6502   ZZ=            -13.9632
   XY=              1.8831   XZ=             -2.2706   YZ=             -0.0146

  Exact polarizability:  46.293   0.967  14.720   0.651   0.157   9.941
 Approx polarizability:  58.082  -0.816  18.171   2.583   0.160  11.693

 ******    1 imaginary frequencies (negative Signs) ******

                      1                      2                      3
                      A                      A                      A
 Frequencies --  -1332.6125               239.8141               431.6062
 Red. masses --      1.0499                 1.0644                 2.1454
 Frc consts  --      1.0985                 0.0361                 0.2355
 IR Inten    --    604.5696                80.5685                22.7684

                      4                      5                      6
                      A                      A                      A
 Frequencies --    536.1017               843.6545               910.6158
 Red. masses --      1.0277                 1.5796                 1.1588
 Frc consts  --      0.1740                 0.6624                 0.5661
 IR Inten    --     39.1803               146.9796                88.1680

                      7                      8                      9
                      A                      A                      A
 Frequencies --   1538.8927              1639.9957              1717.4924
 Red. masses --      1.1441                 1.0699                 1.0214
 Frc consts  --      1.5963                 1.6955                 1.7751
 IR Inten    --    218.0718                49.1663                34.3415

                     10                     11                     12
                      A                      A                      A
 Frequencies --   3495.1093              3599.4946              3767.9130
 Red. masses --      1.0503                 1.0909                 1.0664
 Frc consts  --      7.5596                 8.3277                 8.9204
 IR Inten    --      6.4415                 3.5738                31.6941

 - Thermochemistry -
 -------------------
 Temperature   298.150 Kelvin.  Pressure   1.00000 Atm.
 Atom     1 has atomic number  7 and mass  14.00307

 Molecular mass:    34.02929 amu.
 Principal axes and moments of inertia in atomic units:
                           1         2         3
     Eigenvalues --    10.72415 163.42408 168.19304
           X            0.99955   0.01866  -0.02350
           Y           -0.01869   0.99982  -0.00096
           Z            0.02348   0.00140   0.99972
 This molecule is an asymmetric top.
 Rotational symmetry number  1.
 Rotational temperatures (Kelvin)      8.07653     0.52999     0.51497
 Rotational constants (GHZ):         168.28752    11.04330    10.73018
    1 imaginary frequencies ignored.
 Zero-point vibrational energy     111974.6 (Joules/Mol)
                                   26.76257 (Kcal/Mol)
 Warning -- explicit consideration of   3 degrees of freedom as
           vibrations may cause significant error
 Vibrational temperatures:    345.04   620.99   771.33  1213.83  1310.17
          (Kelvin)           2214.12  2359.59  2471.09  5028.68  5178.87
                             5421.19

 Zero-point correction=                           0.042649 (Hartree/Particle)
 Thermal correction to Energy=                    0.046588
 Thermal correction to Enthalpy=                  0.047533
 Thermal correction to Gibbs Free Energy=         0.018189
 Sum of electronic and zero-point Energies=           -132.079215
 Sum of electronic and thermal Energies=              -132.075275
 Sum of electronic and thermal Enthalpies=            -132.074331
 Sum of electronic and thermal Free Energies=         -132.103675

                     E (Thermal)             CV                S
                      KCal/Mol        Cal/Mol-Kelvin    Cal/Mol-Kelvin
 Total                   29.235             11.525             61.759
 Electronic               0.000              0.000              1.377
 Translational            0.889              2.981             36.505
 Rotational               0.889              2.981             20.316
 Vibrational             27.457              5.564              3.561
 Vibration     1          0.657              1.780              1.804
 Vibration     2          0.793              1.401              0.853
 Vibration     3          0.891              1.170              0.574

 Optimization completed.
    -- Stationary point found.
 Normal termination of Gaussian 16 at Fri Oct  9 11:00:57 2020.
