 Gaussian 16, Revision A.03,

 ----------------------------------------------------------------------
 #P Opt(TS,MaxCyc=50,NoEigenTest,MaxStep=10,AddRedundant) PBE1PBE/6-31G
 * 5D 7F Integral=UltraFineGrid SCF=(NoSymm,XQC,MaxCyc=120) IOp(1/33=1)
 ----------------------------------------------------------------------

 TstMul:  Mul=     2
 TstMul:  ICh=     0
 TstMul:  Mul=     2
 Symbolic Z-matrix:
 Charge =  0 Multiplicity = 2

 SCF Done:  E(UPBE1PBE) =  -500.410972211     A.U. after   14 cycles
 SCF Done:  E(UPBE1PBE) =  -500.411637762     A.U. after   13 cycles
 SCF Done:  E(UPBE1PBE) =  -500.411015212     A.U. after   13 cycles
 SCF Done:  E(UPBE1PBE) =  -500.410414388     A.U. after   13 cycles
 SCF Done:  E(UPBE1PBE) =  -500.409926333     A.U. after   13 cycles
 SCF Done:  E(UPBE1PBE) =  -500.409655231     A.U. after   13 cycles
 SCF Done:  E(UPBE1PBE) =  -500.409301863     A.U. after   12 cycles
 SCF Done:  E(UPBE1PBE) =  -500.409088243     A.U. after   12 cycles
 SCF Done:  E(UPBE1PBE) =  -500.409033138     A.U. after   12 cycles
 SCF Done:  E(UPBE1PBE) =  -500.409071878     A.U. after    9 cycles
 SCF Done:  E(UPBE1PBE) =  -500.409132930     A.U. after   12 cycles
 SCF Done:  E(UPBE1PBE) =  -500.409210484     A.U. after   11 cycles
 SCF Done:  E(UPBE1PBE) =  -500.409226409     A.U. after   12 cycles
 SCF Done:  E(UPBE1PBE) =  -500.409231475     A.U. after   10 cycles
 SCF Done:  E(UPBE1PBE) =  -500.409232295     A.U. after    9 cycles
 Optimization completed.
    -- Stationary point found.
 Normal termination of Gaussian 16 at Wed Oct  7 13:44:59 2020.
 Gaussian 16:  ES64L-G16RevA.03 25-Dec-2016

 ----------------------------------------------------------------------
 #P Freq PBE1PBE/6-31G* 5D 7F Integral=UltraFineGrid SCF=(NoSymm,XQC,Ma
 xCyc=120) IOp(1/33=1) Geom=Check Guess=Read
 ----------------------------------------------------------------------

 TstMul:  Mul=     2
 TstMul:  ICh=     0
 TstMul:  Mul=     2
 Structure from the checkpoint file:  "MN_84_RKT08_BH76_PBE0_631Gs.chk"
 Charge =  0 Multiplicity = 2

                         Standard orientation:
 ---------------------------------------------------------------------
 Center     Atomic      Atomic             Coordinates (Angstroms)
 Number     Number       Type             X           Y           Z
 ---------------------------------------------------------------------
      1          6           0        1.942163   -0.000038    0.000066
      2          1           0        2.094575   -0.660770   -0.847873
      3          1           0        2.092671   -0.403780    0.996627
      4          1           0        2.091363    1.065149   -0.148177
      5          1           0        0.295178    0.001062   -0.001175
      6         17           0       -1.072163   -0.000084    0.000012
 ---------------------------------------------------------------------

 SCF Done:  E(UPBE1PBE) =  -500.409232295     A.U. after    1 cycles

 The electronic state is 2-A.
 Alpha  occ. eigenvalues -- -101.67767 -10.27858  -9.50987  -7.24677  -7.23505
 Alpha  occ. eigenvalues --   -7.23505  -0.84293  -0.75048  -0.47808  -0.46712
 Alpha  occ. eigenvalues --   -0.46710  -0.32048  -0.32048  -0.28558
 Alpha virt. eigenvalues --    0.09726   0.11711   0.16080   0.16081   0.40815
 Alpha virt. eigenvalues --    0.44710   0.44717   0.44852   0.54684   0.55301
 Alpha virt. eigenvalues --    0.55308   0.83061   0.86982   0.86985   0.89664

  Beta  occ. eigenvalues -- -101.67583 -10.26482  -9.50807  -7.24077  -7.23397
  Beta  occ. eigenvalues --   -7.23397  -0.82960  -0.71079  -0.45732  -0.45730
  Beta  occ. eigenvalues --   -0.45248  -0.31666  -0.31666
  Beta virt. eigenvalues --   -0.12289   0.11308   0.14551   0.16774   0.16775
  Beta virt. eigenvalues --    0.41748   0.45105   0.45111   0.46741   0.56007
  Beta virt. eigenvalues --    0.56013   0.60301   0.85139   0.88362   0.88367

 Mulliken charges and spin densities:
               1          2
     1  C   -0.598299   0.945477
     2  H    0.231901  -0.038556
     3  H    0.231946  -0.038553
     4  H    0.231964  -0.038492
     5  H    0.130832  -0.036469
     6  Cl  -0.228344   0.206593
 Sum of Mulliken charges =   0.00000   1.00000

 Dipole moment (field-independent basis, Debye):
    X=              3.0436    Y=              0.0014    Z=             -0.0006  Tot=              3.0436
 Quadrupole moment (field-independent basis, Debye-Ang):
   XX=            -19.1924   YY=            -20.8457   ZZ=            -20.8459
   XY=             -0.0008   XZ=             -0.0019   YZ=             -0.0000

  Exact polarizability:  38.404  -0.007  17.483  -0.006  -0.000  17.482
 Approx polarizability:  44.748  -0.007  20.746  -0.010  -0.000  20.744

 ******    1 imaginary frequencies (negative Signs) ******

                      1                      2                      3
                      A                      A                      A
 Frequencies --   -202.6844               324.2133               324.6823
 Red. masses --      6.2037                 1.0305                 1.0305
 Frc consts  --      0.1502                 0.0638                 0.0640
 IR Inten    --     13.7217                 2.0043                 2.0112

                      4                      5                      6
                      A                      A                      A
 Frequencies --    727.8671               727.9896               837.9191
 Red. masses --      1.0408                 1.0409                 1.1035
 Frc consts  --      0.3249                 0.3250                 0.4565
 IR Inten    --     25.3578                25.4086                81.7192

                      7                      8                      9
                      A                      A                      A
 Frequencies --   1431.9737              1432.0555              1702.5285
 Red. masses --      1.0954                 1.0954                 1.0932
 Frc consts  --      1.3234                 1.3235                 1.8670
 IR Inten    --      5.7932                 5.7924               305.2731

                     10                     11                     12
                      A                      A                      A
 Frequencies --   3141.9307              3318.4851              3318.7493
 Red. masses --      1.0112                 1.1165                 1.1165
 Frc consts  --      5.8815                 7.2441                 7.2453
 IR Inten    --      2.1152                 0.0895                 0.0899

 - Thermochemistry -
 -------------------
 Temperature   298.150 Kelvin.  Pressure   1.00000 Atm.
 Atom     1 has atomic number  6 and mass  12.00000

 Molecular mass:    51.00015 amu.
 Principal axes and moments of inertia in atomic units:
                           1         2         3
     Eigenvalues --    12.48248 355.03333 355.03365
           X            1.00000  -0.00001  -0.00001
           Y            0.00001   1.00000   0.00021
           Z            0.00001  -0.00021   1.00000
 This molecule is an asymmetric top.
 Rotational symmetry number  1.
 Rotational temperatures (Kelvin)      6.93884     0.24396     0.24396
 Rotational constants (GHZ):         144.58193     5.08330     5.08330
    1 imaginary frequencies ignored.
 Zero-point vibrational energy     103407.6 (Joules/Mol)
                                   24.71500 (Kcal/Mol)
 Warning -- explicit consideration of   2 degrees of freedom as
           vibrations may cause significant error
 Vibrational temperatures:    466.47   467.15  1047.24  1047.41  1205.58
          (Kelvin)           2060.29  2060.41  2449.56  4520.54  4774.56
                             4774.94

 Zero-point correction=                           0.039386 (Hartree/Particle)
 Thermal correction to Energy=                    0.043286
 Thermal correction to Enthalpy=                  0.044231
 Thermal correction to Gibbs Free Energy=         0.013628
 Sum of electronic and zero-point Energies=           -500.369846
 Sum of electronic and thermal Energies=              -500.365946
 Sum of electronic and thermal Enthalpies=            -500.365002
 Sum of electronic and thermal Free Energies=         -500.395604

                     E (Thermal)             CV                S
                      KCal/Mol        Cal/Mol-Kelvin    Cal/Mol-Kelvin
 Total                   27.163             11.585             64.408
 Electronic               0.000              0.000              1.377
 Translational            0.889              2.981             37.711
 Rotational               0.889              2.981             21.980
 Vibrational             25.385              5.623              3.339
 Vibration     1          0.709              1.627              1.289
 Vibration     2          0.709              1.626              1.286

                           ! Non-Optimized Parameters !
 Normal termination of Gaussian 16 at Wed Oct  7 13:45:28 2020.
