 Gaussian 16, Revision A.03,

 ----------------------------------------------------------------------
 #P Opt(TS,MaxCyc=50,NoEigenTest,MaxStep=10,AddRedundant) PBE1PBE/6-31G
 * 5D 7F Integral=UltraFineGrid SCF=(NoSymm,XQC,MaxCyc=120) IOp(1/33=1)
 ----------------------------------------------------------------------

 TstMul:  Mul=     2
 TstMul:  ICh=     0
 TstMul:  Mul=     2
 Symbolic Z-matrix:
 Charge =  0 Multiplicity = 2

 SCF Done:  E(UPBE1PBE) =  -40.9343944672     A.U. after   13 cycles
 SCF Done:  E(UPBE1PBE) =  -40.9345980034     A.U. after   11 cycles
 SCF Done:  E(UPBE1PBE) =  -40.9342387686     A.U. after   12 cycles
 SCF Done:  E(UPBE1PBE) =  -40.9340679961     A.U. after   12 cycles
 SCF Done:  E(UPBE1PBE) =  -40.9341013191     A.U. after    8 cycles
 SCF Done:  E(UPBE1PBE) =  -40.9341123269     A.U. after    9 cycles
 SCF Done:  E(UPBE1PBE) =  -40.9341128889     A.U. after    9 cycles
 Optimization completed.
    -- Stationary point found.
 Normal termination of Gaussian 16 at Wed Oct  7 13:43:15 2020.
 Gaussian 16:  ES64L-G16RevA.03 25-Dec-2016

 ----------------------------------------------------------------------
 #P Freq PBE1PBE/6-31G* 5D 7F Integral=UltraFineGrid SCF=(NoSymm,XQC,Ma
 xCyc=120) IOp(1/33=1) Geom=Check Guess=Read
 ----------------------------------------------------------------------

 TstMul:  Mul=     2
 TstMul:  ICh=     0
 TstMul:  Mul=     2
 Structure from the checkpoint file:  "MN_80_RKT03_BH76_PBE0_631Gs.chk"
 Charge =  0 Multiplicity = 2

                         Standard orientation:
 ---------------------------------------------------------------------
 Center     Atomic      Atomic             Coordinates (Angstroms)
 Number     Number       Type             X           Y           Z
 ---------------------------------------------------------------------
      1          6           0        0.000000    0.278494    0.000000
      2          1           0        1.061677    0.514955    0.000000
      3          1           0       -0.531107    0.514037    0.919543
      4          1           0       -0.531107    0.514037   -0.919543
      5          1           0        0.000011   -1.169671    0.000000
      6          1           0        0.000526   -2.044324    0.000000
 ---------------------------------------------------------------------

 SCF Done:  E(UPBE1PBE) =  -40.9341128889     A.U. after    1 cycles

 The electronic state is 2-A'.
 Alpha  occ. eigenvalues --  -10.23637  -0.72240  -0.45954  -0.42796  -0.42794
 Alpha  occ. eigenvalues --   -0.22341
 Alpha virt. eigenvalues --    0.12798   0.18313   0.18313   0.20684   0.54374
 Alpha virt. eigenvalues --    0.54375   0.57485   0.71149   0.92144   0.92147
 Alpha virt. eigenvalues --    0.94948   1.03779   1.21637   1.64136   1.64136

  Beta  occ. eigenvalues --  -10.22370  -0.68982  -0.41935  -0.41933  -0.41462
  Beta virt. eigenvalues --   -0.05935   0.13820   0.19050   0.19050   0.24445
  Beta virt. eigenvalues --    0.54981   0.54981   0.63369   0.74812   0.92918
  Beta virt. eigenvalues --    0.92921   0.97080   1.04950   1.24487   1.68937

 Mulliken charges and spin densities:
               1          2
     1  C   -0.602561   0.784928
     2  H    0.203484  -0.028709
     3  H    0.203488  -0.028701
     4  H    0.203488  -0.028701
     5  H   -0.012935  -0.170091
     6  H    0.005035   0.471274
 Sum of Mulliken charges =   0.00000   1.00000

 Dipole moment (field-independent basis, Debye):
    X=             -0.0003    Y=              0.7253    Z=              0.0000  Tot=              0.7253
 Quadrupole moment (field-independent basis, Debye-Ang):
   XX=             -9.2008   YY=            -11.1573   ZZ=             -9.2012
   XY=              0.0011   XZ=              0.0000   YZ=              0.0000

  Exact polarizability:  12.230  -0.003  28.062  -0.000   0.000  12.230
 Approx polarizability:  13.863  -0.003  31.697  -0.000   0.000  13.863

 ******    1 imaginary frequencies (negative Signs) ******

                      1                      2                      3
                     A'                     A'                     A"
 Frequencies --  -1088.1667               562.0815               562.2693
 Red. masses --      1.1848                 1.0467                 1.0467
 Frc consts  --      0.8266                 0.1948                 0.1950
 IR Inten    --      5.5644                 2.0480                 2.0505

                      4                      5                      6
                     A'                     A'                     A"
 Frequencies --   1054.6407              1157.5858              1157.5998
 Red. masses --      1.0801                 1.0421                 1.0422
 Frc consts  --      0.7078                 0.8228                 0.8228
 IR Inten    --     11.7717                 0.4641                 0.4678

                      7                      8                      9
                     A"                     A'                     A'
 Frequencies --   1451.1244              1451.1753              2069.6065
 Red. masses --      1.0785                 1.0785                 1.0568
 Frc consts  --      1.3380                 1.3381                 2.6670
 IR Inten    --      4.6770                 4.6736                34.2235

                     10                     11                     12
                     A'                     A"                     A'
 Frequencies --   3127.1858              3282.7531              3282.9492
 Red. masses --      1.0163                 1.1131                 1.1131
 Frc consts  --      5.8556                 7.0676                 7.0685
 IR Inten    --      0.1047                 7.4949                 7.4858

 - Thermochemistry -
 -------------------
 Temperature   298.150 Kelvin.  Pressure   1.00000 Atm.
 Atom     1 has atomic number  6 and mass  12.00000

 Molecular mass:    17.03913 amu.
 Principal axes and moments of inertia in atomic units:
                           1         2         3
     Eigenvalues --    12.17338  31.65537  31.65605
           X           -0.00007   1.00000   0.00000
           Y            1.00000   0.00007   0.00000
           Z            0.00000   0.00000   1.00000
 This molecule is an asymmetric top.
 Rotational symmetry number  1.
 Rotational temperatures (Kelvin)      7.11503     2.73615     2.73609
 Rotational constants (GHZ):         148.25309    57.01216    57.01094
    1 imaginary frequencies ignored.
 Zero-point vibrational energy     114596.1 (Joules/Mol)
                                   27.38912 (Kcal/Mol)
 Warning -- explicit consideration of   2 degrees of freedom as
           vibrations may cause significant error
 Vibrational temperatures:    808.71   808.98  1517.39  1665.51  1665.53
          (Kelvin)           2087.84  2087.92  2977.70  4499.32  4723.15
                             4723.43

 Zero-point correction=                           0.043647 (Hartree/Particle)
 Thermal correction to Energy=                    0.046926
 Thermal correction to Enthalpy=                  0.047870
 Thermal correction to Gibbs Free Energy=         0.022111
 Sum of electronic and zero-point Energies=            -40.890466
 Sum of electronic and thermal Energies=               -40.887187
 Sum of electronic and thermal Enthalpies=             -40.886243
 Sum of electronic and thermal Free Energies=          -40.912002

                     E (Thermal)             CV                S
                      KCal/Mol        Cal/Mol-Kelvin    Cal/Mol-Kelvin
 Total                   29.446              9.164             54.215
 Electronic               0.000              0.000              1.377
 Translational            0.889              2.981             34.443
 Rotational               0.889              2.981             17.152
 Vibrational             27.669              3.203              1.242
 Vibration     1          0.918              1.113              0.520
 Vibration     2          0.918              1.113              0.519

 Optimization completed.
    -- Stationary point found.
 Normal termination of Gaussian 16 at Wed Oct  7 13:43:43 2020.
