 Gaussian 16, Revision A.03,

 ----------------------------------------------------------------------
 #P Opt(TS,MaxCyc=150,NoEigenTest,MaxStep=10,AddRedundant) PBE1PBE/6-31
 G* 5D 7F Integral=UltraFineGrid SCF=(NoSymm,XQC,MaxCyc=120) IOp(1/33=1
 )
 ----------------------------------------------------------------------

 TstMul:  Mul=     2
 TstMul:  ICh=     0
 TstMul:  Mul=     2
 Symbolic Z-matrix:
 Charge =  0 Multiplicity = 2

 SCF Done:  E(UPBE1PBE) =  -155.357718937     A.U. after   17 cycles
 SCF Done:  E(UPBE1PBE) =  -155.357723520     A.U. after   14 cycles
 SCF Done:  E(UPBE1PBE) =  -155.357725306     A.U. after   11 cycles
 SCF Done:  E(UPBE1PBE) =  -155.357860889     A.U. after   16 cycles
 SCF Done:  E(UPBE1PBE) =  -155.357966698     A.U. after   18 cycles
 SCF Done:  E(UPBE1PBE) =  -155.358014662     A.U. after   17 cycles
 SCF Done:  E(UPBE1PBE) =  -155.358036802     A.U. after   15 cycles
 SCF Done:  E(UPBE1PBE) =  -155.358047614     A.U. after   14 cycles
 SCF Done:  E(UPBE1PBE) =  -155.358062634     A.U. after   19 cycles
 SCF Done:  E(UPBE1PBE) =  -155.358065022     A.U. after   13 cycles
 SCF Done:  E(UPBE1PBE) =  -155.358065769     A.U. after   12 cycles
 SCF Done:  E(UPBE1PBE) =  -155.358065932     A.U. after   11 cycles
 SCF Done:  E(UPBE1PBE) =  -155.358065734     A.U. after   11 cycles
 SCF Done:  E(UPBE1PBE) =  -155.358007867     A.U. after   20 cycles
 SCF Done:  E(UPBE1PBE) =  -155.358059604     A.U. after   19 cycles
 SCF Done:  E(UPBE1PBE) =  -155.358065416     A.U. after   14 cycles
 SCF Done:  E(UPBE1PBE) =  -155.358066045     A.U. after   12 cycles
 SCF Done:  E(UPBE1PBE) =  -155.358066098     A.U. after   10 cycles
 Optimization completed.
    -- Stationary point found.
 Normal termination of Gaussian 16 at Wed Oct  7 13:47:23 2020.
 Gaussian 16:  ES64L-G16RevA.03 25-Dec-2016

 ----------------------------------------------------------------------
 #P Freq PBE1PBE/6-31G* 5D 7F Integral=UltraFineGrid SCF=(NoSymm,XQC,Ma
 xCyc=120) IOp(1/33=1) Geom=Check Guess=Read
 ----------------------------------------------------------------------

 TstMul:  Mul=     2
 TstMul:  ICh=     0
 TstMul:  Mul=     2
 Structure from the checkpoint file:  "MN_85_RKT09_BH76_PBE0_631Gs.chk"
 Charge =  0 Multiplicity = 2

                         Standard orientation:
 ---------------------------------------------------------------------
 Center     Atomic      Atomic             Coordinates (Angstroms)
 Number     Number       Type             X           Y           Z
 ---------------------------------------------------------------------
      1          6           0        1.441952   -0.457036    0.020618
      2          6           0        0.474621    0.698771   -0.017605
      3          8           0       -1.860487   -0.265207   -0.095670
      4          1           0        1.232499   -1.126542    0.861085
      5          1           0        1.395314   -1.047177   -0.899960
      6          1           0        2.473404   -0.096040    0.132566
      7          1           0        0.445839    1.287354    0.904212
      8          1           0        0.588819    1.356243   -0.884477
      9          1           0       -0.642229    0.244609   -0.157501
     10          1           0       -2.109189    0.052802    0.791359
 ---------------------------------------------------------------------

 SCF Done:  E(UPBE1PBE) =  -155.358066098     A.U. after    1 cycles

 The electronic state is 2-A.
 Alpha  occ. eigenvalues --  -19.22845 -10.23964 -10.22251  -1.00484  -0.79213
 Alpha  occ. eigenvalues --   -0.64734  -0.50089  -0.46500  -0.43831  -0.41096
 Alpha  occ. eigenvalues --   -0.39235  -0.36702  -0.30599  -0.27698
 Alpha virt. eigenvalues --    0.09790   0.13119   0.15934   0.16311   0.18130
 Alpha virt. eigenvalues --    0.19781   0.24148   0.30516   0.51072   0.54510
 Alpha virt. eigenvalues --    0.56164   0.62457   0.64578   0.68975   0.83424

  Beta  occ. eigenvalues --  -19.20992 -10.23184 -10.22270  -0.95537  -0.78074
  Beta  occ. eigenvalues --   -0.63429  -0.47067  -0.45951  -0.42339  -0.39444
  Beta  occ. eigenvalues --   -0.36482  -0.35625  -0.28762
  Beta virt. eigenvalues --   -0.10888   0.10322   0.13531   0.16340   0.16649
  Beta virt. eigenvalues --    0.18426   0.20131   0.24726   0.32777   0.51414
  Beta virt. eigenvalues --    0.54751   0.56941   0.64885   0.65205   0.69489

 Mulliken charges and spin densities:
               1          2
     1  C   -0.518763  -0.019588
     2  C   -0.542514   0.439359
     3  O   -0.631111   0.664968
     4  H    0.187664   0.004415
     5  H    0.193661   0.003226
     6  H    0.185052   0.025544
     7  H    0.185872  -0.013921
     8  H    0.200219  -0.008431
     9  H    0.337129  -0.077528
    10  H    0.402789  -0.018043
 Sum of Mulliken charges =   0.00000   1.00000

 Dipole moment (field-independent basis, Debye):
    X=              1.2123    Y=              0.9434    Z=              1.4061  Tot=              2.0825
 Quadrupole moment (field-independent basis, Debye-Ang):
   XX=            -21.3593   YY=            -20.8835   ZZ=            -19.1287
   XY=             -1.2580   XZ=             -3.4738   YZ=              0.1385

  Exact polarizability:  49.613   4.745  27.440  -1.508   0.676  26.924
 Approx polarizability:  56.899   8.088  33.441  -0.732   1.541  34.324

 ******    1 imaginary frequencies (negative Signs) ******

                      1                      2                      3
                      A                      A                      A
 Frequencies --   -872.7015                58.4273               110.3384
 Red. masses --      1.3027                 1.0719                 2.8117
 Frc consts  --      0.5846                 0.0022                 0.0202
 IR Inten    --    730.8657                93.0690                12.9113

                      4                      5                      6
                      A                      A                      A
 Frequencies --    175.3240               391.8565               759.3219
 Red. masses --      1.1143                 1.1004                 1.2995
 Frc consts  --      0.0202                 0.0996                 0.4415
 IR Inten    --      4.5765                 5.7148                27.1220

                      7                      8                      9
                      A                      A                      A
 Frequencies --    802.3148               869.4687               977.6676
 Red. masses --      1.2383                 1.1964                 1.3629
 Frc consts  --      0.4697                 0.5329                 0.7675
 IR Inten    --     48.1020                89.0764               412.9456

                     10                     11                     12
                      A                      A                      A
 Frequencies --   1056.1485              1152.8403              1243.8094
 Red. masses --      2.5167                 1.3757                 1.3991
 Frc consts  --      1.6540                 1.0772                 1.2753
 IR Inten    --      3.7370                 6.4178                 1.4198

                     13                     14                     15
                      A                      A                      A
 Frequencies --   1309.9101              1430.2053              1470.7350
 Red. masses --      1.1941                 1.2187                 1.0296
 Frc consts  --      1.2072                 1.4687                 1.3122
 IR Inten    --     12.4842                 3.2775                16.5919

                     16                     17                     18
                      A                      A                      A
 Frequencies --   1495.0933              1514.2812              1522.7696
 Red. masses --      1.1336                 1.0401                 1.0487
 Frc consts  --      1.4929                 1.4052                 1.4328
 IR Inten    --      6.8589                 9.2397                 4.7108

                     19                     20                     21
                      A                      A                      A
 Frequencies --   3061.3720              3109.5007              3136.1572
 Red. masses --      1.0410                 1.0573                 1.0936
 Frc consts  --      5.7482                 6.0234                 6.3373
 IR Inten    --     14.4759                12.4796                20.7231

                     22                     23                     24
                      A                      A                      A
 Frequencies --   3157.7553              3187.1574              3742.3837
 Red. masses --      1.1035                 1.1074                 1.0667
 Frc consts  --      6.4829                 6.6277                 8.8018
 IR Inten    --      4.3832                29.5863                19.9868

 - Thermochemistry -
 -------------------
 Temperature   298.150 Kelvin.  Pressure   1.00000 Atm.
 Atom     1 has atomic number  6 and mass  12.00000

 Molecular mass:    47.04969 amu.
 Principal axes and moments of inertia in atomic units:
                           1         2         3
     Eigenvalues --    69.23373 363.98453 404.86576
           X            0.99960  -0.02329  -0.01577
           Y            0.02325   0.99973  -0.00272
           Z            0.01583   0.00235   0.99987
 This molecule is an asymmetric top.
 Rotational symmetry number  1.
 Rotational temperatures (Kelvin)      1.25104     0.23796     0.21393
 Rotational constants (GHZ):          26.06737     4.95829     4.45763
    1 imaginary frequencies ignored.
 Zero-point vibrational energy     213741.8 (Joules/Mol)
                                   51.08552 (Kcal/Mol)
 Warning -- explicit consideration of   4 degrees of freedom as
           vibrations may cause significant error
 Vibrational temperatures:     84.06   158.75   252.25   563.79  1092.49
          (Kelvin)           1154.35  1250.97  1406.65  1519.56  1658.68
                             1789.56  1884.67  2057.75  2116.06  2151.11
                             2178.71  2190.93  4404.63  4473.88  4512.23
                             4543.31  4585.61  5384.46

 Zero-point correction=                           0.081410 (Hartree/Particle)
 Thermal correction to Energy=                    0.087063
 Thermal correction to Enthalpy=                  0.088007
 Thermal correction to Gibbs Free Energy=         0.052474
 Sum of electronic and zero-point Energies=           -155.276656
 Sum of electronic and thermal Energies=              -155.271003
 Sum of electronic and thermal Enthalpies=            -155.270059
 Sum of electronic and thermal Free Energies=         -155.305592

                     E (Thermal)             CV                S
                      KCal/Mol        Cal/Mol-Kelvin    Cal/Mol-Kelvin
 Total                   54.633             16.824             74.786
 Electronic               0.000              0.000              1.377
 Translational            0.889              2.981             37.471
 Rotational               0.889              2.981             23.838
 Vibrational             52.855             10.862             12.100
 Vibration     1          0.596              1.974              4.510
 Vibration     2          0.606              1.941              3.263
 Vibration     3          0.627              1.873              2.378
 Vibration     4          0.759              1.488              0.993

 Optimization completed.
    -- Stationary point found.
 Normal termination of Gaussian 16 at Wed Oct  7 13:48:09 2020.
