 Gaussian 16, Revision A.03,

 ----------------------------------------------------------------------
 #P Opt(TS,MaxCyc=50,NoEigenTest,MaxStep=10,AddRedundant) PBE1PBE/6-31G
 * 5D 7F Integral=UltraFineGrid SCF=(NoSymm,XQC,MaxCyc=120) IOp(1/33=1)
 ----------------------------------------------------------------------

 TstMul:  Mul=     3
 TstMul:  ICh=     0
 TstMul:  Mul=     3
 Symbolic Z-matrix:
 Charge =  0 Multiplicity = 3

 SCF Done:  E(UPBE1PBE) =  -134.846202130     A.U. after   15 cycles
 SCF Done:  E(UPBE1PBE) =  -134.846423768     A.U. after   13 cycles
 SCF Done:  E(UPBE1PBE) =  -134.847264173     A.U. after   16 cycles
 SCF Done:  E(UPBE1PBE) =  -134.847806626     A.U. after   16 cycles
 SCF Done:  E(UPBE1PBE) =  -134.847844161     A.U. after   13 cycles
 SCF Done:  E(UPBE1PBE) =  -134.848444104     A.U. after   14 cycles
 SCF Done:  E(UPBE1PBE) =  -134.847627373     A.U. after   14 cycles
 SCF Done:  E(UPBE1PBE) =  -134.847208618     A.U. after   16 cycles
 SCF Done:  E(UPBE1PBE) =  -134.847187504     A.U. after   16 cycles
 SCF Done:  E(UPBE1PBE) =  -134.847205652     A.U. after   14 cycles
 SCF Done:  E(UPBE1PBE) =  -134.847221687     A.U. after   14 cycles
 SCF Done:  E(UPBE1PBE) =  -134.847223846     A.U. after   11 cycles
 SCF Done:  E(UPBE1PBE) =  -134.847227100     A.U. after   14 cycles
 SCF Done:  E(UPBE1PBE) =  -134.847227687     A.U. after   13 cycles
 SCF Done:  E(UPBE1PBE) =  -134.847227738     A.U. after    9 cycles
 Optimization completed.
    -- Stationary point found.
 Normal termination of Gaussian 16 at Wed Oct  7 13:46:31 2020.
 Gaussian 16:  ES64L-G16RevA.03 25-Dec-2016

 ----------------------------------------------------------------------
 #P Freq PBE1PBE/6-31G* 5D 7F Integral=UltraFineGrid SCF=(NoSymm,XQC,Ma
 xCyc=120) IOp(1/33=1) Geom=Check Guess=Read
 ----------------------------------------------------------------------

 TstMul:  Mul=     3
 TstMul:  ICh=     0
 TstMul:  Mul=     3
 Structure from the checkpoint file:  "MN_93_RKT19_BH76_PBE0_631Gs.chk"
 Charge =  0 Multiplicity = 3

                         Standard orientation:
 ---------------------------------------------------------------------
 Center     Atomic      Atomic             Coordinates (Angstroms)
 Number     Number       Type             X           Y           Z
 ---------------------------------------------------------------------
      1          6           0       -1.416390   -0.434593   -0.000734
      2          6           0       -0.434567    0.700766    0.000800
      3          7           0        1.948405   -0.371430    0.001303
      4          1           0       -1.297008   -1.067390   -0.886642
      5          1           0       -1.298552   -1.068471    0.884588
      6          1           0       -2.452097   -0.063026   -0.001468
      7          1           0       -0.405240    1.309113   -0.905797
      8          1           0       -0.405857    1.307357    0.908604
      9          1           0        0.828899    0.076247    0.001883
     10          1           0        2.496763    0.509144   -0.010684
 ---------------------------------------------------------------------

 SCF Done:  E(UPBE1PBE) =  -134.847227738     A.U. after    1 cycles

 The electronic state is 3-A.
 Alpha  occ. eigenvalues --  -14.42053 -10.23899 -10.22142  -0.86376  -0.78382
 Alpha  occ. eigenvalues --   -0.63735  -0.48231  -0.46420  -0.41561  -0.39813
 Alpha  occ. eigenvalues --   -0.36707  -0.35479  -0.32198  -0.22565
 Alpha virt. eigenvalues --    0.10789   0.13374   0.15770   0.16158   0.18071
 Alpha virt. eigenvalues --    0.20465   0.24967   0.30029   0.50195   0.53940
 Alpha virt. eigenvalues --    0.56327   0.60511   0.62608   0.68857   0.72981

  Beta  occ. eigenvalues --  -14.38960 -10.22758 -10.22187  -0.78861  -0.75676
  Beta  occ. eigenvalues --   -0.61903  -0.45868  -0.44960  -0.39812  -0.39056
  Beta  occ. eigenvalues --   -0.36331  -0.29975
  Beta virt. eigenvalues --   -0.06527  -0.06415   0.11643   0.14360   0.16456
  Beta virt. eigenvalues --    0.16672   0.18455   0.21064   0.25772   0.33305
  Beta virt. eigenvalues --    0.50864   0.54962   0.56984   0.64835   0.65882

 Mulliken charges and spin densities:
               1          2
     1  C   -0.518779  -0.041166
     2  C   -0.496449   0.677907
     3  N   -0.539681   1.520257
     4  H    0.190771   0.006887
     5  H    0.190877   0.006838
     6  H    0.187029   0.038714
     7  H    0.190367  -0.023599
     8  H    0.190556  -0.023540
     9  H    0.302989  -0.112805
    10  H    0.302321  -0.049492
 Sum of Mulliken charges =  -0.00000   2.00000

 Dipole moment (field-independent basis, Debye):
    X=             -0.8628    Y=              1.6995    Z=             -0.0165  Tot=              1.9061
 Quadrupole moment (field-independent basis, Debye-Ang):
   XX=            -21.2838   YY=            -21.7441   ZZ=            -20.5045
   XY=              3.9814   XZ=             -0.0430   YZ=              0.0029

  Exact polarizability:  53.908  -3.737  31.743  -0.030  -0.036  25.633
 Approx polarizability:  60.423  -6.804  39.767  -0.029  -0.061  31.648

 ******    1 imaginary frequencies (negative Signs) ******

                      1                      2                      3
                      A                      A                      A
 Frequencies --  -1500.2946                58.4391               137.9002
 Red. masses --      1.1068                 1.0825                 2.8177
 Frc consts  --      1.4678                 0.0022                 0.0316
 IR Inten    --    577.8800                77.6889                 5.6420

                      4                      5                      6
                      A                      A                      A
 Frequencies --    162.4151               466.5840               489.6817
 Red. masses --      1.1013                 1.0687                 2.0680
 Frc consts  --      0.0171                 0.1371                 0.2922
 IR Inten    --      0.8304                 3.2232                 7.7169

                      7                      8                      9
                      A                      A                      A
 Frequencies --    725.9610               836.1488               929.3719
 Red. masses --      1.4127                 1.0490                 1.1508
 Frc consts  --      0.4387                 0.4321                 0.5856
 IR Inten    --     12.0774                 9.1673                44.1326

                     10                     11                     12
                      A                      A                      A
 Frequencies --   1084.5851              1182.9972              1198.2125
 Red. masses --      2.9096                 1.1423                 1.5041
 Frc consts  --      2.0165                 0.9419                 1.2723
 IR Inten    --      1.2620                21.6434                 1.7928

                     13                     14                     15
                      A                      A                      A
 Frequencies --   1244.7969              1427.5999              1486.4161
 Red. masses --      1.2789                 1.2091                 1.1107
 Frc consts  --      1.1676                 1.4519                 1.4459
 IR Inten    --      7.8549                 5.3960                 8.7436

                     16                     17                     18
                      A                      A                      A
 Frequencies --   1502.2763              1514.6121              1517.7777
 Red. masses --      1.0979                 1.0357                 1.0486
 Frc consts  --      1.4599                 1.3999                 1.4232
 IR Inten    --     54.9626                 7.0848                14.9417

                     19                     20                     21
                      A                      A                      A
 Frequencies --   3043.7562              3118.1502              3128.3680
 Red. masses --      1.0455                 1.0824                 1.0605
 Frc consts  --      5.7071                 6.2004                 6.1149
 IR Inten    --     21.1181                 5.2066                27.0766

                     22                     23                     24
                      A                      A                      A
 Frequencies --   3153.6882              3210.8088              3355.9077
 Red. masses --      1.1030                 1.1118                 1.0728
 Frc consts  --      6.4637                 6.7529                 7.1188
 IR Inten    --     10.8669                25.2415                16.5373

 - Thermochemistry -
 -------------------
 Temperature   298.150 Kelvin.  Pressure   1.00000 Atm.
 Atom     1 has atomic number  6 and mass  12.00000

 Molecular mass:    45.05785 amu.
 Principal axes and moments of inertia in atomic units:
                           1         2         3
     Eigenvalues --    68.59032 355.25520 400.70528
           X            0.99924   0.03891  -0.00024
           Y           -0.03891   0.99924  -0.00022
           Z            0.00023   0.00023   1.00000
 This molecule is an asymmetric top.
 Rotational symmetry number  1.
 Rotational temperatures (Kelvin)      1.26277     0.24381     0.21615
 Rotational constants (GHZ):          26.31189     5.08013     4.50391
    1 imaginary frequencies ignored.
 Zero-point vibrational energy     209205.7 (Joules/Mol)
                                   50.00135 (Kcal/Mol)
 Warning -- explicit consideration of   5 degrees of freedom as
           vibrations may cause significant error
 Vibrational temperatures:     84.08   198.41   233.68   671.31   704.54
          (Kelvin)           1044.50  1203.03  1337.16  1560.48  1702.07
                             1723.96  1790.99  2054.00  2138.62  2161.44
                             2179.19  2183.74  4379.29  4486.32  4501.02
                             4537.45  4619.64  4828.40

 Zero-point correction=                           0.079682 (Hartree/Particle)
 Thermal correction to Energy=                    0.085421
 Thermal correction to Enthalpy=                  0.086366
 Thermal correction to Gibbs Free Energy=         0.050520
 Sum of electronic and zero-point Energies=           -134.767546
 Sum of electronic and thermal Energies=              -134.761806
 Sum of electronic and thermal Enthalpies=            -134.760862
 Sum of electronic and thermal Free Energies=         -134.796708

                     E (Thermal)             CV                S
                      KCal/Mol        Cal/Mol-Kelvin    Cal/Mol-Kelvin
 Total                   53.603             17.456             75.444
 Electronic               0.000              0.000              2.183
 Translational            0.889              2.981             37.342
 Rotational               0.889              2.981             23.794
 Vibrational             51.825             11.494             12.125
 Vibration     1          0.596              1.974              4.509
 Vibration     2          0.614              1.915              2.833
 Vibration     3          0.623              1.889              2.521
 Vibration     4          0.824              1.324              0.747
 Vibration     5          0.846              1.273              0.684

                           ! Non-Optimized Parameters !
 Normal termination of Gaussian 16 at Wed Oct  7 13:47:23 2020.
