 Gaussian 16, Revision A.03,

 ----------------------------------------------------------------------
 #P Opt(TS,MaxCyc=50,NoEigenTest,MaxStep=10,AddRedundant) PBE1PBE/6-31G
 * 5D 7F Integral=UltraFineGrid SCF=(NoSymm,XQC,MaxCyc=120) IOp(1/33=1)
 ----------------------------------------------------------------------

 TstMul:  Mul=     3
 TstMul:  ICh=     0
 TstMul:  Mul=     3
 Symbolic Z-matrix:
 Charge =  0 Multiplicity = 3

 SCF Done:  E(UPBE1PBE) =  -95.5795033950     A.U. after   14 cycles
 SCF Done:  E(UPBE1PBE) =  -95.5795221780     A.U. after   10 cycles
 SCF Done:  E(UPBE1PBE) =  -95.5795269918     A.U. after   10 cycles
 SCF Done:  E(UPBE1PBE) =  -95.5794349208     A.U. after   13 cycles
 SCF Done:  E(UPBE1PBE) =  -95.5792386364     A.U. after   13 cycles
 SCF Done:  E(UPBE1PBE) =  -95.5792169311     A.U. after   13 cycles
 SCF Done:  E(UPBE1PBE) =  -95.5792329746     A.U. after   12 cycles
 SCF Done:  E(UPBE1PBE) =  -95.5792332917     A.U. after   11 cycles
 SCF Done:  E(UPBE1PBE) =  -95.5792334139     A.U. after    9 cycles
 SCF Done:  E(UPBE1PBE) =  -95.5792334371     A.U. after    9 cycles
 SCF Done:  E(UPBE1PBE) =  -95.5792334548     A.U. after    9 cycles
 SCF Done:  E(UPBE1PBE) =  -95.5792334660     A.U. after    9 cycles
 SCF Done:  E(UPBE1PBE) =  -95.5792334839     A.U. after    9 cycles
 SCF Done:  E(UPBE1PBE) =  -95.5792334905     A.U. after    8 cycles
 Optimization completed.
    -- Stationary point found.
 Normal termination of Gaussian 16 at Fri Oct  9 11:05:19 2020.
 Gaussian 16:  ES64L-G16RevA.03 25-Dec-2016

 ----------------------------------------------------------------------
 #P Freq PBE1PBE/6-31G* 5D 7F Integral=UltraFineGrid SCF=(NoSymm,XQC,Ma
 xCyc=120) IOp(1/33=1) Geom=Check Guess=Read
 ----------------------------------------------------------------------

 TstMul:  Mul=     3
 TstMul:  ICh=     0
 TstMul:  Mul=     3
 Structure from the checkpoint file:  "MN_92_RKT18_BH76_PBE0_631Gs.chk"
 Charge =  0 Multiplicity = 3

                         Standard orientation:
 ---------------------------------------------------------------------
 Center     Atomic      Atomic             Coordinates (Angstroms)
 Number     Number       Type             X           Y           Z
 ---------------------------------------------------------------------
      1          6           0       -1.212126   -0.012500    0.000004
      2          7           0        1.406925    0.128473    0.000016
      3          1           0       -1.417218   -0.559599    0.918359
      4          1           0       -1.416748   -0.560706   -0.917800
      5          1           0       -1.543277    1.024307   -0.000720
      6          1           0        0.235986    0.167447    0.000038
      7          1           0        1.565540   -0.895759   -0.000015
 ---------------------------------------------------------------------

 SCF Done:  E(UPBE1PBE) =  -95.5792334905     A.U. after    1 cycles

 The electronic state is 3-A.
 Alpha  occ. eigenvalues --  -14.42528 -10.23810  -0.87102  -0.71988  -0.47831
 Alpha  occ. eigenvalues --   -0.43184  -0.43047  -0.36379  -0.32757  -0.24243
 Alpha virt. eigenvalues --    0.10713   0.14017   0.17813   0.17988   0.28726
 Alpha virt. eigenvalues --    0.52231   0.52355   0.56470   0.70602   0.72018
 Alpha virt. eigenvalues --    0.73239   0.85200   0.91611   0.91617   0.92556

  Beta  occ. eigenvalues --  -14.39499 -10.22599  -0.78684  -0.68518  -0.44089
  Beta  occ. eigenvalues --   -0.42281  -0.42012  -0.30657
  Beta virt. eigenvalues --   -0.07448  -0.06964   0.11923   0.15318   0.18573
  Beta virt. eigenvalues --    0.18735   0.32175   0.53205   0.54074   0.62198
  Beta virt. eigenvalues --    0.74175   0.76525   0.80216   0.86857   0.92389

 Mulliken charges and spin densities:
               1          2
     1  C   -0.692842   0.754644
     2  N   -0.545488   1.485320
     3  H    0.201816  -0.027875
     4  H    0.201807  -0.027877
     5  H    0.211035  -0.026346
     6  H    0.318522  -0.109411
     7  H    0.305150  -0.048455
 Sum of Mulliken charges =  -0.00000   2.00000

 Dipole moment (field-independent basis, Debye):
    X=             -1.2419    Y=             -1.4622    Z=             -0.0001  Tot=              1.9184
 Quadrupole moment (field-independent basis, Debye-Ang):
   XX=            -16.6555   YY=            -13.7637   ZZ=            -14.1542
   XY=             -2.8336   XZ=             -0.0003   YZ=             -0.0001

  Exact polarizability:  40.395  -0.637  20.153  -0.001   0.000  16.043
 Approx polarizability:  45.302   0.286  24.255  -0.002   0.000  18.251

 ******    1 imaginary frequencies (negative Signs) ******

                      1                      2                      3
                      A                      A                      A
 Frequencies --  -1266.4218                64.0911               361.0249
 Red. masses --      1.1677                 1.0511                 1.0670
 Frc consts  --      1.1034                 0.0025                 0.0819
 IR Inten    --    441.8377                64.9500                12.8964

                      4                      5                      6
                      A                      A                      A
 Frequencies --    417.8879               593.9712               799.4495
 Red. masses --      1.0789                 2.2723                 1.2072
 Frc consts  --      0.1110                 0.4723                 0.4546
 IR Inten    --      4.9834                 4.9729                24.9102

                      7                      8                      9
                      A                      A                      A
 Frequencies --   1120.7379              1179.5088              1447.1980
 Red. masses --      1.0607                 1.3020                 1.0889
 Frc consts  --      0.7850                 1.0672                 1.3437
 IR Inten    --     48.7489                 8.5375                10.5811

                     10                     11                     12
                      A                      A                      A
 Frequencies --   1451.2262              1533.4265              3120.1699
 Red. masses --      1.0796                 1.0468                 1.0170
 Frc consts  --      1.3397                 1.4502                 5.8336
 IR Inten    --      4.7569               137.5764                 0.3346

                     13                     14                     15
                      A                      A                      A
 Frequencies --   3271.4079              3273.4658              3368.3547
 Red. masses --      1.1123                 1.1122                 1.0726
 Frc consts  --      7.0138                 7.0220                 7.1698
 IR Inten    --      8.1749                 5.0700                15.1310

 - Thermochemistry -
 -------------------
 Temperature   298.150 Kelvin.  Pressure   1.00000 Atm.
 Atom     1 has atomic number  6 and mass  12.00000

 Molecular mass:    31.04220 amu.
 Principal axes and moments of inertia in atomic units:
                           1         2         3
     Eigenvalues --    15.73178 199.41728 203.01507
           X            0.99969  -0.02487  -0.00000
           Y            0.02487   0.99969  -0.00001
           Z            0.00000   0.00001   1.00000
 This molecule is an asymmetric top.
 Rotational symmetry number  1.
 Rotational temperatures (Kelvin)      5.50567     0.43434     0.42664
 Rotational constants (GHZ):         114.71949     9.05007     8.88969
    1 imaginary frequencies ignored.
 Zero-point vibrational energy     131600.7 (Joules/Mol)
                                   31.45332 (Kcal/Mol)
 Warning -- explicit consideration of   4 degrees of freedom as
           vibrations may cause significant error
 Vibrational temperatures:     92.21   519.43   601.25   854.59  1150.23
          (Kelvin)           1612.49  1697.05  2082.20  2087.99  2206.26
                             4489.23  4706.83  4709.79  4846.31

 Zero-point correction=                           0.050124 (Hartree/Particle)
 Thermal correction to Energy=                    0.054703
 Thermal correction to Enthalpy=                  0.055648
 Thermal correction to Gibbs Free Energy=         0.023980
 Sum of electronic and zero-point Energies=            -95.529109
 Sum of electronic and thermal Energies=               -95.524530
 Sum of electronic and thermal Enthalpies=             -95.523586
 Sum of electronic and thermal Free Energies=          -95.555253

                     E (Thermal)             CV                S
                      KCal/Mol        Cal/Mol-Kelvin    Cal/Mol-Kelvin
 Total                   34.327             13.340             66.649
 Electronic               0.000              0.000              2.183
 Translational            0.889              2.981             36.231
 Rotational               0.889              2.981             21.082
 Vibrational             32.549              7.379              7.154
 Vibration     1          0.597              1.971              4.327
 Vibration     2          0.735              1.553              1.118
 Vibration     3          0.781              1.431              0.899
 Vibration     4          0.952              1.045              0.460

 Optimization completed.
    -- Stationary point found.
 Normal termination of Gaussian 16 at Fri Oct  9 11:05:33 2020.
