 Gaussian 16, Revision A.03,

 ----------------------------------------------------------------------
 #P Opt(TS,MaxCyc=50,NoEigenTest,MaxStep=10,AddRedundant) PBE1PBE/6-31G
 * 5D 7F Integral=UltraFineGrid SCF=(NoSymm,XQC,MaxCyc=120) IOp(1/33=1)
 ----------------------------------------------------------------------

 TstMul:  Mul=     1
 TstMul:  ICh=     0
 TstMul:  Mul=     1
 Symbolic Z-matrix:
 Charge =  0 Multiplicity = 1

 SCF Done:  E(RPBE1PBE) =  -194.997695829     A.U. after   12 cycles
 SCF Done:  E(RPBE1PBE) =  -194.997857463     A.U. after    9 cycles
 SCF Done:  E(RPBE1PBE) =  -194.997843589     A.U. after    9 cycles
 SCF Done:  E(RPBE1PBE) =  -194.997803880     A.U. after    9 cycles
 SCF Done:  E(RPBE1PBE) =  -194.997750259     A.U. after   10 cycles
 SCF Done:  E(RPBE1PBE) =  -194.997678752     A.U. after   11 cycles
 SCF Done:  E(RPBE1PBE) =  -194.997794982     A.U. after   12 cycles
 SCF Done:  E(RPBE1PBE) =  -194.997894004     A.U. after   12 cycles
 SCF Done:  E(RPBE1PBE) =  -194.997944037     A.U. after   11 cycles
 SCF Done:  E(RPBE1PBE) =  -194.997948787     A.U. after   12 cycles
 SCF Done:  E(RPBE1PBE) =  -194.997950433     A.U. after    8 cycles
 SCF Done:  E(RPBE1PBE) =  -194.997951272     A.U. after    9 cycles
 Optimization completed.
    -- Stationary point found.
 Normal termination of Gaussian 16 at Wed Oct  7 13:46:41 2020.
 Gaussian 16:  ES64L-G16RevA.03 25-Dec-2016

 ----------------------------------------------------------------------
 #P Freq PBE1PBE/6-31G* 5D 7F Integral=UltraFineGrid SCF=(NoSymm,XQC,Ma
 xCyc=120) IOp(1/33=1) Geom=Check Guess=Read
 ----------------------------------------------------------------------

 TstMul:  Mul=     1
 TstMul:  ICh=     0
 TstMul:  Mul=     1
 Structure from the checkpoint file:  "MN_96_RKT22_BH76_PBE0_631Gs.chk"
 Charge =  0 Multiplicity = 1

                         Standard orientation:
 ---------------------------------------------------------------------
 Center     Atomic      Atomic             Coordinates (Angstroms)
 Number     Number       Type             X           Y           Z
 ---------------------------------------------------------------------
      1          6           0       -1.300759   -0.904602   -0.022005
      2          6           0       -1.206756    0.505860   -0.013552
      3          6           0        0.000126    1.183186    0.154349
      4          6           0        1.206854    0.505650   -0.013230
      5          6           0        1.300504   -0.904820   -0.022316
      6          1           0        2.169967   -1.331375   -0.526423
      7          1           0        1.056367   -1.453338    0.887385
      8          1           0        2.040398    1.089623   -0.403297
      9          1           0        0.000312    2.268628    0.089497
     10          1           0       -2.039951    1.089869   -0.404304
     11          1           0       -2.170519   -1.331263   -0.525532
     12          1           0       -0.000113   -1.190977   -0.504604
     13          1           0       -1.056276   -1.452810    0.887798
 ---------------------------------------------------------------------

 SCF Done:  E(RPBE1PBE) =  -194.997951272     A.U. after    1 cycles

 The electronic state is 1-A.
 Alpha  occ. eigenvalues --  -10.23416 -10.23415 -10.22551 -10.22330 -10.22328
 Alpha  occ. eigenvalues --   -0.84787  -0.75892  -0.70994  -0.60402  -0.54338
 Alpha  occ. eigenvalues --   -0.50785  -0.43480  -0.42353  -0.41921  -0.39867
 Alpha  occ. eigenvalues --   -0.37200  -0.35768  -0.26635  -0.22738
 Alpha virt. eigenvalues --   -0.01491   0.03951   0.10749   0.14040   0.15711
 Alpha virt. eigenvalues --    0.18774   0.20058   0.20548   0.23409   0.24917
 Alpha virt. eigenvalues --    0.29031   0.30896   0.36362   0.43139   0.52387

 Mulliken charges:
               1
     1  C   -0.557825
     2  C   -0.104527
     3  C   -0.171352
     4  C   -0.104514
     5  C   -0.557890
     6  H    0.175251
     7  H    0.212321
     8  H    0.174628
     9  H    0.161893
    10  H    0.174629
    11  H    0.175259
    12  H    0.209791
    13  H    0.212335
 Sum of Mulliken charges =  -0.00000

 Dipole moment (field-independent basis, Debye):
    X=              0.0000    Y=              0.0146    Z=             -0.1594  Tot=              0.1600
 Quadrupole moment (field-independent basis, Debye-Ang):
   XX=            -29.9677   YY=            -29.6289   ZZ=            -33.6195
   XY=              0.0012   XZ=              0.0005   YZ=             -1.4409

  Exact polarizability:  72.906  -0.001  62.305   0.002  -0.544  29.490
 Approx polarizability: 116.486  -0.005  99.069   0.004   3.053  41.779

 ******    1 imaginary frequencies (negative Signs) ******

                      1                      2                      3
                      A                      A                      A
 Frequencies --  -1481.9086               275.4850               474.8839
 Red. masses --      1.2052                 2.1142                 2.2087
 Frc consts  --      1.5594                 0.0945                 0.2935
 IR Inten    --     13.1432                 0.1161                 0.9250

                      4                      5                      6
                      A                      A                      A
 Frequencies --    517.5129               566.3850               625.3136
 Red. masses --      2.6361                 3.5529                 1.3055
 Frc consts  --      0.4160                 0.6715                 0.3008
 IR Inten    --      3.2522                 3.7194                31.9409

                      7                      8                      9
                      A                      A                      A
 Frequencies --    750.6845               806.4189               824.6017
 Red. masses --      1.9819                 1.2412                 1.2503
 Frc consts  --      0.6580                 0.4756                 0.5009
 IR Inten    --     11.7160                 4.3762                47.1564

                     10                     11                     12
                      A                      A                      A
 Frequencies --    987.3667               996.5430              1018.9505
 Red. masses --      1.3058                 1.3136                 1.4988
 Frc consts  --      0.7501                 0.7686                 0.9169
 IR Inten    --      9.6139                 0.5789                19.2803

                     13                     14                     15
                      A                      A                      A
 Frequencies --   1022.0957              1026.1033              1116.6790
 Red. masses --      1.3392                 2.2348                 1.3111
 Frc consts  --      0.8243                 1.3863                 0.9632
 IR Inten    --      0.5564                 1.2949                 3.5833

                     16                     17                     18
                      A                      A                      A
 Frequencies --   1147.5623              1209.3819              1273.7994
 Red. masses --      1.6237                 1.1587                 1.4684
 Frc consts  --      1.2599                 0.9985                 1.4038
 IR Inten    --      1.2860                 3.4908                 7.9479

                     19                     20                     21
                      A                      A                      A
 Frequencies --   1287.4752              1438.8539              1455.6287
 Red. masses --      1.2294                 1.1204                 1.3417
 Frc consts  --      1.2007                 1.3666                 1.6750
 IR Inten    --     12.1189                13.1640                 1.6096

                     22                     23                     24
                      A                      A                      A
 Frequencies --   1501.8074              1542.8975              1571.4713
 Red. masses --      1.0733                 1.4604                 1.5097
 Frc consts  --      1.4262                 2.0484                 2.1965
 IR Inten    --      7.0839                 0.0059                 0.3197

                     25                     26                     27
                      A                      A                      A
 Frequencies --   1594.6014              1632.6446              3136.4808
 Red. masses --      5.4351                 1.7677                 1.0576
 Frc consts  --      8.1426                 2.7762                 6.1300
 IR Inten    --     12.9863                 4.0943                22.3919

                     28                     29                     30
                      A                      A                      A
 Frequencies --   3137.0752              3177.9795              3181.9303
 Red. masses --      1.0577                 1.0879                 1.0923
 Frc consts  --      6.1327                 6.4736                 6.5159
 IR Inten    --     10.3606                 0.5359                 7.4074

                     31                     32                     33
                      A                      A                      A
 Frequencies --   3202.4695              3207.3008              3218.5858
 Red. masses --      1.1115                 1.1077                 1.0953
 Frc consts  --      6.7164                 6.7136                 6.6854
 IR Inten    --     23.3284                11.9789                21.3500

 - Thermochemistry -
 -------------------
 Temperature   298.150 Kelvin.  Pressure   1.00000 Atm.
 Atom     1 has atomic number  6 and mass  12.00000

 Molecular mass:    68.06260 amu.
 Principal axes and moments of inertia in atomic units:
                           1         2         3
     Eigenvalues --   222.76564 352.44804 553.71211
           X            1.00000   0.00002  -0.00000
           Y           -0.00002   0.99976  -0.02180
           Z            0.00000   0.02180   0.99976
 This molecule is an asymmetric top.
 Rotational symmetry number  1.
 Rotational temperatures (Kelvin)      0.38881     0.24575     0.15642
 Rotational constants (GHZ):           8.10152     5.12059     3.25935
    1 imaginary frequencies ignored.
 Zero-point vibrational energy     292648.3 (Joules/Mol)
                                   69.94461 (Kcal/Mol)
 Warning -- explicit consideration of   4 degrees of freedom as
           vibrations may cause significant error
 Vibrational temperatures:    396.36   683.25   744.59   814.90   899.69
          (Kelvin)           1080.07  1160.26  1186.42  1420.60  1433.80
                             1466.04  1470.57  1476.33  1606.65  1651.09
                             1740.03  1832.71  1852.39  2070.19  2094.33
                             2160.77  2219.89  2261.00  2294.28  2349.01
                             4512.70  4513.55  4572.40  4578.09  4607.64
                             4614.59  4630.83

 Zero-point correction=                           0.111464 (Hartree/Particle)
 Thermal correction to Energy=                    0.116064
 Thermal correction to Enthalpy=                  0.117008
 Thermal correction to Gibbs Free Energy=         0.084203
 Sum of electronic and zero-point Energies=           -194.886487
 Sum of electronic and thermal Energies=              -194.881888
 Sum of electronic and thermal Enthalpies=            -194.880943
 Sum of electronic and thermal Free Energies=         -194.913748

                     E (Thermal)             CV                S
                      KCal/Mol        Cal/Mol-Kelvin    Cal/Mol-Kelvin
 Total                   72.831             17.599             69.044
 Electronic               0.000              0.000              0.000
 Translational            0.889              2.981             38.571
 Rotational               0.889              2.981             25.278
 Vibrational             71.054             11.638              5.195
 Vibration     1          0.677              1.719              1.562
 Vibration     2          0.832              1.306              0.724
 Vibration     3          0.873              1.211              0.616
 Vibration     4          0.922              1.104              0.511

 Optimization completed.
    -- Stationary point found.
 Normal termination of Gaussian 16 at Wed Oct  7 13:47:45 2020.
