 Gaussian 16, Revision A.03,

 ----------------------------------------------------------------------
 #P Opt(TS,MaxCyc=50,NoEigenTest,MaxStep=10,AddRedundant) PBE1PBE/6-31G
 * 5D 7F Integral=UltraFineGrid SCF=(NoSymm,XQC,MaxCyc=120) IOp(1/33=1)
 ----------------------------------------------------------------------

 TstMul:  Mul=     2
 TstMul:  ICh=     0
 TstMul:  Mul=     2
 Symbolic Z-matrix:
 Charge =  0 Multiplicity = 2

 SCF Done:  E(UPBE1PBE) =  -399.716048299     A.U. after   14 cycles
 SCF Done:  E(UPBE1PBE) =  -399.716155212     A.U. after   11 cycles
 SCF Done:  E(UPBE1PBE) =  -399.716479552     A.U. after   12 cycles
 SCF Done:  E(UPBE1PBE) =  -399.716480863     A.U. after   11 cycles
 SCF Done:  E(UPBE1PBE) =  -399.715986808     A.U. after   13 cycles
 SCF Done:  E(UPBE1PBE) =  -399.715762583     A.U. after   13 cycles
 SCF Done:  E(UPBE1PBE) =  -399.715715573     A.U. after   12 cycles
 SCF Done:  E(UPBE1PBE) =  -399.715715082     A.U. after    9 cycles
 Optimization completed.
    -- Stationary point found.
 Normal termination of Gaussian 16 at Wed Oct  7 13:43:54 2020.
 Gaussian 16:  ES64L-G16RevA.03 25-Dec-2016

 ----------------------------------------------------------------------
 #P Freq PBE1PBE/6-31G* 5D 7F Integral=UltraFineGrid SCF=(NoSymm,XQC,Ma
 xCyc=120) IOp(1/33=1) Geom=Check Guess=Read
 ----------------------------------------------------------------------

 TstMul:  Mul=     2
 TstMul:  ICh=     0
 TstMul:  Mul=     2
 Structure from the checkpoint file:  "MN_90_RKT16_BH76_PBE0_631Gs.chk"
 Charge =  0 Multiplicity = 2

                         Standard orientation:
 ---------------------------------------------------------------------
 Center     Atomic      Atomic             Coordinates (Angstroms)
 Number     Number       Type             X           Y           Z
 ---------------------------------------------------------------------
      1          1           0        1.284475   -0.177944    0.000000
      2         16           0        0.000000    0.225909    0.000000
      3          1           0       -0.466345   -1.105244    0.000000
      4          1           0       -0.818130   -2.331358    0.000000
 ---------------------------------------------------------------------

 SCF Done:  E(UPBE1PBE) =  -399.715715082     A.U. after    1 cycles

 The electronic state is 2-A'.
 Alpha  occ. eigenvalues --  -89.02260  -8.01050  -5.94863  -5.94465  -5.93631
 Alpha  occ. eigenvalues --   -0.77008  -0.49181  -0.40320  -0.30814  -0.27427
 Alpha virt. eigenvalues --    0.03471   0.09750   0.33459   0.34975   0.37270
 Alpha virt. eigenvalues --    0.38040   0.70976   0.73717   0.74324   0.76698
 Alpha virt. eigenvalues --    0.77556   0.91330   1.02408   1.19575
  Beta  occ. eigenvalues --  -89.02082  -8.00868  -5.94477  -5.94132  -5.93525
  Beta  occ. eigenvalues --   -0.75802  -0.46660  -0.38403  -0.27027
  Beta virt. eigenvalues --   -0.11453   0.04325   0.12620   0.33819   0.35637
  Beta virt. eigenvalues --    0.38235   0.39172   0.72570   0.75767   0.77522
  Beta virt. eigenvalues --    0.78604   0.83753   0.96095   1.02794   1.19891

 Mulliken charges and spin densities:
               1          2
     1  H    0.134153  -0.005682
     2  S   -0.172056   0.258045
     3  H   -0.013282  -0.100198
     4  H    0.051185   0.847836
 Sum of Mulliken charges =  -0.00000   1.00000

 Dipole moment (field-independent basis, Debye):
    X=              0.6934    Y=             -1.3093    Z=              0.0000  Tot=              1.4816
 Quadrupole moment (field-independent basis, Debye-Ang):
   XX=            -13.7082   YY=            -14.6882   ZZ=            -17.9218
   XY=              0.5388   XZ=              0.0000   YZ=              0.0000

  Exact polarizability:  18.708   5.777  31.559   0.000   0.000  11.259
 Approx polarizability:  24.821   6.518  38.631  -0.000  -0.000  13.401

 ******    1 imaginary frequencies (negative Signs) ******

                      1                      2                      3
                     A'                     A'                     A"
 Frequencies --   -839.9606               446.9208               525.6773
 Red. masses --      1.0135                 1.0187                 1.0139
 Frc consts  --      0.4213                 0.1199                 0.1651
 IR Inten    --     22.5169                 6.5205                 7.9629

                      4                      5                      6
                     A'                     A'                     A'
 Frequencies --   1213.5996              1730.0618              2742.0864
 Red. masses --      1.0392                 1.0573                 1.0382
 Frc consts  --      0.9018                 1.8646                 4.5993
 IR Inten    --      6.5244                 0.7273                 9.2490

 - Thermochemistry -
 -------------------
 Temperature   298.150 Kelvin.  Pressure   1.00000 Atm.
 Atom     1 has atomic number  1 and mass   1.00783

 Molecular mass:    34.99555 amu.
 Principal axes and moments of inertia in atomic units:
                           1         2         3
     Eigenvalues --     6.32835  31.39215  37.72049
           X            0.33431   0.94246   0.00000
           Y            0.94246  -0.33431   0.00000
           Z            0.00000   0.00000   1.00000
 This molecule is an asymmetric top.
 Rotational symmetry number  1.
 Rotational temperatures (Kelvin)     13.68666     2.75910     2.29620
 Rotational constants (GHZ):         285.18369    57.49021    47.84511
    1 imaginary frequencies ignored.
 Zero-point vibrational energy      39825.8 (Joules/Mol)
                                    9.51858 (Kcal/Mol)
 Warning -- explicit consideration of   2 degrees of freedom as
           vibrations may cause significant error
 Vibrational temperatures:    643.02   756.33  1746.10  2489.17  3945.25
          (Kelvin)

 Zero-point correction=                           0.015169 (Hartree/Particle)
 Thermal correction to Energy=                    0.018491
 Thermal correction to Enthalpy=                  0.019436
 Thermal correction to Gibbs Free Energy=        -0.007209
 Sum of electronic and zero-point Energies=           -399.700546
 Sum of electronic and thermal Energies=              -399.697224
 Sum of electronic and thermal Enthalpies=            -399.696280
 Sum of electronic and thermal Free Energies=         -399.722924

                     E (Thermal)             CV                S
                      KCal/Mol        Cal/Mol-Kelvin    Cal/Mol-Kelvin
 Total                   11.604              8.752             56.079
 Electronic               0.000              0.000              1.377
 Translational            0.889              2.981             36.588
 Rotational               0.889              2.981             16.668
 Vibrational              9.826              2.790              1.446
 Vibration     1          0.806              1.368              0.805
 Vibration     2          0.881              1.193              0.597

 Optimization completed.
    -- Stationary point found.
 Normal termination of Gaussian 16 at Wed Oct  7 13:44:21 2020.
