 Gaussian 16, Revision A.03,

 ----------------------------------------------------------------------
 #P Opt(TS,MaxCyc=50,NoEigenTest,MaxStep=10,AddRedundant) PBE1PBE/6-31G
 * 5D 7F Integral=UltraFineGrid SCF=(NoSymm,XQC,MaxCyc=120) IOp(1/33=1)
 ----------------------------------------------------------------------

 TstMul:  Mul=     2
 TstMul:  ICh=     0
 TstMul:  Mul=     2
 Symbolic Z-matrix:
 Charge =  0 Multiplicity = 2

 SCF Done:  E(UPBE1PBE) =  -135.508009244     A.U. after   15 cycles
 SCF Done:  E(UPBE1PBE) =  -135.508021829     A.U. after   14 cycles
 SCF Done:  E(UPBE1PBE) =  -135.508184188     A.U. after   13 cycles
 SCF Done:  E(UPBE1PBE) =  -135.508332718     A.U. after   13 cycles
 SCF Done:  E(UPBE1PBE) =  -135.508357080     A.U. after   12 cycles
 SCF Done:  E(UPBE1PBE) =  -135.508297786     A.U. after   13 cycles
 SCF Done:  E(UPBE1PBE) =  -135.508309058     A.U. after   12 cycles
 SCF Done:  E(UPBE1PBE) =  -135.508310366     A.U. after   10 cycles
 SCF Done:  E(UPBE1PBE) =  -135.508310652     A.U. after   10 cycles
 SCF Done:  E(UPBE1PBE) =  -135.508310578     A.U. after   10 cycles
 Optimization completed.
    -- Stationary point found.
 Normal termination of Gaussian 16 at Wed Oct  7 13:45:15 2020.
 Gaussian 16:  ES64L-G16RevA.03 25-Dec-2016

 ----------------------------------------------------------------------
 #P Freq PBE1PBE/6-31G* 5D 7F Integral=UltraFineGrid SCF=(NoSymm,XQC,Ma
 xCyc=120) IOp(1/33=1) Geom=Check Guess=Read
 ----------------------------------------------------------------------

 TstMul:  Mul=     2
 TstMul:  ICh=     0
 TstMul:  Mul=     2
 Structure from the checkpoint file:  "MN_94_RKT20_BH76_PBE0_631Gs.chk"
 Charge =  0 Multiplicity = 2

                         Standard orientation:
 ---------------------------------------------------------------------
 Center     Atomic      Atomic             Coordinates (Angstroms)
 Number     Number       Type             X           Y           Z
 ---------------------------------------------------------------------
      1          6           0       -1.513950   -0.426541   -0.007068
      2          6           0       -0.491392    0.679415    0.011660
      3          7           0        1.884708   -0.341014   -0.022999
      4          1           0       -1.417066   -1.043717   -0.906521
      5          1           0       -1.407039   -1.084589    0.861891
      6          1           0       -2.536751   -0.023376    0.008531
      7          1           0       -0.496228    1.320772   -0.873974
      8          1           0       -0.481406    1.277874    0.926675
      9          1           0        0.669444    0.081039   -0.021558
     10          1           0        2.292891    0.286218   -0.726336
     11          1           0        2.215250    0.055634    0.864739
 ---------------------------------------------------------------------

 SCF Done:  E(UPBE1PBE) =  -135.508310578     A.U. after    1 cycles

 The electronic state is 2-A.
 Alpha  occ. eigenvalues --  -14.38241 -10.22910 -10.21540  -0.86941  -0.77877
 Alpha  occ. eigenvalues --   -0.63345  -0.47199  -0.46816  -0.45280  -0.40158
 Alpha  occ. eigenvalues --   -0.38539  -0.35895  -0.30113  -0.22293
 Alpha virt. eigenvalues --    0.09767   0.13511   0.16102   0.16591   0.18239
 Alpha virt. eigenvalues --    0.18716   0.20862   0.25132   0.31552   0.51293
 Alpha virt. eigenvalues --    0.54123   0.56932   0.62049   0.62511   0.69111

  Beta  occ. eigenvalues --  -14.36907 -10.21950 -10.21568  -0.83528  -0.76610
  Beta  occ. eigenvalues --   -0.61921  -0.46038  -0.44767  -0.44407  -0.38616
  Beta  occ. eigenvalues --   -0.37548  -0.35612  -0.27261
  Beta virt. eigenvalues --   -0.07019   0.10410   0.13921   0.16463   0.17200
  Beta virt. eigenvalues --    0.18498   0.19060   0.21369   0.25808   0.33748
  Beta virt. eigenvalues --    0.51941   0.54350   0.57522   0.62657   0.65742

 Mulliken charges and spin densities:
               1          2
     1  C   -0.513377  -0.027814
     2  C   -0.516993   0.541887
     3  N   -0.807276   0.611395
     4  H    0.188217   0.004753
     5  H    0.185974   0.004785
     6  H    0.181391   0.031393
     7  H    0.183404  -0.017763
     8  H    0.181813  -0.018377
     9  H    0.290873  -0.093676
    10  H    0.313076  -0.018312
    11  H    0.312898  -0.018273
 Sum of Mulliken charges =  -0.00000   1.00000

 Dipole moment (field-independent basis, Debye):
    X=             -0.2272    Y=              1.7752    Z=              0.2634  Tot=              1.8089
 Quadrupole moment (field-independent basis, Debye-Ang):
   XX=            -20.4135   YY=            -23.2078   ZZ=            -19.9984
   XY=              3.7242   XZ=              0.5402   YZ=             -0.3771

  Exact polarizability:  57.535  -5.090  30.916  -0.099  -0.334  30.694
 Approx polarizability:  62.635  -7.946  38.344  -0.311  -0.430  39.106

 ******    1 imaginary frequencies (negative Signs) ******

                      1                      2                      3
                      A                      A                      A
 Frequencies --  -1635.0940                25.8082               147.4733
 Red. masses --      1.0837                 1.0826                 2.6600
 Frc consts  --      1.7071                 0.0004                 0.0341
 IR Inten    --    753.7161                54.3265                 6.3772

                      4                      5                      6
                      A                      A                      A
 Frequencies --    169.9782               434.7788               484.0932
 Red. masses --      1.0861                 1.0292                 2.3127
 Frc consts  --      0.0185                 0.1146                 0.3193
 IR Inten    --      0.3314                 1.8691                 0.4410

                      7                      8                      9
                      A                      A                      A
 Frequencies --    768.6463               790.8814               901.7553
 Red. masses --      1.1518                 1.3091                 1.0592
 Frc consts  --      0.4009                 0.4825                 0.5074
 IR Inten    --     13.8620                52.5696                 1.3301

                     10                     11                     12
                      A                      A                      A
 Frequencies --    953.3670              1078.6509              1213.9554
 Red. masses --      1.2241                 2.9122                 1.4137
 Frc consts  --      0.6555                 1.9963                 1.2275
 IR Inten    --    112.8608                 6.7661                 6.2410

                     13                     14                     15
                      A                      A                      A
 Frequencies --   1244.2623              1374.3767              1429.8720
 Red. masses --      1.3910                 1.0893                 1.2034
 Frc consts  --      1.2688                 1.2123                 1.4496
 IR Inten    --      0.5317               112.1623                 0.5411

                     16                     17                     18
                      A                      A                      A
 Frequencies --   1492.0097              1515.8431              1519.9427
 Red. masses --      1.1462                 1.0341                 1.0482
 Frc consts  --      1.5033                 1.4000                 1.4267
 IR Inten    --      1.8077                 4.7640                 5.4154

                     19                     20                     21
                      A                      A                      A
 Frequencies --   1547.1217              1632.1344              3050.7144
 Red. masses --      1.0416                 1.0696                 1.0429
 Frc consts  --      1.4690                 1.6788                 5.7185
 IR Inten    --     11.1672                22.0375                24.2089

                     22                     23                     24
                      A                      A                      A
 Frequencies --   3111.9287              3126.3418              3151.8579
 Red. masses --      1.0597                 1.0878                 1.1030
 Frc consts  --      6.0466                 6.2643                 6.4558
 IR Inten    --      9.0385                28.7705                 8.2421

                     25                     26                     27
                      A                      A                      A
 Frequencies --   3191.6011              3410.5419              3519.9904
 Red. masses --      1.1094                 1.0498                 1.0891
 Frc consts  --      6.6581                 7.1947                 7.9505
 IR Inten    --     32.3802                 6.7963                 2.0631

 - Thermochemistry -
 -------------------
 Temperature   298.150 Kelvin.  Pressure   1.00000 Atm.
 Atom     1 has atomic number  6 and mass  12.00000

 Molecular mass:    46.06567 amu.
 Principal axes and moments of inertia in atomic units:
                           1         2         3
     Eigenvalues --    69.79339 379.88669 417.50221
           X            0.99955   0.02984   0.00248
           Y           -0.02981   0.99950  -0.01043
           Z           -0.00279   0.01036   0.99994
 This molecule is an asymmetric top.
 Rotational symmetry number  1.
 Rotational temperatures (Kelvin)      1.24100     0.22800     0.20746
 Rotational constants (GHZ):          25.85834     4.75074     4.32271
    1 imaginary frequencies ignored.
 Zero-point vibrational energy     246956.6 (Joules/Mol)
                                   59.02405 (Kcal/Mol)
 Warning -- explicit consideration of   5 degrees of freedom as
           vibrations may cause significant error
 Vibrational temperatures:     37.13   212.18   244.56   625.55   696.50
          (Kelvin)           1105.91  1137.90  1297.42  1371.68  1551.94
                             1746.61  1790.22  1977.42  2057.27  2146.67
                             2180.96  2186.86  2225.96  2348.28  4389.30
                             4477.37  4498.11  4534.82  4592.00  4907.01
                             5064.48

 Zero-point correction=                           0.094061 (Hartree/Particle)
 Thermal correction to Energy=                    0.099910
 Thermal correction to Enthalpy=                  0.100854
 Thermal correction to Gibbs Free Energy=         0.064534
 Sum of electronic and zero-point Energies=           -135.414250
 Sum of electronic and thermal Energies=              -135.408401
 Sum of electronic and thermal Enthalpies=            -135.407457
 Sum of electronic and thermal Free Energies=         -135.443777

                     E (Thermal)             CV                S
                      KCal/Mol        Cal/Mol-Kelvin    Cal/Mol-Kelvin
 Total                   62.694             17.921             76.443
 Electronic               0.000              0.000              1.377
 Translational            0.889              2.981             37.408
 Rotational               0.889              2.981             23.919
 Vibrational             60.917             11.960             13.739
 Vibration     1          0.593              1.985              6.128
 Vibration     2          0.617              1.905              2.705
 Vibration     3          0.625              1.879              2.436
 Vibration     4          0.795              1.394              0.843
 Vibration     5          0.840              1.285              0.699

                           ! Non-Optimized Parameters !
 Normal termination of Gaussian 16 at Wed Oct  7 13:46:13 2020.
