 Gaussian 16, Revision A.03,

 ----------------------------------------------------------------------
 #P Opt(TS,MaxCyc=50,NoEigenTest,MaxStep=10,AddRedundant) PBE1PBE/6-31G
 * 5D 7F Integral=UltraFineGrid SCF=(NoSymm,XQC,MaxCyc=120) IOp(1/33=1)
 ----------------------------------------------------------------------

 TstMul:  Mul=     3
 TstMul:  ICh=     0
 TstMul:  Mul=     3
 Symbolic Z-matrix:
 Charge =  0 Multiplicity = 3

 SCF Done:  E(UPBE1PBE) =  -535.601261247     A.U. after   23 cycles
 SCF Done:  E(UPBE1PBE) =  -535.601115888     A.U. after   17 cycles
 SCF Done:  E(UPBE1PBE) =  -535.601151718     A.U. after   18 cycles
 SCF Done:  E(UPBE1PBE) =  -535.601011905     A.U. after   19 cycles
 SCF Done:  E(UPBE1PBE) =  -535.601542960     A.U. after   19 cycles
 SCF Done:  E(UPBE1PBE) =  -535.600771808     A.U. after   17 cycles
 SCF Done:  E(UPBE1PBE) =  -535.600467857     A.U. after   20 cycles
 SCF Done:  E(UPBE1PBE) =  -535.600503940     A.U. after   14 cycles
 SCF Done:  E(UPBE1PBE) =  -535.600506226     A.U. after   12 cycles
 Optimization completed.
    -- Stationary point found.
 Normal termination of Gaussian 16 at Wed Oct  7 13:45:18 2020.
 Gaussian 16:  ES64L-G16RevA.03 25-Dec-2016

 ----------------------------------------------------------------------
 #P Freq PBE1PBE/6-31G* 5D 7F Integral=UltraFineGrid SCF=(NoSymm,XQC,Ma
 xCyc=120) IOp(1/33=1) Geom=Check Guess=Read
 ----------------------------------------------------------------------

 TstMul:  Mul=     3
 TstMul:  ICh=     0
 TstMul:  Mul=     3
 Structure from the checkpoint file:  "MN_91_RKT17_BH76_PBE0_631Gs.chk"
 Charge =  0 Multiplicity = 3

                         Standard orientation:
 ---------------------------------------------------------------------
 Center     Atomic      Atomic             Coordinates (Angstroms)
 Number     Number       Type             X           Y           Z
 ---------------------------------------------------------------------
      1         17           0        0.019507   -0.824550    0.000000
      2          1           0       -0.487679    0.508363    0.000000
      3          8           0        0.019507    1.688623    0.000000
 ---------------------------------------------------------------------

 SCF Done:  E(UPBE1PBE) =  -535.600506226     A.U. after    1 cycles

 The electronic state is 3-A".
 Alpha  occ. eigenvalues -- -101.71119 -19.39411  -9.54356  -7.28063  -7.26942
 Alpha  occ. eigenvalues --   -7.26865  -1.09762  -0.86516  -0.56945  -0.50660
 Alpha  occ. eigenvalues --   -0.45367  -0.38726  -0.35249  -0.35054
 Alpha virt. eigenvalues --    0.08609   0.39437   0.44632   0.44818   0.45863
 Alpha virt. eigenvalues --    0.61971   0.76966   0.80956   0.85893   0.86182
 Alpha virt. eigenvalues --    0.86773   0.87208   0.92635   1.06441   1.25617

  Beta  occ. eigenvalues -- -101.70828 -19.34687  -9.54078  -7.27259  -7.26673
  Beta  occ. eigenvalues --   -7.26640  -0.96205  -0.83593  -0.50609  -0.36531
  Beta  occ. eigenvalues --   -0.34478  -0.34459
  Beta virt. eigenvalues --   -0.20425  -0.18771   0.10492   0.40199   0.45314
  Beta virt. eigenvalues --    0.45393   0.47920   0.64892   0.83756   0.83807
  Beta virt. eigenvalues --    0.87276   0.87367   0.89998   0.93215   0.98566

 Mulliken charges and spin densities:
               1          2
     1  Cl  -0.236679   0.338283
     2  H    0.346588  -0.050139
     3  O   -0.109909   1.711856
 Sum of Mulliken charges =  -0.00000   2.00000

 Dipole moment (field-independent basis, Debye):
    X=             -0.7213    Y=              1.1449    Z=              0.0000  Tot=              1.3532
 Quadrupole moment (field-independent basis, Debye-Ang):
   XX=            -18.8956   YY=            -18.1995   ZZ=            -18.4874
   XY=             -0.7263   XZ=              0.0000   YZ=              0.0000

  Exact polarizability:   9.416  -1.242  49.991  -0.000  -0.000   8.425
 Approx polarizability:  11.420  -1.404  74.513  -0.000   0.000  10.067

 ******    1 imaginary frequencies (negative Signs) ******

                      1                      2                      3
                     A'                     A'                     A'
 Frequencies --  -1285.1486               312.4650              1372.7587
 Red. masses --      1.0936                 5.4737                 1.1168
 Frc consts  --      1.0642                 0.3149                 1.2400
 IR Inten    --    113.2768                13.4244                54.2480

 - Thermochemistry -
 -------------------
 Temperature   298.150 Kelvin.  Pressure   1.00000 Atm.
 Atom     1 has atomic number 17 and mass  34.96885

 Molecular mass:    51.97159 amu.
 Principal axes and moments of inertia in atomic units:
                           1         2         3
     Eigenvalues --     0.90402 248.58807 249.49208
           X           -0.00393   0.99999   0.00000
           Y            0.99999   0.00393   0.00000
           Z            0.00000   0.00000   1.00000
 This molecule is an asymmetric top.
 Rotational symmetry number  1.
 Rotational temperatures (Kelvin)     95.81003     0.34842     0.34716
 Rotational constants (GHZ):        1996.35694     7.25997     7.23366
    1 imaginary frequencies ignored.
 Zero-point vibrational energy      10079.9 (Joules/Mol)
                                    2.40915 (Kcal/Mol)
 Warning -- explicit consideration of   1 degrees of freedom as
           vibrations may cause significant error
 Vibrational temperatures:    449.57  1975.09
          (Kelvin)

 Zero-point correction=                           0.003839 (Hartree/Particle)
 Thermal correction to Energy=                    0.007085
 Thermal correction to Enthalpy=                  0.008029
 Thermal correction to Gibbs Free Energy=        -0.020473
 Sum of electronic and zero-point Energies=           -535.596667
 Sum of electronic and thermal Energies=              -535.593421
 Sum of electronic and thermal Enthalpies=            -535.592477
 Sum of electronic and thermal Free Energies=         -535.620979

                     E (Thermal)             CV                S
                      KCal/Mol        Cal/Mol-Kelvin    Cal/Mol-Kelvin
 Total                    4.446              7.728             59.987
 Electronic               0.000              0.000              2.183
 Translational            0.889              2.981             37.767
 Rotational               0.889              2.981             18.667
 Vibrational              2.668              1.766              1.369
 Vibration     1          0.701              1.650              1.349

 Optimization completed.
    -- Stationary point found.
 Normal termination of Gaussian 16 at Wed Oct  7 13:45:50 2020.
