 Gaussian 16, Revision A.03,

 ----------------------------------------------------------------------
 #P Opt(TS,MaxCyc=50,NoEigenTest,MaxStep=10,AddRedundant) PBE1PBE/6-31G
 * 5D 7F Integral=UltraFineGrid SCF=(NoSymm,XQC,MaxCyc=120) IOp(1/33=1)
 ----------------------------------------------------------------------

 TstMul:  Mul=     2
 TstMul:  ICh=     0
 TstMul:  Mul=     2
 Symbolic Z-matrix:
 Charge =  0 Multiplicity = 2

 SCF Done:  E(UPBE1PBE) =  -96.2413426803     A.U. after   15 cycles
 SCF Done:  E(UPBE1PBE) =  -96.2413089843     A.U. after   13 cycles
 SCF Done:  E(UPBE1PBE) =  -96.2415938305     A.U. after   14 cycles
 SCF Done:  E(UPBE1PBE) =  -96.2417397360     A.U. after   13 cycles
 SCF Done:  E(UPBE1PBE) =  -96.2418857450     A.U. after   13 cycles
 SCF Done:  E(UPBE1PBE) =  -96.2421336461     A.U. after   14 cycles
 SCF Done:  E(UPBE1PBE) =  -96.2418438553     A.U. after   13 cycles
 SCF Done:  E(UPBE1PBE) =  -96.2415286178     A.U. after   14 cycles
 SCF Done:  E(UPBE1PBE) =  -96.2415283622     A.U. after   13 cycles
 SCF Done:  E(UPBE1PBE) =  -96.2415299250     A.U. after   10 cycles
 SCF Done:  E(UPBE1PBE) =  -96.2415304230     A.U. after    9 cycles
 Optimization completed.
    -- Stationary point found.
 Normal termination of Gaussian 16 at Wed Oct  7 13:44:49 2020.
 Gaussian 16:  ES64L-G16RevA.03 25-Dec-2016

 ----------------------------------------------------------------------
 #P Freq PBE1PBE/6-31G* 5D 7F Integral=UltraFineGrid SCF=(NoSymm,XQC,Ma
 xCyc=120) IOp(1/33=1) Geom=Check Guess=Read
 ----------------------------------------------------------------------

 TstMul:  Mul=     2
 TstMul:  ICh=     0
 TstMul:  Mul=     2
 Structure from the checkpoint file:  "MN_95_RKT21_BH76_PBE0_631Gs.chk"
 Charge =  0 Multiplicity = 2

                         Standard orientation:
 ---------------------------------------------------------------------
 Center     Atomic      Atomic             Coordinates (Angstroms)
 Number     Number       Type             X           Y           Z
 ---------------------------------------------------------------------
      1          6           0       -1.255952    0.000070    0.013761
      2          7           0        1.309029    0.000068   -0.137566
      3          1           0       -1.612337    0.848192   -0.571431
      4          1           0       -1.426295    0.112467    1.084139
      5          1           0       -1.588289   -0.961906   -0.377153
      6          1           0        0.064452    0.001498   -0.211783
      7          1           0        1.468538    0.805046    0.478865
      8          1           0        1.466436   -0.806192    0.477757
 ---------------------------------------------------------------------

 SCF Done:  E(UPBE1PBE) =  -96.2415304230     A.U. after    1 cycles

 The electronic state is 2-A.
 Alpha  occ. eigenvalues --  -14.38666 -10.22530  -0.87601  -0.71510  -0.47141
 Alpha  occ. eigenvalues --   -0.46308  -0.41977  -0.41791  -0.30672  -0.23401
 Alpha virt. eigenvalues --    0.09810   0.14601   0.17192   0.18227   0.18778
 Alpha virt. eigenvalues --    0.30559   0.52254   0.53475   0.57721   0.73213
 Alpha virt. eigenvalues --    0.74544   0.74605   0.91039   0.91431   0.92005

  Beta  occ. eigenvalues --  -14.37377 -10.21508  -0.84255  -0.68905  -0.46294
  Beta  occ. eigenvalues --   -0.42568  -0.41073  -0.40987  -0.27773
  Beta virt. eigenvalues --   -0.07619   0.10536   0.15393   0.17651   0.18882
  Beta virt. eigenvalues --    0.19384   0.32803   0.52639   0.54244   0.62461
  Beta virt. eigenvalues --    0.74772   0.74888   0.77877   0.91628   0.92207

 Mulliken charges and spin densities:
               1          2
     1  C   -0.721325   0.601339
     2  N   -0.814637   0.582333
     3  H    0.202140  -0.017881
     4  H    0.189710  -0.022970
     5  H    0.200479  -0.018665
     6  H    0.310666  -0.090048
     7  H    0.316468  -0.017040
     8  H    0.316499  -0.017069
 Sum of Mulliken charges =   0.00000   1.00000

 Dipole moment (field-independent basis, Debye):
    X=             -0.6237    Y=             -0.0007    Z=              1.7498  Tot=              1.8576
 Quadrupole moment (field-independent basis, Debye-Ang):
   XX=            -16.1959   YY=            -13.5320   ZZ=            -15.4958
   XY=             -0.0010   XZ=              3.1307   YZ=             -0.0058

  Exact polarizability:  44.078   0.008  21.262   0.465  -0.004  18.934
 Approx polarizability:  47.709   0.012  25.650  -0.231  -0.003  22.684

 ******    1 imaginary frequencies (negative Signs) ******

                      1                      2                      3
                      A                      A                      A
 Frequencies --  -1669.3312                36.9689               382.2769
 Red. masses --      1.0742                 1.0262                 1.2129
 Frc consts  --      1.7637                 0.0008                 0.1044
 IR Inten    --    546.7394                37.9230                 9.3697

                      4                      5                      6
                      A                      A                      A
 Frequencies --    401.8403               578.8840               809.9410
 Red. masses --      1.0253                 2.4275                 1.1103
 Frc consts  --      0.0975                 0.4793                 0.4291
 IR Inten    --      2.9039                 5.1134                 6.9174

                      7                      8                      9
                      A                      A                      A
 Frequencies --    886.8103              1178.1964              1405.7748
 Red. masses --      1.2606                 1.1722                 1.1178
 Frc consts  --      0.5841                 0.9587                 1.3015
 IR Inten    --    106.5459                 9.7264               164.7990

                     10                     11                     12
                      A                      A                      A
 Frequencies --   1454.3275              1467.9602              1558.6344
 Red. masses --      1.0938                 1.0535                 1.0301
 Frc consts  --      1.3630                 1.3376                 1.4745
 IR Inten    --     11.3123                13.3768                11.1954

                     13                     14                     15
                      A                      A                      A
 Frequencies --   1643.3787              3108.7231              3246.3183
 Red. masses --      1.0635                 1.0207                 1.1096
 Frc consts  --      1.6923                 5.8121                 6.8897
 IR Inten    --     26.0415                 3.1173                 9.0466

                     16                     17                     18
                      A                      A                      A
 Frequencies --   3248.3587              3419.4579              3527.5216
 Red. masses --      1.1098                 1.0499                 1.0891
 Frc consts  --      6.8997                 7.2329                 7.9845
 IR Inten    --     11.3804                 7.3029                 1.1846

 - Thermochemistry -
 -------------------
 Temperature   298.150 Kelvin.  Pressure   1.00000 Atm.
 Atom     1 has atomic number  6 and mass  12.00000

 Molecular mass:    32.05002 amu.
 Principal axes and moments of inertia in atomic units:
                           1         2         3
     Eigenvalues --    19.11349 202.86011 205.01957
           X            0.99968  -0.00000   0.02517
           Y            0.00000   1.00000   0.00006
           Z           -0.02517  -0.00006   0.99968
 This molecule is an asymmetric top.
 Rotational symmetry number  1.
 Rotational temperatures (Kelvin)      4.53156     0.42696     0.42247
 Rotational constants (GHZ):          94.42240     8.89648     8.80278
    1 imaginary frequencies ignored.
 Zero-point vibrational energy     169602.8 (Joules/Mol)
                                   40.53604 (Kcal/Mol)
 Warning -- explicit consideration of   4 degrees of freedom as
           vibrations may cause significant error
 Vibrational temperatures:     53.19   550.01   578.16   832.88  1165.32
          (Kelvin)           1275.92  1695.16  2022.60  2092.45  2112.07
                             2242.53  2364.46  4472.76  4670.73  4673.66
                             4919.84  5075.32

 Zero-point correction=                           0.064598 (Hartree/Particle)
 Thermal correction to Energy=                    0.069276
 Thermal correction to Enthalpy=                  0.070220
 Thermal correction to Gibbs Free Energy=         0.038221
 Sum of electronic and zero-point Energies=            -96.176932
 Sum of electronic and thermal Energies=               -96.172255
 Sum of electronic and thermal Enthalpies=             -96.171310
 Sum of electronic and thermal Free Energies=          -96.203309

                     E (Thermal)             CV                S
                      KCal/Mol        Cal/Mol-Kelvin    Cal/Mol-Kelvin
 Total                   43.471             13.749             67.347
 Electronic               0.000              0.000              1.377
 Translational            0.889              2.981             36.326
 Rotational               0.889              2.981             21.302
 Vibrational             41.694              7.787              8.341
 Vibration     1          0.594              1.982              5.415
 Vibration     2          0.752              1.508              1.030
 Vibration     3          0.767              1.466              0.956
 Vibration     4          0.935              1.077              0.487

                           ! Non-Optimized Parameters !
 Normal termination of Gaussian 16 at Wed Oct  7 13:45:21 2020.
