 Gaussian 16, Revision A.03,

 ----------------------------------------------------------------------
 #P Opt(TS,MaxCyc=50,NoEigenTest,MaxStep=10,AddRedundant) BLYP/6-31G* 5
 D 7F Integral=UltraFineGrid SCF=(NoSymm,XQC,MaxCyc=120) IOp(1/33=1)
 ----------------------------------------------------------------------

 TstMul:  Mul=     2
 TstMul:  ICh=     0
 TstMul:  Mul=     2
 Symbolic Z-matrix:
 Charge =  0 Multiplicity = 2

 SCF Done:  E(UB-LYP) =  -79.0323393600     A.U. after   15 cycles
 SCF Done:  E(UB-LYP) =  -79.0323657492     A.U. after    9 cycles
 SCF Done:  E(UB-LYP) =  -79.0321292091     A.U. after   14 cycles
 SCF Done:  E(UB-LYP) =  -79.0318970533     A.U. after   14 cycles
 SCF Done:  E(UB-LYP) =  -79.0316756125     A.U. after   13 cycles
 SCF Done:  E(UB-LYP) =  -79.0314860604     A.U. after   13 cycles
 SCF Done:  E(UB-LYP) =  -79.0313350533     A.U. after   13 cycles
 SCF Done:  E(UB-LYP) =  -79.0312193468     A.U. after   13 cycles
 SCF Done:  E(UB-LYP) =  -79.0311316588     A.U. after   13 cycles
 SCF Done:  E(UB-LYP) =  -79.0310645499     A.U. after   13 cycles
 SCF Done:  E(UB-LYP) =  -79.0307850086     A.U. after    8 cycles
 SCF Done:  E(UB-LYP) =  -79.0307831929     A.U. after    9 cycles
 SCF Done:  E(UB-LYP) =  -79.0307828912     A.U. after    7 cycles
 SCF Done:  E(UB-LYP) =  -79.0307813495     A.U. after    8 cycles
 SCF Done:  E(UB-LYP) =  -79.0307798939     A.U. after    8 cycles
 SCF Done:  E(UB-LYP) =  -79.0307796092     A.U. after    8 cycles
 SCF Done:  E(UB-LYP) =  -79.0307788340     A.U. after    9 cycles
 SCF Done:  E(UB-LYP) =  -79.0307779652     A.U. after    8 cycles
 SCF Done:  E(UB-LYP) =  -79.0307777210     A.U. after    8 cycles
 Optimization completed.
    -- Stationary point found.
 Normal termination of Gaussian 16 at Sat Oct 10 18:13:11 2020.
 Gaussian 16:  ES64L-G16RevA.03 25-Dec-2016

 ----------------------------------------------------------------------
 #P Freq BLYP/6-31G* 5D 7F Integral=UltraFineGrid SCF=(NoSymm,XQC,MaxCy
 c=120) IOp(1/33=1) Geom=Check Guess=Read
 ----------------------------------------------------------------------

 TstMul:  Mul=     2
 TstMul:  ICh=     0
 TstMul:  Mul=     2
 Structure from the checkpoint file:  "MN_13_c2h5ts_BH76_BLYP_631Gs.chk"
 Charge =  0 Multiplicity = 2

                         Standard orientation:
 ---------------------------------------------------------------------
 Center     Atomic      Atomic             Coordinates (Angstroms)
 Number     Number       Type             X           Y           Z
 ---------------------------------------------------------------------
      1          6           0       -0.486209    0.401802    0.000009
      2          6           0        0.738547   -0.148589   -0.000001
      3          1           0       -2.022240   -2.033613   -0.000057
      4          1           0       -1.011173    0.644086    0.929369
      5          1           0       -1.011149    0.644172   -0.929343
      6          1           0        1.265280   -0.386920   -0.929581
      7          1           0        1.265256   -0.387005    0.929569
 ---------------------------------------------------------------------

 SCF Done:  E(UB-LYP) =  -79.0307777210     A.U. after    1 cycles

 The electronic state is 2-A.
 Alpha  occ. eigenvalues --   -9.91742  -9.91692  -0.67149  -0.51170  -0.40666
 Alpha  occ. eigenvalues --   -0.36107  -0.30486  -0.25756  -0.21723
 Alpha virt. eigenvalues --   -0.01182   0.09550   0.11148   0.12695   0.21398
 Alpha virt. eigenvalues --    0.30051   0.45024   0.50276   0.53065   0.58770
 Alpha virt. eigenvalues --    0.59654   0.63832   0.77365   0.79404   0.80769

  Beta  occ. eigenvalues --   -9.91719  -9.91655  -0.67079  -0.51129  -0.40649
  Beta  occ. eigenvalues --   -0.36072  -0.30476  -0.22717
  Beta virt. eigenvalues --   -0.08323  -0.00856   0.09563   0.11135   0.12707
  Beta virt. eigenvalues --    0.21382   0.30039   0.44985   0.51276   0.53025
  Beta virt. eigenvalues --    0.59139   0.61736   0.64044   0.79392   0.80775

 Mulliken charges and spin densities:
               1          2
     1  C   -0.242831  -0.018583
     2  C   -0.242220   0.043816
     3  H   -0.016345   0.976537
     4  H    0.125836   0.000994
     5  H    0.125836   0.000994
     6  H    0.124861  -0.001879
     7  H    0.124861  -0.001879
 Sum of Mulliken charges =  -0.00000   1.00000

 Dipole moment (field-independent basis, Debye):
    X=              0.1573    Y=              0.1695    Z=              0.0000  Tot=              0.2313
 Quadrupole moment (field-independent basis, Debye-Ang):
   XX=            -14.1011   YY=            -15.9941   ZZ=            -13.4452
   XY=             -1.3771   XZ=             -0.0001   YZ=             -0.0001

  Exact polarizability:  32.468  -2.910  18.092  -0.000  -0.000  20.894
 Approx polarizability:  57.793 -12.123  25.227  -0.000  -0.001  30.016

 ******    1 imaginary frequencies (negative Signs) ******

                      1                      2                      3
                      A                      A                      A
 Frequencies --    -42.5845                82.2877                97.1476
 Red. masses --      1.1367                 1.1683                 1.0246
 Frc consts  --      0.0012                 0.0047                 0.0057
 IR Inten    --      8.0715                 6.1692                 0.0340

                      4                      5                      6
                      A                      A                      A
 Frequencies --    814.4337               908.0355               941.4889
 Red. masses --      1.0428                 1.5104                 1.1590
 Frc consts  --      0.4075                 0.7337                 0.6053
 IR Inten    --      0.7507                 0.0545                84.4908

                      7                      8                      9
                      A                      A                      A
 Frequencies --   1035.8789              1216.6736              1356.8318
 Red. masses --      1.0078                 1.5257                 1.2647
 Frc consts  --      0.6372                 1.3307                 1.3718
 IR Inten    --      0.0012                 0.0000                 0.6099

                     10                     11                     12
                      A                      A                      A
 Frequencies --   1459.4040              1657.2764              3072.9590
 Red. masses --      1.1121                 2.9123                 1.0477
 Frc consts  --      1.3955                 4.7127                 5.8292
 IR Inten    --      4.3421                 3.1799                19.5303

                     13                     14                     15
                      A                      A                      A
 Frequencies --   3085.3319              3138.8841              3165.7697
 Red. masses --      1.0708                 1.1142                 1.1175
 Frc consts  --      6.0056                 6.4680                 6.5988
 IR Inten    --      0.8516                 0.0593                36.3723

 - Thermochemistry -
 -------------------
 Temperature   298.150 Kelvin.  Pressure   1.00000 Atm.
 Atom     1 has atomic number  6 and mass  12.00000

 Molecular mass:    29.03913 amu.
 Principal axes and moments of inertia in atomic units:
                           1         2         3
     Eigenvalues --    37.86490  80.36995  93.36120
           X            0.98691   0.16126   0.00000
           Y           -0.16126   0.98691  -0.00000
           Z           -0.00000   0.00000   1.00000
 This molecule is an asymmetric top.
 Rotational symmetry number  1.
 Rotational temperatures (Kelvin)      2.28745     1.07769     0.92773
 Rotational constants (GHZ):          47.66264    22.45542    19.33074
    1 imaginary frequencies ignored.
 Zero-point vibrational energy     131783.0 (Joules/Mol)
                                   31.49690 (Kcal/Mol)
 Warning -- explicit consideration of   2 degrees of freedom as
           vibrations may cause significant error
 Vibrational temperatures:    118.39   139.77  1171.79  1306.46  1354.59
          (Kelvin)           1490.40  1750.52  1952.18  2099.76  2384.45
                             4421.30  4439.10  4516.15  4554.84

 Zero-point correction=                           0.050194 (Hartree/Particle)
 Thermal correction to Energy=                    0.054773
 Thermal correction to Enthalpy=                  0.055717
 Thermal correction to Gibbs Free Energy=         0.024527
 Sum of electronic and zero-point Energies=            -78.980584
 Sum of electronic and thermal Energies=               -78.976005
 Sum of electronic and thermal Enthalpies=             -78.975060
 Sum of electronic and thermal Free Energies=          -79.006251

                     E (Thermal)             CV                S
                      KCal/Mol        Cal/Mol-Kelvin    Cal/Mol-Kelvin
 Total                   34.371             12.222             65.646
 Electronic               0.000              0.000              1.377
 Translational            0.889              2.981             36.032
 Rotational               0.889              2.981             20.280
 Vibrational             32.593              6.261              7.957
 Vibration     1          0.600              1.961              3.836
 Vibration     2          0.603              1.951              3.511

                           ! Non-Optimized Parameters !
 Normal termination of Gaussian 16 at Sat Oct 10 18:13:25 2020.
