 Gaussian 16, Revision A.03,
 Gaussian 16:  ES64L-G16RevA.03 25-Dec-2016

 ----------------------------------------------------------------------
 #P Opt(MaxCyc=100) BLYP/6-31G* 5D 7F Integral=UltraFineGrid SCF=(NoSym
 m,XQC,MaxCyc=120) IOp(1/33=1)
 ----------------------------------------------------------------------

 TstMul:  Mul=     2
 TstMul:  ICh=     0
 TstMul:  Mul=     2
 Symbolic Z-matrix:
 Charge =  0 Multiplicity = 2

 SCF Done:  E(UB-LYP) =  -79.0950702689     A.U. after   13 cycles
 SCF Done:  E(UB-LYP) =  -79.0957579139     A.U. after   11 cycles
 SCF Done:  E(UB-LYP) =  -79.0957635079     A.U. after    9 cycles
 Optimization completed.
    -- Stationary point found.

                         Standard orientation:
 ---------------------------------------------------------------------
 Center     Atomic      Atomic             Coordinates (Angstroms)
 Number     Number       Type             X           Y           Z
 ---------------------------------------------------------------------
      1          6           0        0.799639   -0.000006   -0.021866
      2          6           0       -0.697608    0.000198   -0.001400
      3          1           0       -1.115931    0.900208   -0.486330
      4          1           0        1.362143   -0.934186    0.049003
      5          1           0       -1.105043   -0.012562    1.035200
      6          1           0       -1.116424   -0.888153   -0.507442
      7          1           0        1.363074    0.933541    0.049162
 ---------------------------------------------------------------------

 The electronic state is 2-A.
 Alpha  occ. eigenvalues --   -9.91555  -9.91132  -0.66503  -0.53120  -0.38726
 Alpha  occ. eigenvalues --   -0.35215  -0.33226  -0.30289  -0.14689
 Alpha virt. eigenvalues --    0.09080   0.11225   0.12085   0.14866   0.19191
 Alpha virt. eigenvalues --    0.22946   0.48190   0.50509   0.51225   0.56898
 Alpha virt. eigenvalues --    0.58052   0.70275   0.74239   0.80767   0.81985

  Beta  occ. eigenvalues --   -9.91202  -9.90322  -0.65200  -0.51257  -0.38181
  Beta  occ. eigenvalues --   -0.34190  -0.32512  -0.29915
  Beta virt. eigenvalues --   -0.06476   0.09451   0.12273   0.12514   0.15491
  Beta virt. eigenvalues --    0.19607   0.23799   0.48684   0.50712   0.55725
  Beta virt. eigenvalues --    0.58281   0.60693   0.70911   0.75866   0.81476

 Mulliken charges and spin densities:
               1          2
     1  C   -0.263085   1.065966
     2  C   -0.404214  -0.070131
     3  H    0.138510   0.014812
     4  H    0.124489  -0.046546
     5  H    0.141012   0.066460
     6  H    0.138653   0.016024
     7  H    0.124635  -0.046584
 Sum of Mulliken charges =  -0.00000   1.00000

 Dipole moment (field-independent basis, Debye):
    X=             -0.2413    Y=             -0.0005    Z=              0.1285  Tot=              0.2734
 Quadrupole moment (field-independent basis, Debye-Ang):
   XX=            -14.0135   YY=            -13.4914   ZZ=            -14.9425
   XY=              0.0014   XZ=              0.1482   YZ=              0.0002

 Normal termination of Gaussian 16 at Wed Oct  7 14:44:56 2020.
