 Gaussian 16, Revision A.03,

 ----------------------------------------------------------------------
 #P Opt(TS,MaxCyc=50,NoEigenTest,MaxStep=10,AddRedundant) BLYP/6-31G* 5
 D 7F Integral=UltraFineGrid SCF=(NoSymm,XQC,MaxCyc=120) IOp(1/33=1)
 ----------------------------------------------------------------------

 TstMul:  Mul=     2
 TstMul:  ICh=     0
 TstMul:  Mul=     2
 Symbolic Z-matrix:
 Charge =  0 Multiplicity = 2

 SCF Done:  E(UB-LYP) =  -118.334526056     A.U. after   15 cycles
 SCF Done:  E(UB-LYP) =  -118.336447574     A.U. after   14 cycles
 SCF Done:  E(UB-LYP) =  -118.335500784     A.U. after   14 cycles
 SCF Done:  E(UB-LYP) =  -118.334884372     A.U. after   14 cycles
 SCF Done:  E(UB-LYP) =  -118.334557142     A.U. after   14 cycles
 SCF Done:  E(UB-LYP) =  -118.334464778     A.U. after   14 cycles
 SCF Done:  E(UB-LYP) =  -118.334463518     A.U. after   11 cycles
 SCF Done:  E(UB-LYP) =  -118.334464709     A.U. after    9 cycles
 SCF Done:  E(UB-LYP) =  -118.334471761     A.U. after   10 cycles
 SCF Done:  E(UB-LYP) =  -118.334482541     A.U. after   11 cycles
 SCF Done:  E(UB-LYP) =  -118.334488055     A.U. after   10 cycles
 SCF Done:  E(UB-LYP) =  -118.334494571     A.U. after   11 cycles
 SCF Done:  E(UB-LYP) =  -118.334495981     A.U. after   10 cycles
 SCF Done:  E(UB-LYP) =  -118.334496649     A.U. after   10 cycles
 Optimization completed.
    -- Stationary point found.
 Normal termination of Gaussian 16 at Wed Oct  7 14:47:58 2020.
 Gaussian 16:  ES64L-G16RevA.03 25-Dec-2016

 ----------------------------------------------------------------------
 #P Freq BLYP/6-31G* 5D 7F Integral=UltraFineGrid SCF=(NoSymm,XQC,MaxCy
 c=120) IOp(1/33=1) Geom=Check Guess=Read
 ----------------------------------------------------------------------

 TstMul:  Mul=     2
 TstMul:  ICh=     0
 TstMul:  Mul=     2
 Structure from the checkpoint file:  "MN_17_c3h7ts_BH76_BLYP_631Gs.chk"
 Charge =  0 Multiplicity = 2

                         Standard orientation:
 ---------------------------------------------------------------------
 Center     Atomic      Atomic             Coordinates (Angstroms)
 Number     Number       Type             X           Y           Z
 ---------------------------------------------------------------------
      1          6           0       -0.536376    0.643434    0.000039
      2          6           0       -1.444855   -0.373442   -0.000018
      3          1           0       -0.268903    1.159023   -0.926073
      4          1           0       -0.268765    1.158805    0.926233
      5          1           0       -1.802750   -0.825510    0.929928
      6          1           0       -1.802876   -0.825256   -0.930039
      7          6           0        1.726618   -0.233483   -0.000028
      8          1           0        2.269352    0.714561   -0.012914
      9          1           0        1.696940   -0.810797   -0.925273
     10          1           0        1.704685   -0.789883    0.938179
 ---------------------------------------------------------------------

 SCF Done:  E(UB-LYP) =  -118.334496649     A.U. after    1 cycles

 The electronic state is 2-A.
 Alpha  occ. eigenvalues --   -9.91677  -9.91275  -9.90949  -0.66626  -0.59208
 Alpha  occ. eigenvalues --   -0.50686  -0.40095  -0.35849  -0.34788  -0.34408
 Alpha  occ. eigenvalues --   -0.29986  -0.23987  -0.14163
 Alpha virt. eigenvalues --    0.00732   0.07881   0.11244   0.11675   0.13963
 Alpha virt. eigenvalues --    0.15753   0.15755   0.21521   0.30015   0.43202
 Alpha virt. eigenvalues --    0.49844   0.50310   0.52122   0.56596   0.56623

  Beta  occ. eigenvalues --   -9.91827  -9.90506  -9.90181  -0.66161  -0.56829
  Beta  occ. eigenvalues --   -0.50293  -0.39936  -0.35460  -0.34068  -0.33836
  Beta  occ. eigenvalues --   -0.29861  -0.22290
  Beta virt. eigenvalues --   -0.07847   0.02304   0.08456   0.11734   0.11879
  Beta virt. eigenvalues --    0.14246   0.16334   0.16342   0.21615   0.30240
  Beta virt. eigenvalues --    0.43727   0.50256   0.51879   0.54260   0.57005

 Mulliken charges and spin densities:
               1          2
     1  C   -0.218794  -0.142378
     2  C   -0.256028   0.370349
     3  H    0.128890   0.008662
     4  H    0.128906   0.008660
     5  H    0.118788  -0.016930
     6  H    0.118781  -0.016930
     7  C   -0.443293   0.884138
     8  H    0.137053  -0.030125
     9  H    0.142905  -0.032722
    10  H    0.142790  -0.032725
 Sum of Mulliken charges =  -0.00000   1.00000

 Dipole moment (field-independent basis, Debye):
    X=              0.1524    Y=              0.0799    Z=              0.0001  Tot=              0.1721
 Quadrupole moment (field-independent basis, Debye-Ang):
   XX=            -21.9074   YY=            -20.4491   ZZ=            -19.4073
   XY=              1.3055   XZ=              0.0004   YZ=             -0.0000

  Exact polarizability:  55.383   6.849  32.176   0.000  -0.003  31.614
 Approx polarizability: 105.443  18.375  52.778   0.002  -0.003  46.977

 ******    1 imaginary frequencies (negative Signs) ******

                      1                      2                      3
                      A                      A                      A
 Frequencies --   -301.3493                83.0906               204.0944
 Red. masses --      9.0355                 1.0907                 2.4845
 Frc consts  --      0.4834                 0.0044                 0.0610
 IR Inten    --      0.5958                 0.0082                 0.8408

                      4                      5                      6
                      A                      A                      A
 Frequencies --    326.8984               443.0720               458.8826
 Red. masses --      1.0621                 1.1123                 1.0936
 Frc consts  --      0.0669                 0.1287                 0.1357
 IR Inten    --      0.3171                 1.7067                 1.0609

                      7                      8                      9
                      A                      A                      A
 Frequencies --    737.8532               807.6000               834.2662
 Red. masses --      1.0768                 1.0434                 1.4226
 Frc consts  --      0.3454                 0.4009                 0.5834
 IR Inten    --      3.9796                 0.6703                29.9449

                     10                     11                     12
                      A                      A                      A
 Frequencies --    908.1463               997.4047              1216.9686
 Red. masses --      1.1552                 1.0190                 1.4954
 Frc consts  --      0.5613                 0.5973                 1.3048
 IR Inten    --     37.5917                 0.0807                 0.0360

                     13                     14                     15
                      A                      A                      A
 Frequencies --   1299.9767              1408.7956              1414.1349
 Red. masses --      1.5940                 1.0959                 1.0952
 Frc consts  --      1.5871                 1.2816                 1.2904
 IR Inten    --      0.8061                 1.5229                 1.3502

                     16                     17                     18
                      A                      A                      A
 Frequencies --   1455.5064              1578.0585              3051.7789
 Red. masses --      1.1131                 1.9474                 1.0119
 Frc consts  --      1.3894                 2.8573                 5.5528
 IR Inten    --      3.0630                 0.1592                 0.1325

                     19                     20                     21
                      A                      A                      A
 Frequencies --   3077.2777              3086.9904              3144.6133
 Red. masses --      1.0493                 1.0629                 1.1145
 Frc consts  --      5.8545                 5.9680                 6.4935
 IR Inten    --     16.7741                 1.8909                 1.1472

                     22                     23                     24
                      A                      A                      A
 Frequencies --   3171.6003              3202.7556              3213.3902
 Red. masses --      1.1178                 1.1156                 1.1159
 Frc consts  --      6.6250                 6.7420                 6.7888
 IR Inten    --     30.6957                13.1587                14.0132

 - Thermochemistry -
 -------------------
 Temperature   298.150 Kelvin.  Pressure   1.00000 Atm.
 Atom     1 has atomic number  6 and mass  12.00000

 Molecular mass:    43.05478 amu.
 Principal axes and moments of inertia in atomic units:
                           1         2         3
     Eigenvalues --    65.64004 311.35107 339.69289
           X            0.99984   0.01795   0.00000
           Y           -0.01795   0.99984  -0.00003
           Z           -0.00000   0.00003   1.00000
 This molecule is an asymmetric top.
 Rotational symmetry number  1.
 Rotational temperatures (Kelvin)      1.31953     0.27819     0.25498
 Rotational constants (GHZ):          27.49452     5.79648     5.31286
    1 imaginary frequencies ignored.
 Zero-point vibrational energy     216064.5 (Joules/Mol)
                                   51.64064 (Kcal/Mol)
 Warning -- explicit consideration of   5 degrees of freedom as
           vibrations may cause significant error
 Vibrational temperatures:    119.55   293.65   470.33   637.48   660.23
          (Kelvin)           1061.61  1161.96  1200.32  1306.62  1435.04
                             1750.95  1870.38  2026.94  2034.62  2094.15
                             2270.47  4390.83  4427.52  4441.49  4524.40
                             4563.23  4608.05  4623.35

 Zero-point correction=                           0.082295 (Hartree/Particle)
 Thermal correction to Energy=                    0.087746
 Thermal correction to Enthalpy=                  0.088691
 Thermal correction to Gibbs Free Energy=         0.054570
 Sum of electronic and zero-point Energies=           -118.252202
 Sum of electronic and thermal Energies=              -118.246750
 Sum of electronic and thermal Enthalpies=            -118.245806
 Sum of electronic and thermal Free Energies=         -118.279926

                     E (Thermal)             CV                S
                      KCal/Mol        Cal/Mol-Kelvin    Cal/Mol-Kelvin
 Total                   55.062             17.648             71.812
 Electronic               0.000              0.000              1.377
 Translational            0.889              2.981             37.206
 Rotational               0.889              2.981             23.455
 Vibrational             53.284             11.687              9.773
 Vibration     1          0.600              1.961              3.817
 Vibration     2          0.640              1.834              2.096
 Vibration     3          0.711              1.622              1.275
 Vibration     4          0.803              1.376              0.817
 Vibration     5          0.817              1.341              0.769

                           ! Non-Optimized Parameters !
 Normal termination of Gaussian 16 at Wed Oct  7 14:48:38 2020.
