 Gaussian 16, Revision A.03,
 Gaussian 16:  ES64L-G16RevA.03 25-Dec-2016

 ----------------------------------------------------------------------
 #P Opt(MaxCyc=100) BLYP/6-31G* 5D 7F Integral=UltraFineGrid SCF=(NoSym
 m,XQC,MaxCyc=120) IOp(1/33=1)
 ----------------------------------------------------------------------

 TstMul:  Mul=     2
 TstMul:  ICh=     0
 TstMul:  Mul=     2
 Symbolic Z-matrix:
 Charge =  0 Multiplicity = 2

 SCF Done:  E(UB-LYP) =  -118.379219116     A.U. after   14 cycles
 SCF Done:  E(UB-LYP) =  -118.380334400     A.U. after   12 cycles
 SCF Done:  E(UB-LYP) =  -118.380345472     A.U. after    9 cycles
 SCF Done:  E(UB-LYP) =  -118.380347271     A.U. after    8 cycles
 Optimization completed.
    -- Stationary point found.

                         Standard orientation:
 ---------------------------------------------------------------------
 Center     Atomic      Atomic             Coordinates (Angstroms)
 Number     Number       Type             X           Y           Z
 ---------------------------------------------------------------------
      1          6           0        1.228970   -0.286884    0.000060
      2          6           0       -0.074169    0.575411   -0.000058
      3          6           0       -1.332588   -0.240101   -0.000014
      4          1           0        1.272994   -0.935206    0.891261
      5          1           0        1.273019   -0.935410   -0.890991
      6          1           0        2.124535    0.359620   -0.000004
      7          1           0       -0.050227    1.236188   -0.887441
      8          1           0       -0.050286    1.236380    0.887178
      9          1           0       -1.751837   -0.625757    0.933406
     10          1           0       -1.751476   -0.626373   -0.933342
 ---------------------------------------------------------------------

 The electronic state is 2-A.
 Alpha  occ. eigenvalues --   -9.91627  -9.91405  -9.90638  -0.68914  -0.59179
 Alpha  occ. eigenvalues --   -0.50754  -0.40051  -0.36820  -0.33713  -0.32120
 Alpha  occ. eigenvalues --   -0.29728  -0.28242  -0.14821
 Alpha virt. eigenvalues --    0.08134   0.11370   0.11627   0.13075   0.14976
 Alpha virt. eigenvalues --    0.15187   0.19393   0.19830   0.24365   0.48436
 Alpha virt. eigenvalues --    0.50008   0.50303   0.52339   0.55180   0.57401

  Beta  occ. eigenvalues --   -9.91692  -9.90502  -9.90183  -0.68108  -0.57783
  Beta  occ. eigenvalues --   -0.49692  -0.39678  -0.36388  -0.33287  -0.31311
  Beta  occ. eigenvalues --   -0.29274  -0.28064
  Beta virt. eigenvalues --   -0.06844   0.08464   0.11802   0.12480   0.13281
  Beta virt. eigenvalues --    0.15286   0.15334   0.19783   0.20255   0.25235
  Beta virt. eigenvalues --    0.49129   0.50449   0.52667   0.52883   0.57680

 Mulliken charges and spin densities:
               1          2
     1  C   -0.388437   0.052879
     2  C   -0.213681  -0.061553
     3  C   -0.269665   1.058995
     4  H    0.129907  -0.000266
     5  H    0.129905  -0.000268
     6  H    0.124924   0.015133
     7  H    0.121818   0.013525
     8  H    0.121814   0.013499
     9  H    0.121709  -0.045972
    10  H    0.121705  -0.045971
 Sum of Mulliken charges =   0.00000   1.00000

 Dipole moment (field-independent basis, Debye):
    X=              0.2491    Y=              0.0017    Z=              0.0000  Tot=              0.2492
 Quadrupole moment (field-independent basis, Debye-Ang):
   XX=            -21.6184   YY=            -21.1602   ZZ=            -20.0128
   XY=              0.6864   XZ=             -0.0004   YZ=              0.0004

 Normal termination of Gaussian 16 at Wed Oct  7 14:45:50 2020.
