 Gaussian 16, Revision A.03,
 Gaussian 16:  ES64L-G16RevA.03 25-Dec-2016

 ----------------------------------------------------------------------
 #P Opt(MaxCyc=100) BLYP/6-31G* 5D 7F Integral=UltraFineGrid SCF=(NoSym
 m,XQC,MaxCyc=120) IOp(1/33=1)
 ----------------------------------------------------------------------

 TstMul:  Mul=     1
 TstMul:  ICh=     0
 TstMul:  Mul=     1
 Symbolic Z-matrix:
 Charge =  0 Multiplicity = 1

 SCF Done:  E(RB-LYP) =  -195.187273123     A.U. after   14 cycles
 SCF Done:  E(RB-LYP) =  -195.189005124     A.U. after   13 cycles
 SCF Done:  E(RB-LYP) =  -195.189037524     A.U. after   11 cycles
 SCF Done:  E(RB-LYP) =  -195.189039288     A.U. after    8 cycles
 Optimization completed.
    -- Stationary point found.

                         Standard orientation:
 ---------------------------------------------------------------------
 Center     Atomic      Atomic             Coordinates (Angstroms)
 Number     Number       Type             X           Y           Z
 ---------------------------------------------------------------------
      1          6           0       -2.089323   -0.609741    0.000001
      2          6           0       -1.243177    0.641522    0.000050
      3          6           0        0.112669    0.731310    0.000034
      4          6           0        1.072153   -0.370842   -0.000035
      5          6           0        2.415621   -0.202725   -0.000044
      6          1           0       -2.752762   -0.635084    0.885202
      7          1           0       -2.752794   -0.634993   -0.885178
      8          1           0       -1.493729   -1.535122   -0.000057
      9          1           0       -1.808829    1.582073    0.000105
     10          1           0        0.556498    1.735568    0.000076
     11          1           0        0.672226   -1.391510   -0.000082
     12          1           0        3.103094   -1.052542   -0.000096
     13          1           0        2.868642    0.794470    0.000000
 ---------------------------------------------------------------------

 The electronic state is 1-A.
 Alpha  occ. eigenvalues --   -9.91937  -9.91799  -9.91407  -9.91362  -9.90808
 Alpha  occ. eigenvalues --   -0.71411  -0.66556  -0.60151  -0.51890  -0.46311
 Alpha  occ. eigenvalues --   -0.41264  -0.38449  -0.35606  -0.34586  -0.32502
 Alpha  occ. eigenvalues --   -0.31413  -0.28113  -0.26157  -0.18048
 Alpha virt. eigenvalues --   -0.03992   0.05906   0.07980   0.08566   0.10889
 Alpha virt. eigenvalues --    0.13549   0.14562   0.14786   0.16575   0.20015
 Alpha virt. eigenvalues --    0.22242   0.30175   0.34743   0.40058   0.44242

 Mulliken charges:
               1
     1  C   -0.445589
     2  C   -0.082091
     3  C   -0.085307
     4  C   -0.023812
     5  C   -0.318701
     6  H    0.143591
     7  H    0.143590
     8  H    0.141886
     9  H    0.100938
    10  H    0.091387
    11  H    0.096263
    12  H    0.119423
    13  H    0.118422
 Sum of Mulliken charges =  -0.00000

 Dipole moment (field-independent basis, Debye):
    X=             -0.5370    Y=             -0.1442    Z=              0.0000  Tot=              0.5561
 Quadrupole moment (field-independent basis, Debye-Ang):
   XX=            -29.1694   YY=            -29.7029   ZZ=            -34.1067
   XY=              0.0801   XZ=             -0.0001   YZ=              0.0002

 Normal termination of Gaussian 16 at Wed Oct  7 14:46:06 2020.
