 Gaussian 16, Revision A.03,
 Gaussian 16:  ES64L-G16RevA.03 25-Dec-2016

 ----------------------------------------------------------------------
 #P Opt(MaxCyc=100) BLYP/6-31G* 5D 7F Integral=UltraFineGrid SCF=(NoSym
 m,XQC,MaxCyc=120) IOp(1/33=1)
 ----------------------------------------------------------------------

 TstMul:  Mul=     2
 TstMul:  ICh=     0
 TstMul:  Mul=     2
 Symbolic Z-matrix:
 Charge =  0 Multiplicity = 2

 SCF Done:  E(UB-LYP) =  -79.0950481051     A.U. after   13 cycles
 SCF Done:  E(UB-LYP) =  -79.0957558617     A.U. after   11 cycles
 SCF Done:  E(UB-LYP) =  -79.0957633874     A.U. after    9 cycles
 Optimization completed.
    -- Stationary point found.

                         Standard orientation:
 ---------------------------------------------------------------------
 Center     Atomic      Atomic             Coordinates (Angstroms)
 Number     Number       Type             X           Y           Z
 ---------------------------------------------------------------------
      1          6           0       -0.010933   -0.697610   -0.000000
      2          6           0       -0.010933    0.799949    0.000000
      3          1           0        1.020129   -1.119003   -0.000000
      4          1           0       -0.512173   -1.109236    0.894282
      5          1           0       -0.512173   -1.109236   -0.894282
      6          1           0        0.067705    1.361719   -0.933977
      7          1           0        0.067705    1.361719    0.933977
 ---------------------------------------------------------------------

 The electronic state is 2-A'.
 Alpha  occ. eigenvalues --   -9.91555  -9.91132  -0.66500  -0.53119  -0.38726
 Alpha  occ. eigenvalues --   -0.35215  -0.33220  -0.30291  -0.14689
 Alpha virt. eigenvalues --    0.09078   0.11226   0.12085   0.14867   0.19190
 Alpha virt. eigenvalues --    0.22937   0.48193   0.50510   0.51225   0.56890
 Alpha virt. eigenvalues --    0.58051   0.70274   0.74232   0.80770   0.81988

  Beta  occ. eigenvalues --   -9.91202  -9.90323  -0.65198  -0.51256  -0.38182
  Beta  occ. eigenvalues --   -0.34191  -0.32506  -0.29918
  Beta virt. eigenvalues --   -0.06476   0.09450   0.12278   0.12510   0.15492
  Beta virt. eigenvalues --    0.19605   0.23790   0.48687   0.50713   0.55725
  Beta virt. eigenvalues --    0.58273   0.60692   0.70910   0.75859   0.81479

 Mulliken charges and spin densities:
               1          2
     1  C   -0.404207  -0.070114
     2  C   -0.263100   1.066030
     3  H    0.141019   0.066415
     4  H    0.138577   0.015402
     5  H    0.138577   0.015402
     6  H    0.124567  -0.046568
     7  H    0.124567  -0.046568
 Sum of Mulliken charges =  -0.00000   1.00000

 Dipole moment (field-independent basis, Debye):
    X=              0.1252    Y=             -0.2430    Z=              0.0000  Tot=              0.2733
 Quadrupole moment (field-independent basis, Debye-Ang):
   XX=            -14.9381   YY=            -14.0189   ZZ=            -13.4907
   XY=              0.1608   XZ=              0.0000   YZ=              0.0000

 Normal termination of Gaussian 16 at Wed Oct  7 14:44:49 2020.
