 Gaussian 16, Revision A.03,
 Gaussian 16:  ES64L-G16RevA.03 25-Dec-2016

 ----------------------------------------------------------------------
 #P Opt(MaxCyc=100) BLYP/6-31G* 5D 7F Integral=UltraFineGrid SCF=(NoSym
 m,XQC,MaxCyc=120) IOp(1/33=1)
 ----------------------------------------------------------------------

 TstMul:  Mul=     1
 TstMul:  ICh=     0
 TstMul:  Mul=     1
 Symbolic Z-matrix:
 Charge =  0 Multiplicity = 1

 SCF Done:  E(RB-LYP) =  -78.5343946029     A.U. after    9 cycles
 SCF Done:  E(RB-LYP) =  -78.5349926272     A.U. after    8 cycles
 SCF Done:  E(RB-LYP) =  -78.5349969172     A.U. after    6 cycles
 Optimization completed.
    -- Stationary point found.

                         Standard orientation:
 ---------------------------------------------------------------------
 Center     Atomic      Atomic             Coordinates (Angstroms)
 Number     Number       Type             X           Y           Z
 ---------------------------------------------------------------------
      1          6           0        0.000000    0.000000    0.670722
      2          6           0        0.000000   -0.000000   -0.670722
      3          1           0       -0.000000    0.929826    1.248656
      4          1           0       -0.000000   -0.929826    1.248656
      5          1           0        0.000000    0.929826   -1.248656
      6          1           0       -0.000000   -0.929826   -1.248656
 ---------------------------------------------------------------------

 The electronic state is 1-AG.
 Alpha  occ. eigenvalues --   -9.91395  -9.91346  -0.66841  -0.50892  -0.40432
 Alpha  occ. eigenvalues --   -0.35819  -0.30247  -0.22299
 Alpha virt. eigenvalues --   -0.00965   0.09687   0.11301   0.12851   0.21544
 Alpha virt. eigenvalues --    0.30271   0.45201   0.50871   0.53301   0.58968
 Alpha virt. eigenvalues --    0.62431   0.64402   0.79561   0.80996   0.86943

 Mulliken charges:
               1
     1  C   -0.244865
     2  C   -0.244865
     3  H    0.122432
     4  H    0.122432
     5  H    0.122432
     6  H    0.122432
 Sum of Mulliken charges =   0.00000

 Dipole moment (field-independent basis, Debye):
    X=             -0.0000    Y=             -0.0000    Z=              0.0000  Tot=              0.0000
 Quadrupole moment (field-independent basis, Debye-Ang):
   XX=            -14.9860   YY=            -12.1981   ZZ=            -12.1140
   XY=              0.0000   XZ=             -0.0000   YZ=             -0.0000

 Normal termination of Gaussian 16 at Wed Oct  7 14:44:46 2020.
