 Gaussian 16, Revision A.03,
 Gaussian 16:  ES64L-G16RevA.03 25-Dec-2016

 ----------------------------------------------------------------------
 #P Opt(MaxCyc=100) BLYP/6-31G* 5D 7F Integral=UltraFineGrid SCF=(NoSym
 m,XQC,MaxCyc=120) IOp(1/33=1)
 ----------------------------------------------------------------------

 TstMul:  Mul=     1
 TstMul:  ICh=     0
 TstMul:  Mul=     1
 Symbolic Z-matrix:
 Charge =  0 Multiplicity = 1

 SCF Done:  E(RB-LYP) =  -79.7606299357     A.U. after    9 cycles
 SCF Done:  E(RB-LYP) =  -79.7614225555     A.U. after    9 cycles
 SCF Done:  E(RB-LYP) =  -79.7614250454     A.U. after    6 cycles
 Optimization completed.
    -- Stationary point found.

                         Standard orientation:
 ---------------------------------------------------------------------
 Center     Atomic      Atomic             Coordinates (Angstroms)
 Number     Number       Type             X           Y           Z
 ---------------------------------------------------------------------
      1          6           0       -0.770707    0.000000   -0.000000
      2          6           0        0.770707   -0.000000    0.000000
      3          1           0        1.172671   -1.024833    0.078409
      4          1           0       -1.172665   -0.444995    0.926506
      5          1           0        1.172666    0.580324    0.848326
      6          1           0        1.172664    0.444514   -0.926737
      7          1           0       -1.172671    1.024873   -0.077877
      8          1           0       -1.172666   -0.579883   -0.848627
 ---------------------------------------------------------------------

 The electronic state is 1-A.
 Alpha  occ. eigenvalues --   -9.90284  -9.90283  -0.66213  -0.53879  -0.37185
 Alpha  occ. eigenvalues --   -0.37185  -0.30976  -0.28936  -0.28936
 Alpha virt. eigenvalues --    0.08113   0.12887   0.13564   0.13564   0.16324
 Alpha virt. eigenvalues --    0.16324   0.20919   0.48284   0.50919   0.50919
 Alpha virt. eigenvalues --    0.60035   0.60036   0.61127   0.82700   0.82700

 Mulliken charges:
               1
     1  C   -0.386390
     2  C   -0.386390
     3  H    0.128797
     4  H    0.128797
     5  H    0.128797
     6  H    0.128797
     7  H    0.128797
     8  H    0.128797
 Sum of Mulliken charges =  -0.00000

 Dipole moment (field-independent basis, Debye):
    X=             -0.0000    Y=              0.0000    Z=             -0.0000  Tot=              0.0000
 Quadrupole moment (field-independent basis, Debye-Ang):
   XX=            -15.2661   YY=            -14.7744   ZZ=            -14.7744
   XY=             -0.0000   XZ=              0.0000   YZ=              0.0000

 Normal termination of Gaussian 16 at Wed Oct  7 14:45:19 2020.
