 Gaussian 16, Revision A.03,
 Gaussian 16:  ES64L-G16RevA.03 25-Dec-2016

 ----------------------------------------------------------------------
 #P Opt(MaxCyc=100) BLYP/6-31G* 5D 7F Integral=UltraFineGrid SCF=(NoSym
 m,XQC,MaxCyc=120) IOp(1/33=1)
 ----------------------------------------------------------------------

 TstMul:  Mul=     1
 TstMul:  ICh=     0
 TstMul:  Mul=     1
 Symbolic Z-matrix:
 Charge =  0 Multiplicity = 1

 SCF Done:  E(RB-LYP) =  -500.052076970     A.U. after   11 cycles
 SCF Done:  E(RB-LYP) =  -500.053015161     A.U. after   10 cycles
 SCF Done:  E(RB-LYP) =  -500.053058035     A.U. after    8 cycles
 SCF Done:  E(RB-LYP) =  -500.053069438     A.U. after    8 cycles
 Optimization completed.
    -- Stationary point found.

                         Standard orientation:
 ---------------------------------------------------------------------
 Center     Atomic      Atomic             Coordinates (Angstroms)
 Number     Number       Type             X           Y           Z
 ---------------------------------------------------------------------
      1          6           0        0.000000    0.000000   -1.153537
      2         17           0        0.000000    0.000000    0.671642
      3          1           0        0.000000    1.041858   -1.498897
      4          1           0        0.902275   -0.520929   -1.498897
      5          1           0       -0.902275   -0.520929   -1.498897
 ---------------------------------------------------------------------

 The electronic state is 1-A1.
 Alpha  occ. eigenvalues -- -100.71481  -9.97384  -9.15902  -6.99313  -6.98106
 Alpha  occ. eigenvalues --   -6.98106  -0.75861  -0.60555  -0.39386  -0.39386
 Alpha  occ. eigenvalues --   -0.36134  -0.24667  -0.24667
 Alpha virt. eigenvalues --   -0.00858   0.07985   0.11591   0.11591   0.37491
 Alpha virt. eigenvalues --    0.41849   0.42733   0.42733   0.49231   0.49231
 Alpha virt. eigenvalues --    0.51285   0.78329   0.78329   0.80988   0.84161

 Mulliken charges:
               1
     1  C   -0.474549
     2  Cl  -0.091851
     3  H    0.188800
     4  H    0.188800
     5  H    0.188800
 Sum of Mulliken charges =  -0.00000

 Dipole moment (field-independent basis, Debye):
    X=             -0.0000    Y=             -0.0000    Z=             -2.0577  Tot=              2.0577
 Quadrupole moment (field-independent basis, Debye-Ang):
   XX=            -19.7854   YY=            -19.7854   ZZ=            -17.9251
   XY=             -0.0000   XZ=              0.0000   YZ=              0.0000

 Normal termination of Gaussian 16 at Wed Oct  7 14:45:58 2020.
