 Gaussian 16, Revision A.03,
 Gaussian 16:  ES64L-G16RevA.03 25-Dec-2016

 ----------------------------------------------------------------------
 #P Opt(MaxCyc=100) BLYP/6-31G* 5D 7F Integral=UltraFineGrid SCF=(NoSym
 m,XQC,MaxCyc=120) IOp(1/33=1)
 ----------------------------------------------------------------------

 TstMul:  Mul=     1
 TstMul:  ICh=     0
 TstMul:  Mul=     1
 Symbolic Z-matrix:
 Charge =  0 Multiplicity = 1

 SCF Done:  E(RB-LYP) =  -139.690558495     A.U. after   10 cycles
 SCF Done:  E(RB-LYP) =  -139.691464579     A.U. after   10 cycles
 SCF Done:  E(RB-LYP) =  -139.691472648     A.U. after    7 cycles
 Optimization completed.
    -- Stationary point found.

                         Standard orientation:
 ---------------------------------------------------------------------
 Center     Atomic      Atomic             Coordinates (Angstroms)
 Number     Number       Type             X           Y           Z
 ---------------------------------------------------------------------
      1          6           0        0.000000    0.000000   -0.636206
      2          9           0        0.000000    0.000000    0.760644
      3          1           0        0.000000    1.040182   -1.009519
      4          1           0        0.900824   -0.520091   -1.009519
      5          1           0       -0.900824   -0.520091   -1.009519
 ---------------------------------------------------------------------

 The electronic state is 1-A1.
 Alpha  occ. eigenvalues --  -24.26079  -9.98305  -1.05244  -0.61468  -0.40922
 Alpha  occ. eigenvalues --   -0.40303  -0.40303  -0.26609  -0.26609
 Alpha virt. eigenvalues --    0.07879   0.09610   0.13595   0.13595   0.46850
 Alpha virt. eigenvalues --    0.51625   0.51625   0.78474   0.78474   0.80817
 Alpha virt. eigenvalues --    0.94169   1.19395   1.20005   1.20005   1.46995

 Mulliken charges:
               1
     1  C   -0.077518
     2  F   -0.306419
     3  H    0.127979
     4  H    0.127979
     5  H    0.127979
 Sum of Mulliken charges =   0.00000

 Dipole moment (field-independent basis, Debye):
    X=              0.0000    Y=              0.0000    Z=             -1.6152  Tot=              1.6152
 Quadrupole moment (field-independent basis, Debye-Ang):
   XX=            -11.7625   YY=            -11.7625   ZZ=            -11.9872
   XY=             -0.0000   XZ=             -0.0000   YZ=             -0.0000

 Normal termination of Gaussian 16 at Wed Oct  7 14:45:47 2020.
