 Gaussian 16, Revision A.03,
 Gaussian 16:  ES64L-G16RevA.03 25-Dec-2016

 ----------------------------------------------------------------------
 #P Opt(MaxCyc=100) BLYP/6-31G* 5D 7F Integral=UltraFineGrid SCF=(NoSym
 m,XQC,MaxCyc=120) IOp(1/33=1)
 ----------------------------------------------------------------------

 TstMul:  Mul=     1
 TstMul:  ICh=     0
 TstMul:  Mul=     1
 Symbolic Z-matrix:
 Charge =  0 Multiplicity = 1

 SCF Done:  E(RB-LYP) =  -40.4778090232     A.U. after    8 cycles
 SCF Done:  E(RB-LYP) =  -40.4782246265     A.U. after    6 cycles
 Optimization completed.
    -- Stationary point found.

                         Standard orientation:
 ---------------------------------------------------------------------
 Center     Atomic      Atomic             Coordinates (Angstroms)
 Number     Number       Type             X           Y           Z
 ---------------------------------------------------------------------
      1          6           0        0.000000    0.000000    0.000000
      2          1           0        0.635300    0.635300    0.635300
      3          1           0       -0.635300   -0.635300    0.635300
      4          1           0        0.635300   -0.635300   -0.635300
      5          1           0       -0.635300    0.635300   -0.635300
 ---------------------------------------------------------------------

 The electronic state is 1-A1.
 Alpha  occ. eigenvalues --   -9.89665  -0.61067  -0.33464  -0.33464  -0.33464
 Alpha virt. eigenvalues --    0.09320   0.14890   0.14890   0.14890   0.49982
 Alpha virt. eigenvalues --    0.49982   0.49982   0.83735   0.83735   0.83735
 Alpha virt. eigenvalues --    0.87750   1.06990   1.60200   1.60200   2.16521

 Mulliken charges:
               1
     1  C   -0.577372
     2  H    0.144343
     3  H    0.144343
     4  H    0.144343
     5  H    0.144343
 Sum of Mulliken charges =  -0.00000

 Dipole moment (field-independent basis, Debye):
    X=             -0.0000    Y=             -0.0000    Z=             -0.0000  Tot=              0.0000
 Quadrupole moment (field-independent basis, Debye-Ang):
   XX=             -8.2774   YY=             -8.2774   ZZ=             -8.2774
   XY=              0.0000   XZ=              0.0000   YZ=             -0.0000

 Normal termination of Gaussian 16 at Wed Oct  7 14:46:06 2020.
