 Gaussian 16, Revision A.03,

 ----------------------------------------------------------------------
 #P Opt(TS,MaxCyc=50,NoEigenTest,MaxStep=10,AddRedundant) BLYP/6-31G* 5
 D 7F Integral=UltraFineGrid SCF=(NoSymm,XQC,MaxCyc=120) IOp(1/33=1)
 ----------------------------------------------------------------------

 TstMul:  Mul=     1
 TstMul:  ICh=    -1
 TstMul:  Mul=     1
 Symbolic Z-matrix:
 Charge = -1 Multiplicity = 1

 SCF Done:  E(RB-LYP) =  -960.288694449     A.U. after   13 cycles
 SCF Done:  E(RB-LYP) =  -960.289610560     A.U. after   12 cycles
 SCF Done:  E(RB-LYP) =  -960.290032940     A.U. after   11 cycles
 SCF Done:  E(RB-LYP) =  -960.290192268     A.U. after   12 cycles
 SCF Done:  E(RB-LYP) =  -960.290203770     A.U. after    9 cycles
 SCF Done:  E(RB-LYP) =  -960.290201885     A.U. after    8 cycles
 Optimization completed.
    -- Stationary point found.
 Normal termination of Gaussian 16 at Wed Oct  7 14:47:32 2020.
 Gaussian 16:  ES64L-G16RevA.03 25-Dec-2016

 ----------------------------------------------------------------------
 #P Freq BLYP/6-31G* 5D 7F Integral=UltraFineGrid SCF=(NoSymm,XQC,MaxCy
 c=120) IOp(1/33=1) Geom=Check Guess=Read
 ----------------------------------------------------------------------

 TstMul:  Mul=     1
 TstMul:  ICh=    -1
 TstMul:  Mul=     1
 Structure from the checkpoint file:  "MN_28_clch3clts_BH76_BLYP_631Gs.chk"
 Charge = -1 Multiplicity = 1

                         Standard orientation:
 ---------------------------------------------------------------------
 Center     Atomic      Atomic             Coordinates (Angstroms)
 Number     Number       Type             X           Y           Z
 ---------------------------------------------------------------------
      1         17           0        2.403836    0.000006   -0.000044
      2          6           0       -0.018384   -0.000023    0.000157
      3          1           0       -0.004657    0.936902   -0.538828
      4          1           0       -0.004693   -0.935300   -0.541689
      5          1           0       -0.004660   -0.001677    1.081062
      6         17           0       -2.396524    0.000007   -0.000044
 ---------------------------------------------------------------------

 SCF Done:  E(RB-LYP) =  -960.290201885     A.U. after    1 cycles

 The electronic state is 1-A.
 Alpha  occ. eigenvalues -- -100.48442-100.47785  -9.81127  -8.92576  -8.91901
 Alpha  occ. eigenvalues --   -6.75577  -6.75040  -6.75040  -6.74879  -6.74379
 Alpha  occ. eigenvalues --   -6.74379  -0.49961  -0.47248  -0.42995  -0.22722
 Alpha  occ. eigenvalues --   -0.22721  -0.10727  -0.04281  -0.04281  -0.03620
 Alpha  occ. eigenvalues --   -0.03481  -0.03481
 Alpha virt. eigenvalues --    0.10797   0.23115   0.29661   0.29662   0.54179
 Alpha virt. eigenvalues --    0.54616   0.60286   0.60288   0.61093   0.61093
 Alpha virt. eigenvalues --    0.66740   0.69436   0.69437   0.69814   0.82809

 Mulliken charges:
               1
     1  Cl  -0.639685
     2  C   -0.327930
     3  H    0.193815
     4  H    0.193811
     5  H    0.193788
     6  Cl  -0.613800
 Sum of Mulliken charges =  -1.00000

 Dipole moment (field-independent basis, Debye):
    X=             -0.2868    Y=             -0.0001    Z=              0.0004  Tot=              0.2868
 Quadrupole moment (field-independent basis, Debye-Ang):
   XX=            -72.4551   YY=            -35.4771   ZZ=            -35.4774
   XY=              0.0000   XZ=              0.0000   YZ=             -0.0000

  Exact polarizability: 105.004   0.000  22.774   0.000   0.000  22.774
 Approx polarizability: 235.558   0.000  32.898   0.000   0.000  32.898

 ******    1 imaginary frequencies (negative Signs) ******

                      1                      2                      3
                      A                      A                      A
 Frequencies --   -264.2914               181.3601               181.4742
 Red. masses --     13.2392                 4.3459                 4.3464
 Frc consts  --      0.5449                 0.0842                 0.0843
 IR Inten    --    730.0101                12.2099                12.2089

                      4                      5                      6
                      A                      A                      A
 Frequencies --    197.1382               864.2486               864.3347
 Red. masses --     34.9246                 1.0124                 1.0124
 Frc consts  --      0.7997                 0.4455                 0.4456
 IR Inten    --      0.0209                 0.0003                 0.0003

                      7                      8                      9
                      A                      A                      A
 Frequencies --    952.6786              1390.9016              1390.9139
 Red. masses --      1.0438                 1.1045                 1.1045
 Frc consts  --      0.5582                 1.2589                 1.2590
 IR Inten    --     52.8018                 4.1765                 4.1763

                     10                     11                     12
                      A                      A                      A
 Frequencies --   3152.9511              3340.0074              3340.0966
 Red. masses --      1.0079                 1.1228                 1.1229
 Frc consts  --      5.9031                 7.3801                 7.3806
 IR Inten    --      0.0257                 0.0137                 0.0134

 - Thermochemistry -
 -------------------
 Temperature   298.150 Kelvin.  Pressure   1.00000 Atm.
 Atom     1 has atomic number 17 and mass  34.96885

 Molecular mass:    84.96118 amu.
 Principal axes and moments of inertia in atomic units:
                           1         2         3
     Eigenvalues --    12.614641445.113181445.11360
           X            1.00000   0.00000   0.00000
           Y           -0.00000   1.00000   0.00027
           Z           -0.00000  -0.00027   1.00000
 This molecule is an asymmetric top.
 Rotational symmetry number  1.
 Rotational temperatures (Kelvin)      6.86614     0.05994     0.05994
 Rotational constants (GHZ):         143.06717     1.24886     1.24886
    1 imaginary frequencies ignored.
 Zero-point vibrational energy      94840.6 (Joules/Mol)
                                   22.66744 (Kcal/Mol)
 Warning -- explicit consideration of   3 degrees of freedom as
           vibrations may cause significant error
 Vibrational temperatures:    260.94   261.10   283.64  1243.46  1243.58
          (Kelvin)           1370.69  2001.20  2001.21  4536.39  4805.53
                             4805.65

 Zero-point correction=                           0.036123 (Hartree/Particle)
 Thermal correction to Energy=                    0.040885
 Thermal correction to Enthalpy=                  0.041829
 Thermal correction to Gibbs Free Energy=         0.007965
 Sum of electronic and zero-point Energies=           -960.254079
 Sum of electronic and thermal Energies=              -960.249317
 Sum of electronic and thermal Enthalpies=            -960.248373
 Sum of electronic and thermal Free Energies=         -960.282237

                     E (Thermal)             CV                S
                      KCal/Mol        Cal/Mol-Kelvin    Cal/Mol-Kelvin
 Total                   25.656             13.287             71.272
 Electronic               0.000              0.000              0.000
 Translational            0.889              2.981             39.232
 Rotational               0.889              2.981             24.780
 Vibrational             23.878              7.326              7.259
 Vibration     1          0.630              1.865              2.314
 Vibration     2          0.630              1.865              2.313
 Vibration     3          0.637              1.844              2.160

                           ! Non-Optimized Parameters !
 Normal termination of Gaussian 16 at Wed Oct  7 14:48:01 2020.
