 Gaussian 16, Revision A.03,
 Gaussian 16:  ES64L-G16RevA.03 25-Dec-2016

 ----------------------------------------------------------------------
 #P BLYP/6-31G* 5D 7F Integral=UltraFineGrid SCF=(NoSymm,XQC,MaxCyc=120
 ) IOp(1/33=1)
 ----------------------------------------------------------------------

 TstMul:  Mul=     1
 TstMul:  ICh=    -1
 TstMul:  Mul=     1
 Symbolic Z-matrix:
 Charge = -1 Multiplicity = 1

                         Standard orientation:
 ---------------------------------------------------------------------
 Center     Atomic      Atomic             Coordinates (Angstroms)
 Number     Number       Type             X           Y           Z
 ---------------------------------------------------------------------
      1         17           0        0.000000    0.000000    0.000000
 ---------------------------------------------------------------------

 SCF Done:  E(RB-LYP) =  -460.221416026     A.U. after    8 cycles

 The electronic state is 1-A1G.
 Alpha  occ. eigenvalues -- -100.36688  -8.80569  -6.63238  -6.63238  -6.63238
 Alpha  occ. eigenvalues --   -0.35290   0.06502   0.06502   0.06502
 Alpha virt. eigenvalues --    0.62126   0.70254   0.70254   0.70254   1.17070
 Alpha virt. eigenvalues --    1.17070   1.17070   1.17070   1.17070

 Mulliken charges:
               1
     1  Cl  -1.000000
 Sum of Mulliken charges =  -1.00000

 Dipole moment (field-independent basis, Debye):
    X=             -0.0000    Y=              0.0000    Z=             -0.0000  Tot=              0.0000
 Quadrupole moment (field-independent basis, Debye-Ang):
   XX=            -15.6649   YY=            -15.6649   ZZ=            -15.6649
   XY=             -0.0000   XZ=             -0.0000   YZ=             -0.0000

 Normal termination of Gaussian 16 at Thu Oct  8 18:58:57 2020.
