 Gaussian 16, Revision A.03,
 Gaussian 16:  ES64L-G16RevA.03 25-Dec-2016

 ----------------------------------------------------------------------
 #P Opt(MaxCyc=100) BLYP/6-31G* 5D 7F Integral=UltraFineGrid SCF=(NoSym
 m,XQC,MaxCyc=120) IOp(1/33=1)
 ----------------------------------------------------------------------

 TstMul:  Mul=     1
 TstMul:  ICh=    -1
 TstMul:  Mul=     1
 Symbolic Z-matrix:
 Charge = -1 Multiplicity = 1

 SCF Done:  E(RB-LYP) =  -960.293519217     A.U. after   13 cycles
 SCF Done:  E(RB-LYP) =  -960.295232283     A.U. after   12 cycles
 SCF Done:  E(RB-LYP) =  -960.295552604     A.U. after   12 cycles
 SCF Done:  E(RB-LYP) =  -960.295817332     A.U. after   12 cycles
 SCF Done:  E(RB-LYP) =  -960.295935223     A.U. after   12 cycles
 SCF Done:  E(RB-LYP) =  -960.295974396     A.U. after   11 cycles
 SCF Done:  E(RB-LYP) =  -960.295975482     A.U. after    8 cycles
 SCF Done:  E(RB-LYP) =  -960.295975596     A.U. after    7 cycles
 Optimization completed.
    -- Stationary point found.

                         Standard orientation:
 ---------------------------------------------------------------------
 Center     Atomic      Atomic             Coordinates (Angstroms)
 Number     Number       Type             X           Y           Z
 ---------------------------------------------------------------------
      1         17           0        0.000000    0.000000   -2.387410
      2          6           0        0.000000    0.000000   -0.453060
      3          1           0       -0.000000    1.044153   -0.137648
      4          1           0       -0.904263   -0.522077   -0.137648
      5          1           0        0.904263   -0.522077   -0.137648
      6         17           0        0.000000    0.000000    2.571604
 ---------------------------------------------------------------------

 The electronic state is 1-A1.
 Alpha  occ. eigenvalues -- -100.56162-100.41502  -9.80999  -9.00548  -8.85467
 Alpha  occ. eigenvalues --   -6.83793  -6.82848  -6.82848  -6.68226  -6.68078
 Alpha  occ. eigenvalues --   -6.68078  -0.58801  -0.44843  -0.40088  -0.22683
 Alpha  occ. eigenvalues --   -0.22683  -0.19154  -0.10325  -0.10325   0.01441
 Alpha  occ. eigenvalues --    0.01958   0.01958
 Alpha virt. eigenvalues --    0.12860   0.24282   0.28624   0.28624   0.50130
 Alpha virt. eigenvalues --    0.55939   0.56033   0.56033   0.58848   0.63456
 Alpha virt. eigenvalues --    0.63456   0.67479   0.68573   0.68573   0.89245

 Mulliken charges:
               1
     1  Cl  -0.292445
     2  C   -0.406536
     3  H    0.190434
     4  H    0.190434
     5  H    0.190434
     6  Cl  -0.872322
 Sum of Mulliken charges =  -1.00000

 Dipole moment (field-independent basis, Debye):
    X=             -0.0000    Y=             -0.0000    Z=             -6.5867  Tot=              6.5867
 Quadrupole moment (field-independent basis, Debye-Ang):
   XX=            -35.5555   YY=            -35.5555   ZZ=            -73.8119
   XY=             -0.0000   XZ=             -0.0000   YZ=              0.0000

 Normal termination of Gaussian 16 at Wed Oct  7 14:48:09 2020.
