 Gaussian 16, Revision A.03,
 Gaussian 16:  ES64L-G16RevA.03 25-Dec-2016

 ----------------------------------------------------------------------
 #P Opt(MaxCyc=100) BLYP/6-31G* 5D 7F Integral=UltraFineGrid SCF=(NoSym
 m,XQC,MaxCyc=120) IOp(1/33=1)
 ----------------------------------------------------------------------

 TstMul:  Mul=     1
 TstMul:  ICh=     0
 TstMul:  Mul=     1
 Symbolic Z-matrix:
 Charge =  0 Multiplicity = 1

 SCF Done:  E(RB-LYP) =  -115.664128481     A.U. after   11 cycles
 SCF Done:  E(RB-LYP) =  -115.665371742     A.U. after   11 cycles
 SCF Done:  E(RB-LYP) =  -115.665391274     A.U. after    8 cycles
 SCF Done:  E(RB-LYP) =  -115.665392104     A.U. after    7 cycles
 Optimization completed.
    -- Stationary point found.

                         Standard orientation:
 ---------------------------------------------------------------------
 Center     Atomic      Atomic             Coordinates (Angstroms)
 Number     Number       Type             X           Y           Z
 ---------------------------------------------------------------------
      1          6           0       -0.047323    0.667235    0.000000
      2          8           0       -0.047323   -0.766036    0.000000
      3          1           0       -1.103472    0.978681    0.000000
      4          1           0        0.889441   -1.053603    0.000000
      5          1           0        0.438278    1.099899    0.899534
      6          1           0        0.438278    1.099899   -0.899534
 ---------------------------------------------------------------------

 The electronic state is 1-A'.
 Alpha  occ. eigenvalues --  -18.78038  -9.95363  -0.90463  -0.59969  -0.43745
 Alpha  occ. eigenvalues --   -0.37159  -0.35893  -0.27307  -0.20342
 Alpha virt. eigenvalues --    0.04809   0.10325   0.13692   0.14657   0.16891
 Alpha virt. eigenvalues --    0.48667   0.53425   0.54366   0.73093   0.79061
 Alpha virt. eigenvalues --    0.80957   0.83903   0.92442   0.94856   0.98827

 Mulliken charges:
               1
     1  C   -0.175187
     2  O   -0.574112
     3  H    0.145066
     4  H    0.375286
     5  H    0.114474
     6  H    0.114474
 Sum of Mulliken charges =   0.00000

 Dipole moment (field-independent basis, Debye):
    X=              1.3817    Y=              0.8267    Z=             -0.0000  Tot=              1.6101
 Quadrupole moment (field-independent basis, Debye-Ang):
   XX=            -11.6099   YY=            -13.0703   ZZ=            -13.6496
   XY=             -2.0596   XZ=             -0.0000   YZ=              0.0000

 Normal termination of Gaussian 16 at Wed Oct  7 14:46:04 2020.
