 Gaussian 16, Revision A.03,
 Gaussian 16:  ES64L-G16RevA.03 25-Dec-2016

 ----------------------------------------------------------------------
 #P Opt(MaxCyc=100) BLYP/6-31G* 5D 7F Integral=UltraFineGrid SCF=(NoSym
 m,XQC,MaxCyc=120) IOp(1/33=1)
 ----------------------------------------------------------------------

 TstMul:  Mul=     1
 TstMul:  ICh=    -1
 TstMul:  Mul=     1
 Symbolic Z-matrix:
 Charge = -1 Multiplicity = 1

 SCF Done:  E(RB-LYP) =  -239.473658017     A.U. after   16 cycles
 SCF Done:  E(RB-LYP) =  -239.476085706     A.U. after   12 cycles
 SCF Done:  E(RB-LYP) =  -239.477014181     A.U. after   11 cycles
 SCF Done:  E(RB-LYP) =  -239.477566234     A.U. after   12 cycles
 SCF Done:  E(RB-LYP) =  -239.477656949     A.U. after   11 cycles
 SCF Done:  E(RB-LYP) =  -239.477697030     A.U. after    9 cycles
 SCF Done:  E(RB-LYP) =  -239.477698409     A.U. after    8 cycles
 Optimization completed.
    -- Stationary point found.

                         Standard orientation:
 ---------------------------------------------------------------------
 Center     Atomic      Atomic             Coordinates (Angstroms)
 Number     Number       Type             X           Y           Z
 ---------------------------------------------------------------------
      1          9           0        0.000000    0.000000   -1.827063
      2          6           0        0.000000    0.000000   -0.337176
      3          1           0       -0.000000    1.028158    0.038251
      4          1           0       -0.890411   -0.514079    0.038251
      5          1           0        0.890411   -0.514079    0.038251
      6          9           0        0.000000    0.000000    2.039097
 ---------------------------------------------------------------------

 The electronic state is 1-A1.
 Alpha  occ. eigenvalues --  -24.03535 -23.79942  -9.74740  -0.80933  -0.54528
 Alpha  occ. eigenvalues --   -0.38410  -0.17208  -0.16802  -0.16802  -0.05395
 Alpha  occ. eigenvalues --   -0.05395   0.12299   0.13349   0.13349
 Alpha virt. eigenvalues --    0.29144   0.31186   0.35906   0.35906   0.72524
 Alpha virt. eigenvalues --    0.72524   0.73673   1.01807   1.01807   1.05628
 Alpha virt. eigenvalues --    1.20161   1.39207   1.39207   1.39876   1.53332

 Mulliken charges:
               1
     1  F   -0.415387
     2  C   -0.128156
     3  H    0.098271
     4  H    0.098271
     5  H    0.098271
     6  F   -0.751270
 Sum of Mulliken charges =  -1.00000

 Dipole moment (field-independent basis, Debye):
    X=             -0.0000    Y=             -0.0000    Z=             -4.5167  Tot=              4.5167
 Quadrupole moment (field-independent basis, Debye-Ang):
   XX=            -17.9881   YY=            -17.9881   ZZ=            -39.3866
   XY=             -0.0000   XZ=             -0.0000   YZ=             -0.0000

 Normal termination of Gaussian 16 at Wed Oct  7 14:47:55 2020.
