 Gaussian 16, Revision A.03,

 ----------------------------------------------------------------------
 #P Opt(TS,MaxCyc=50,NoEigenTest,MaxStep=10,AddRedundant) BLYP/6-31G* 5
 D 7F Integral=UltraFineGrid SCF=(NoSymm,XQC,MaxCyc=120) IOp(1/33=1)
 ----------------------------------------------------------------------

 TstMul:  Mul=     1
 TstMul:  ICh=    -1
 TstMul:  Mul=     1
 Symbolic Z-matrix:
 Charge = -1 Multiplicity = 1

 SCF Done:  E(RB-LYP) =  -239.467214678     A.U. after   13 cycles
 SCF Done:  E(RB-LYP) =  -239.467829136     A.U. after   12 cycles
 SCF Done:  E(RB-LYP) =  -239.467914286     A.U. after   11 cycles
 SCF Done:  E(RB-LYP) =  -239.467893293     A.U. after   12 cycles
 SCF Done:  E(RB-LYP) =  -239.467909160     A.U. after   10 cycles
 SCF Done:  E(RB-LYP) =  -239.467909471     A.U. after    7 cycles
 Optimization completed.
    -- Stationary point found.
 Normal termination of Gaussian 16 at Wed Oct  7 14:47:38 2020.
 Gaussian 16:  ES64L-G16RevA.03 25-Dec-2016

 ----------------------------------------------------------------------
 #P Freq BLYP/6-31G* 5D 7F Integral=UltraFineGrid SCF=(NoSymm,XQC,MaxCy
 c=120) IOp(1/33=1) Geom=Check Guess=Read
 ----------------------------------------------------------------------

 TstMul:  Mul=     1
 TstMul:  ICh=    -1
 TstMul:  Mul=     1
 Structure from the checkpoint file:  "MN_39_fch3fts_BH76_BLYP_631Gs.chk"
 Charge = -1 Multiplicity = 1

                         Standard orientation:
 ---------------------------------------------------------------------
 Center     Atomic      Atomic             Coordinates (Angstroms)
 Number     Number       Type             X           Y           Z
 ---------------------------------------------------------------------
      1          9           0        1.848398   -0.000002   -0.000008
      2          6           0        0.000091    0.000006    0.000013
      3          1           0       -0.000028   -0.338811    1.030704
      4          1           0        0.000009    1.062017   -0.221915
      5          1           0       -0.000052   -0.723231   -0.808720
      6          9           0       -1.848451    0.000001   -0.000008
 ---------------------------------------------------------------------

 SCF Done:  E(RB-LYP) =  -239.467909471     A.U. after    1 cycles

 The electronic state is 1-A.
 Alpha  occ. eigenvalues --  -23.89554 -23.89545  -9.73770  -0.64987  -0.64439
 Alpha  occ. eigenvalues --   -0.36487  -0.15297  -0.15296  -0.04580   0.04531
 Alpha  occ. eigenvalues --    0.04531   0.04999   0.05743   0.05743
 Alpha virt. eigenvalues --    0.27750   0.29363   0.35207   0.35207   0.74752
 Alpha virt. eigenvalues --    0.74753   0.82503   0.96851   1.05325   1.05326
 Alpha virt. eigenvalues --    1.29590   1.37962   1.37962   1.50223   1.50613

 Mulliken charges:
               1
     1  F   -0.605084
     2  C   -0.070098
     3  H    0.093454
     4  H    0.093456
     5  H    0.093457
     6  F   -0.605186
 Sum of Mulliken charges =  -1.00000

 Dipole moment (field-independent basis, Debye):
    X=              0.0013    Y=             -0.0000    Z=              0.0001  Tot=              0.0013
 Quadrupole moment (field-independent basis, Debye-Ang):
   XX=            -37.9179   YY=            -17.6728   ZZ=            -17.6730
   XY=              0.0001   XZ=              0.0000   YZ=              0.0000

  Exact polarizability:  32.511   0.000  15.015   0.000  -0.000  15.015
 Approx polarizability:  74.694   0.000  20.868   0.000  -0.000  20.868

 ******    1 imaginary frequencies (negative Signs) ******

                      1                      2                      3
                      A                      A                      A
 Frequencies --   -434.1864               298.1234               298.2233
 Red. masses --      9.0752                 4.3599                 4.3602
 Frc consts  --      1.0080                 0.2283                 0.2285
 IR Inten    --    563.6108                13.5987                13.5984

                      4                      5                      6
                      A                      A                      A
 Frequencies --    335.2241               900.0956               900.1365
 Red. masses --     18.9677                 1.0209                 1.0209
 Frc consts  --      1.2558                 0.4873                 0.4874
 IR Inten    --      0.0000                 0.0000                 0.0000

                      7                      8                      9
                      A                      A                      A
 Frequencies --   1023.3150              1345.4726              1345.5328
 Red. masses --      1.1052                 1.1218                 1.1218
 Frc consts  --      0.6819                 1.1965                 1.1966
 IR Inten    --      2.1510                 1.2620                 1.2603

                     10                     11                     12
                      A                      A                      A
 Frequencies --   3051.2112              3229.0308              3229.0593
 Red. masses --      1.0079                 1.1281                 1.1281
 Frc consts  --      5.5286                 6.9300                 6.9302
 IR Inten    --      0.0000                58.9465                58.9250

 - Thermochemistry -
 -------------------
 Temperature   298.150 Kelvin.  Pressure   1.00000 Atm.
 Atom     1 has atomic number  9 and mass  18.99840

 Molecular mass:    53.02028 amu.
 Principal axes and moments of inertia in atomic units:
                           1         2         3
     Eigenvalues --    12.70940 469.95980 469.96020
           X            1.00000   0.00000   0.00000
           Y           -0.00000   1.00000  -0.00001
           Z           -0.00000   0.00001   1.00000
 This molecule is an asymmetric top.
 Rotational symmetry number  1.
 Rotational temperatures (Kelvin)      6.81495     0.18430     0.18430
 Rotational constants (GHZ):         142.00050     3.84020     3.84020
    1 imaginary frequencies ignored.
 Zero-point vibrational energy      95434.6 (Joules/Mol)
                                   22.80942 (Kcal/Mol)
 Warning -- explicit consideration of   3 degrees of freedom as
           vibrations may cause significant error
 Vibrational temperatures:    428.93   429.08   482.31  1295.04  1295.10
          (Kelvin)           1472.32  1935.83  1935.92  4390.01  4645.86
                             4645.90

 Zero-point correction=                           0.036349 (Hartree/Particle)
 Thermal correction to Energy=                    0.040565
 Thermal correction to Enthalpy=                  0.041509
 Thermal correction to Gibbs Free Energy=         0.010682
 Sum of electronic and zero-point Energies=           -239.431560
 Sum of electronic and thermal Energies=              -239.427345
 Sum of electronic and thermal Enthalpies=            -239.426401
 Sum of electronic and thermal Free Energies=         -239.457228

                     E (Thermal)             CV                S
                      KCal/Mol        Cal/Mol-Kelvin    Cal/Mol-Kelvin
 Total                   25.455             12.528             64.881
 Electronic               0.000              0.000              0.000
 Translational            0.889              2.981             37.827
 Rotational               0.889              2.981             22.556
 Vibrational             23.677              6.566              4.499
 Vibration     1          0.691              1.677              1.427
 Vibration     2          0.691              1.677              1.427
 Vibration     3          0.716              1.605              1.235

 Optimization completed.
    -- Stationary point found.
 Normal termination of Gaussian 16 at Wed Oct  7 14:48:07 2020.
