 Gaussian 16, Revision A.03,
 Gaussian 16:  ES64L-G16RevA.03 25-Dec-2016

 ----------------------------------------------------------------------
 #P Opt(MaxCyc=100) BLYP/6-31G* 5D 7F Integral=UltraFineGrid SCF=(NoSym
 m,XQC,MaxCyc=120) IOp(1/33=1)
 ----------------------------------------------------------------------

 TstMul:  Mul=     1
 TstMul:  ICh=     0
 TstMul:  Mul=     1
 Symbolic Z-matrix:
 Charge =  0 Multiplicity = 1

 SCF Done:  E(RB-LYP) =  -199.489588676     A.U. after    9 cycles
 SCF Done:  E(RB-LYP) =  -199.490726720     A.U. after    9 cycles
 SCF Done:  E(RB-LYP) =  -199.490755486     A.U. after    6 cycles
 Optimization completed.
    -- Stationary point found.

                         Standard orientation:
 ---------------------------------------------------------------------
 Center     Atomic      Atomic             Coordinates (Angstroms)
 Number     Number       Type             X           Y           Z
 ---------------------------------------------------------------------
      1          9           0        0.000000    0.000000    0.718488
      2          9           0        0.000000    0.000000   -0.718488
 ---------------------------------------------------------------------

 The electronic state is 1-SGG.
 Alpha  occ. eigenvalues --  -24.38416 -24.38405  -1.19694  -0.98281  -0.52385
 Alpha  occ. eigenvalues --   -0.42912  -0.42912  -0.31355  -0.31355
 Alpha virt. eigenvalues --   -0.18877   1.00114   1.00114   1.03320   1.16063
 Alpha virt. eigenvalues --    1.18199   1.18199   1.21504   1.49301   1.49301
 Alpha virt. eigenvalues --    1.65355   1.65355   1.67045   1.86938   1.86938

 Mulliken charges:
               1
     1  F    0.000000
     2  F    0.000000
 Sum of Mulliken charges =   0.00000

 Dipole moment (field-independent basis, Debye):
    X=             -0.0000    Y=             -0.0000    Z=             -0.0000  Tot=              0.0000
 Quadrupole moment (field-independent basis, Debye-Ang):
   XX=             -9.2677   YY=             -9.2677   ZZ=             -8.2604
   XY=              0.0000   XZ=              0.0000   YZ=              0.0000

 Normal termination of Gaussian 16 at Wed Oct  7 14:46:52 2020.
