 Gaussian 16, Revision A.03,
 Gaussian 16:  ES64L-G16RevA.03 25-Dec-2016

 ----------------------------------------------------------------------
 #P Opt(MaxCyc=100) BLYP/6-31G* 5D 7F Integral=UltraFineGrid SCF=(NoSym
 m,XQC,MaxCyc=120) IOp(1/33=1)
 ----------------------------------------------------------------------

 TstMul:  Mul=     1
 TstMul:  ICh=    -1
 TstMul:  Mul=     1
 Symbolic Z-matrix:
 Charge = -1 Multiplicity = 1

 SCF Done:  E(RB-LYP) =  -599.926851779     A.U. after   12 cycles
 SCF Done:  E(RB-LYP) =  -599.927805503     A.U. after   11 cycles
 SCF Done:  E(RB-LYP) =  -599.927815715     A.U. after    8 cycles
 Optimization completed.
    -- Stationary point found.

                         Standard orientation:
 ---------------------------------------------------------------------
 Center     Atomic      Atomic             Coordinates (Angstroms)
 Number     Number       Type             X           Y           Z
 ---------------------------------------------------------------------
      1          9           0        0.000000    0.000000   -2.677127
      2          6           0        0.000000    0.000000   -1.246986
      3          1           0       -0.000000    1.033899   -0.871662
      4          1           0       -0.895383   -0.516949   -0.871662
      5          1           0        0.895383   -0.516949   -0.871662
      6         17           0        0.000000    0.000000    2.011238
 ---------------------------------------------------------------------

 The electronic state is 1-A1.
 Alpha  occ. eigenvalues -- -100.39156 -24.10963  -9.81550  -8.83078  -6.65777
 Alpha  occ. eigenvalues --   -6.65725  -6.65725  -0.89393  -0.45113  -0.37828
 Alpha  occ. eigenvalues --   -0.24966  -0.23939  -0.23939  -0.11576  -0.11576
 Alpha  occ. eigenvalues --    0.03829   0.04110   0.04110
 Alpha virt. eigenvalues --    0.23488   0.26317   0.30304   0.30304   0.57882
 Alpha virt. eigenvalues --    0.65269   0.66108   0.66108   0.69692   0.69692
 Alpha virt. eigenvalues --    0.77918   0.96080   0.96080   1.03988   1.10329

 Mulliken charges:
               1
     1  F   -0.365871
     2  C   -0.093338
     3  H    0.134428
     4  H    0.134428
     5  H    0.134428
     6  Cl  -0.944075
 Sum of Mulliken charges =  -1.00000

 Dipole moment (field-independent basis, Debye):
    X=              0.0000    Y=             -0.0000    Z=             -6.5208  Tot=              6.5208
 Quadrupole moment (field-independent basis, Debye-Ang):
   XX=            -27.3538   YY=            -27.3538   ZZ=            -54.5141
   XY=             -0.0000   XZ=             -0.0000   YZ=              0.0000

 Normal termination of Gaussian 16 at Wed Oct  7 14:47:01 2020.
