 Gaussian 16, Revision A.03,
 Gaussian 16:  ES64L-G16RevA.03 25-Dec-2016

 ----------------------------------------------------------------------
 #P Opt(MaxCyc=100) BLYP/6-31G* 5D 7F Integral=UltraFineGrid SCF=(NoSym
 m,XQC,MaxCyc=120) IOp(1/33=1)
 ----------------------------------------------------------------------

 TstMul:  Mul=     1
 TstMul:  ICh=    -1
 TstMul:  Mul=     1
 Symbolic Z-matrix:
 Charge = -1 Multiplicity = 1

 SCF Done:  E(RB-LYP) =  -599.851295410     A.U. after   18 cycles
 SCF Done:  E(RB-LYP) =  -599.856951331     A.U. after   15 cycles
 SCF Done:  E(RB-LYP) =  -599.861279347     A.U. after   15 cycles
 SCF Done:  E(RB-LYP) =  -599.863505561     A.U. after   14 cycles
 SCF Done:  E(RB-LYP) =  -599.867745328     A.U. after   13 cycles
 SCF Done:  E(RB-LYP) =  -599.885981830     A.U. after   14 cycles
 SCF Done:  E(RB-LYP) =  -599.911430220     A.U. after   14 cycles
 SCF Done:  E(RB-LYP) =  -599.915968005     A.U. after   13 cycles
 SCF Done:  E(RB-LYP) =  -599.921954111     A.U. after   13 cycles
 SCF Done:  E(RB-LYP) =  -599.924163041     A.U. after   12 cycles
 SCF Done:  E(RB-LYP) =  -599.926410765     A.U. after   11 cycles
 SCF Done:  E(RB-LYP) =  -599.927492568     A.U. after   11 cycles
 SCF Done:  E(RB-LYP) =  -599.927774404     A.U. after   10 cycles
 SCF Done:  E(RB-LYP) =  -599.927811455     A.U. after   10 cycles
 SCF Done:  E(RB-LYP) =  -599.927817016     A.U. after    8 cycles
 Optimization completed.
    -- Stationary point found.

                         Standard orientation:
 ---------------------------------------------------------------------
 Center     Atomic      Atomic             Coordinates (Angstroms)
 Number     Number       Type             X           Y           Z
 ---------------------------------------------------------------------
      1         17           0        0.000000    0.000000    2.011023
      2          6           0        0.000000    0.000000   -1.247340
      3          1           0        0.000000    1.032889   -0.870326
      4          1           0        0.894508   -0.516445   -0.870326
      5          1           0       -0.894508   -0.516445   -0.870326
      6          9           0        0.000000    0.000000   -2.676930
 ---------------------------------------------------------------------

 The electronic state is 1-A1.
 Alpha  occ. eigenvalues -- -100.39157 -24.10986  -9.81530  -8.83080  -6.65779
 Alpha  occ. eigenvalues --   -6.65727  -6.65727  -0.89423  -0.45122  -0.37829
 Alpha  occ. eigenvalues --   -0.25001  -0.23937  -0.23937  -0.11583  -0.11583
 Alpha  occ. eigenvalues --    0.03827   0.04108   0.04108
 Alpha virt. eigenvalues --    0.23519   0.26330   0.30330   0.30330   0.57892
 Alpha virt. eigenvalues --    0.65268   0.66102   0.66102   0.69685   0.69685
 Alpha virt. eigenvalues --    0.77926   0.96099   0.96099   1.04098   1.10352

 Mulliken charges:
               1
     1  Cl  -0.944001
     2  C   -0.093985
     3  H    0.134462
     4  H    0.134462
     5  H    0.134462
     6  F   -0.365401
 Sum of Mulliken charges =  -1.00000

 Dipole moment (field-independent basis, Debye):
    X=             -0.0000    Y=             -0.0000    Z=             -6.5210  Tot=              6.5210
 Quadrupole moment (field-independent basis, Debye-Ang):
   XX=            -27.3567   YY=            -27.3567   ZZ=            -54.4947
   XY=              0.0000   XZ=              0.0000   YZ=              0.0000

 Normal termination of Gaussian 16 at Wed Oct  7 14:49:38 2020.
