 Gaussian 16, Revision A.03,
 Gaussian 16:  ES64L-G16RevA.03 25-Dec-2016

 ----------------------------------------------------------------------
 #P Opt(MaxCyc=100) BLYP/6-31G* 5D 7F Integral=UltraFineGrid SCF=(NoSym
 m,XQC,MaxCyc=120) IOp(1/33=1)
 ----------------------------------------------------------------------

 TstMul:  Mul=     1
 TstMul:  ICh=     0
 TstMul:  Mul=     1
 Symbolic Z-matrix:
 Charge =  0 Multiplicity = 1

 SCF Done:  E(RB-LYP) =  -76.3854623804     A.U. after   10 cycles
 SCF Done:  E(RB-LYP) =  -76.3863220051     A.U. after    9 cycles
 SCF Done:  E(RB-LYP) =  -76.3863533993     A.U. after    6 cycles
 Optimization completed.
    -- Stationary point found.

                         Standard orientation:
 ---------------------------------------------------------------------
 Center     Atomic      Atomic             Coordinates (Angstroms)
 Number     Number       Type             X           Y           Z
 ---------------------------------------------------------------------
      1          8           0       -0.000000    0.000000    0.122139
      2          1           0       -0.000000    0.766027   -0.488556
      3          1           0       -0.000000   -0.766027   -0.488556
 ---------------------------------------------------------------------

 The electronic state is 1-A1.
 Alpha  occ. eigenvalues --  -18.77662  -0.89342  -0.45017  -0.30640  -0.22200
 Alpha virt. eigenvalues --    0.03590   0.11637   0.71810   0.79257   0.83785
 Alpha virt. eigenvalues --    0.88723   1.00382   1.33058   1.67446   1.69403
 Alpha virt. eigenvalues --    1.72558   2.20894   2.48580

 Mulliken charges:
               1
     1  O   -0.749859
     2  H    0.374929
     3  H    0.374929
 Sum of Mulliken charges =   0.00000

 Dipole moment (field-independent basis, Debye):
    X=             -0.0000    Y=              0.0000    Z=             -2.0320  Tot=              2.0320
 Quadrupole moment (field-independent basis, Debye-Ang):
   XX=             -7.2170   YY=             -4.3592   ZZ=             -5.9725
   XY=              0.0000   XZ=              0.0000   YZ=             -0.0000

 Normal termination of Gaussian 16 at Wed Oct  7 14:47:41 2020.
