 Gaussian 16, Revision A.03,

 ----------------------------------------------------------------------
 #P Opt(TS,MaxCyc=50,NoEigenTest,MaxStep=10,AddRedundant) BLYP/6-31G* 5
 D 7F Integral=UltraFineGrid SCF=(NoSymm,XQC,MaxCyc=120) IOp(1/33=1)
 ----------------------------------------------------------------------

 TstMul:  Mul=     2
 TstMul:  ICh=     0
 TstMul:  Mul=     2
 Symbolic Z-matrix:
 Charge =  0 Multiplicity = 2

 SCF Done:  E(UB-LYP) =  -461.245405411     A.U. after   10 cycles
 SCF Done:  E(UB-LYP) =  -461.245957676     A.U. after    9 cycles
 SCF Done:  E(UB-LYP) =  -461.246020359     A.U. after    9 cycles
 SCF Done:  E(UB-LYP) =  -461.246021047     A.U. after    6 cycles
 Optimization completed.
    -- Stationary point found.
 Normal termination of Gaussian 16 at Wed Oct  7 14:48:03 2020.
 Gaussian 16:  ES64L-G16RevA.03 25-Dec-2016

 ----------------------------------------------------------------------
 #P Freq BLYP/6-31G* 5D 7F Integral=UltraFineGrid SCF=(NoSymm,XQC,MaxCy
 c=120) IOp(1/33=1) Geom=Check Guess=Read
 ----------------------------------------------------------------------

 TstMul:  Mul=     2
 TstMul:  ICh=     0
 TstMul:  Mul=     2
 Structure from the checkpoint file:  "MN_45_hclhts_BH76_BLYP_631Gs.chk"
 Charge =  0 Multiplicity = 2

                         Standard orientation:
 ---------------------------------------------------------------------
 Center     Atomic      Atomic             Coordinates (Angstroms)
 Number     Number       Type             X           Y           Z
 ---------------------------------------------------------------------
      1          1           0        0.000000    0.000000    1.523717
      2         17           0        0.000000    0.000000    0.000000
      3          1           0        0.000000    0.000000   -1.523717
 ---------------------------------------------------------------------

 SCF Done:  E(UB-LYP) =  -461.246021047     A.U. after    1 cycles

 The electronic state is 2-SGG.
 Alpha  occ. eigenvalues -- -100.74969  -9.19267  -7.02789  -7.01443  -7.01443
 Alpha  occ. eigenvalues --   -0.76190  -0.47295  -0.28843  -0.28843  -0.22108
 Alpha virt. eigenvalues --   -0.01140   0.36361   0.39484   0.39484   0.58023
 Alpha virt. eigenvalues --    0.59795   0.65469   0.77307   0.77307   0.80001
 Alpha virt. eigenvalues --    0.80001   0.99439
  Beta  occ. eigenvalues -- -100.74922  -9.19204  -7.02855  -7.01344  -7.01344
  Beta  occ. eigenvalues --   -0.75579  -0.44105  -0.28438  -0.28438
  Beta virt. eigenvalues --   -0.14101   0.03874   0.36376   0.39746   0.39746
  Beta virt. eigenvalues --    0.58567   0.65032   0.74673   0.76867   0.76867
  Beta virt. eigenvalues --    0.80895   0.80895   1.03728

 Mulliken charges and spin densities:
               1          2
     1  H    0.116352   0.539386
     2  Cl  -0.232704  -0.078772
     3  H    0.116352   0.539386
 Sum of Mulliken charges =  -0.00000   1.00000

 Dipole moment (field-independent basis, Debye):
    X=              0.0000    Y=             -0.0000    Z=             -0.0000  Tot=              0.0000
 Quadrupole moment (field-independent basis, Debye-Ang):
   XX=            -15.1783   YY=            -15.1783   ZZ=            -11.7462
   XY=             -0.0000   XZ=             -0.0000   YZ=              0.0000

  Exact polarizability:   6.367  -0.000   6.367   0.000  -0.000  37.547
 Approx polarizability:   8.770  -0.000   8.770  -0.000  -0.000  78.401

 ******    3 imaginary frequencies (negative Signs) ******

                      1                      2                      3
                     SGU                    PIU                    PIU
 Frequencies --  -1050.3830               -52.6874               -52.6874
 Red. masses --      1.0641                 1.0641                 1.0641
 Frc consts  --      0.6917                 0.0017                 0.0017
 IR Inten    --    674.8862                41.2205                41.2205

                      4
                     SGG
 Frequencies --   1715.9868
 Red. masses --      1.0078
 Frc consts  --      1.7485
 IR Inten    --      0.0000

 - Thermochemistry -
 -------------------
 Temperature   298.150 Kelvin.  Pressure   1.00000 Atm.
 Atom     1 has atomic number  1 and mass   1.00783

 Molecular mass:    36.98450 amu.
 Principal axes and moments of inertia in atomic units:
                           1         2         3
     Eigenvalues --     0.00000  16.71174  16.71174
           X           -0.00000   1.00000   0.00000
           Y            0.00000   0.00000   1.00000
           Z            1.00000   0.00000   0.00000
 This molecule is a prolate symmetric top.
 Rotational symmetry number  2.
 Rotational temperature (Kelvin)      5.18282
 Rotational constant (GHZ):         107.992444
    3 imaginary frequencies ignored.
 Zero-point vibrational energy      10263.9 (Joules/Mol)
                                    2.45313 (Kcal/Mol)
 Vibrational temperatures:   2468.92
          (Kelvin)

 Zero-point correction=                           0.003909 (Hartree/Particle)
 Thermal correction to Energy=                    0.006272
 Thermal correction to Enthalpy=                  0.007216
 Thermal correction to Gibbs Free Energy=        -0.015019
 Sum of electronic and zero-point Energies=           -461.242112
 Sum of electronic and thermal Energies=              -461.239749
 Sum of electronic and thermal Enthalpies=            -461.238805
 Sum of electronic and thermal Free Energies=         -461.261040

                     E (Thermal)             CV                S
                      KCal/Mol        Cal/Mol-Kelvin    Cal/Mol-Kelvin
 Total                    3.936              5.003             46.798
 Electronic               0.000              0.000              1.377
 Translational            0.889              2.981             36.753
 Rotational               0.592              1.987              8.662
 Vibrational              2.454              0.035              0.005

 Optimization completed.
    -- Stationary point found.

 1\1\GINC-NODE40\Freq\UBLYP\6-31G(d)\Cl1H2(2)\RPEVERATI\07-Oct-2020\0\\
 #P Freq BLYP/6-31G* 5D 7F Integral=UltraFineGrid SCF=(NoSymm,XQC,MaxCy
 c=120) IOp(1/33=1) Geom=Check Guess=Read\\TS search on BH76.\\0,2\H,0.
 ,0.,1.523717115\Cl,0.,0.,0.\H,0.,0.,-1.523717115\\Version=ES64L-G16Rev
 A.03\State=2-SGG\HF=-461.246021\S2=0.760028\S2-1=0.\S2A=0.750005\RMSD=
 5.163e-10\RMSF=4.204e-06\ZeroPoint=0.0039093\Thermal=0.0062717\Dipole=
 0.,0.,0.\DipoleDeriv=0.141935,0.,0.,0.,0.141935,0.,0.,0.,-0.5743122,-0
 .28387,0.,0.,0.,-0.28387,0.,0.,0.,1.1486243,0.141935,0.,0.,0.,0.141935

 Normal termination of Gaussian 16 at Wed Oct  7 14:48:25 2020.
