 Gaussian 16, Revision A.03,
 Gaussian 16:  ES64L-G16RevA.03 25-Dec-2016

 ----------------------------------------------------------------------
 #P Opt(MaxCyc=100) BLYP/6-31G* 5D 7F Integral=UltraFineGrid SCF=(NoSym
 m,XQC,MaxCyc=120) IOp(1/33=1)
 ----------------------------------------------------------------------

 TstMul:  Mul=     1
 TstMul:  ICh=     0
 TstMul:  Mul=     1
 Symbolic Z-matrix:
 Charge =  0 Multiplicity = 1

 SCF Done:  E(RB-LYP) =  -93.3956319752     A.U. after   10 cycles
 SCF Done:  E(RB-LYP) =  -93.3962749835     A.U. after    9 cycles
 SCF Done:  E(RB-LYP) =  -93.3962770745     A.U. after    7 cycles
 Optimization completed.
    -- Stationary point found.

                         Standard orientation:
 ---------------------------------------------------------------------
 Center     Atomic      Atomic             Coordinates (Angstroms)
 Number     Number       Type             X           Y           Z
 ---------------------------------------------------------------------
      1          6           0        0.000000    0.000000   -0.507550
      2          7           0        0.000000    0.000000    0.661445
      3          1           0        0.000000    0.000000   -1.584813
 ---------------------------------------------------------------------

 The electronic state is 1-SG.
 Alpha  occ. eigenvalues --  -14.04806  -9.97484  -0.82147  -0.54282  -0.31726
 Alpha  occ. eigenvalues --   -0.30730  -0.30730
 Alpha virt. eigenvalues --   -0.01271  -0.01271   0.05250   0.25572   0.48188
 Alpha virt. eigenvalues --    0.48188   0.60850   0.65029   0.72053   0.72053
 Alpha virt. eigenvalues --    0.77296   1.00561   1.42730   1.45884   1.45884

 Mulliken charges:
               1
     1  C    0.021788
     2  N   -0.238434
     3  H    0.216646
 Sum of Mulliken charges =   0.00000

 Dipole moment (field-independent basis, Debye):
    X=              0.0000    Y=             -0.0000    Z=             -2.7909  Tot=              2.7909
 Quadrupole moment (field-independent basis, Debye-Ang):
   XX=            -11.3722   YY=            -11.3722   ZZ=             -9.6113
   XY=              0.0000   XZ=              0.0000   YZ=             -0.0000

 Normal termination of Gaussian 16 at Wed Oct  7 14:47:50 2020.
