 Gaussian 16, Revision A.03,
 Gaussian 16:  ES64L-G16RevA.03 25-Dec-2016

 ----------------------------------------------------------------------
 #P Opt(MaxCyc=100) BLYP/6-31G* 5D 7F Integral=UltraFineGrid SCF=(NoSym
 m,XQC,MaxCyc=120) IOp(1/33=1)
 ----------------------------------------------------------------------

 TstMul:  Mul=     1
 TstMul:  ICh=     0
 TstMul:  Mul=     1
 Symbolic Z-matrix:
 Charge =  0 Multiplicity = 1

 SCF Done:  E(RB-LYP) =  -399.352666979     A.U. after   10 cycles
 SCF Done:  E(RB-LYP) =  -399.353288651     A.U. after   10 cycles
 SCF Done:  E(RB-LYP) =  -399.353290581     A.U. after    6 cycles
 Optimization completed.
    -- Stationary point found.

                         Standard orientation:
 ---------------------------------------------------------------------
 Center     Atomic      Atomic             Coordinates (Angstroms)
 Number     Number       Type             X           Y           Z
 ---------------------------------------------------------------------
      1         16           0        0.000000    0.000000    0.104850
      2          1           0        0.000000    0.982122   -0.838802
      3          1           0       -0.000000   -0.982122   -0.838802
 ---------------------------------------------------------------------

 The electronic state is 1-A1.
 Alpha  occ. eigenvalues --  -88.11644  -7.67872  -5.71014  -5.70661  -5.69779
 Alpha  occ. eigenvalues --   -0.67132  -0.39953  -0.32145  -0.21606
 Alpha virt. eigenvalues --   -0.00788   0.02688   0.28779   0.30991   0.31676
 Alpha virt. eigenvalues --    0.33536   0.63395   0.68412   0.70467   0.70933
 Alpha virt. eigenvalues --    0.71631   0.94887   1.11041

 Mulliken charges:
               1
     1  S   -0.226626
     2  H    0.113313
     3  H    0.113313
 Sum of Mulliken charges =   0.00000

 Dipole moment (field-independent basis, Debye):
    X=             -0.0000    Y=              0.0000    Z=             -1.3987  Tot=              1.3987
 Quadrupole moment (field-independent basis, Debye-Ang):
   XX=            -16.5945   YY=            -12.2459   ZZ=            -13.5224
   XY=              0.0000   XZ=              0.0000   YZ=             -0.0000

 Normal termination of Gaussian 16 at Wed Oct  7 14:47:51 2020.
