 Gaussian 16, Revision A.03,

 ----------------------------------------------------------------------
 #P Opt(TS,MaxCyc=50,NoEigenTest,MaxStep=10,AddRedundant) BLYP/6-31G* 5
 D 7F Integral=UltraFineGrid SCF=(NoSymm,XQC,MaxCyc=120) IOp(1/33=1)
 ----------------------------------------------------------------------

 TstMul:  Mul=     1
 TstMul:  ICh=     0
 TstMul:  Mul=     1
 Symbolic Z-matrix:
 Charge =  0 Multiplicity = 1

 SCF Done:  E(RB-LYP) =  -93.3173784769     A.U. after   12 cycles
 SCF Done:  E(RB-LYP) =  -93.3174543795     A.U. after   11 cycles
 SCF Done:  E(RB-LYP) =  -93.3174286550     A.U. after   11 cycles
 SCF Done:  E(RB-LYP) =  -93.3174194266     A.U. after    8 cycles
 Optimization completed.
    -- Stationary point found.
 Normal termination of Gaussian 16 at Wed Oct  7 14:47:59 2020.
 Gaussian 16:  ES64L-G16RevA.03 25-Dec-2016

 ----------------------------------------------------------------------
 #P Freq BLYP/6-31G* 5D 7F Integral=UltraFineGrid SCF=(NoSymm,XQC,MaxCy
 c=120) IOp(1/33=1) Geom=Check Guess=Read
 ----------------------------------------------------------------------

 TstMul:  Mul=     1
 TstMul:  ICh=     0
 TstMul:  Mul=     1
 Structure from the checkpoint file:  "MN_49_hcnts_BH76_BLYP_631Gs.chk"
 Charge =  0 Multiplicity = 1

                         Standard orientation:
 ---------------------------------------------------------------------
 Center     Atomic      Atomic             Coordinates (Angstroms)
 Number     Number       Type             X           Y           Z
 ---------------------------------------------------------------------
      1          6           0        0.080794    0.634692    0.000000
      2          7           0        0.080794   -0.570399    0.000000
      3          1           0       -1.050328    0.184643    0.000000
 ---------------------------------------------------------------------

 SCF Done:  E(RB-LYP) =  -93.3174194266     A.U. after    1 cycles

 The electronic state is 1-A'.
 Alpha  occ. eigenvalues --  -14.09200  -9.98316  -0.89133  -0.46225  -0.39372
 Alpha  occ. eigenvalues --   -0.33005  -0.27780
 Alpha virt. eigenvalues --   -0.08432  -0.02451   0.02545   0.29364   0.48677
 Alpha virt. eigenvalues --    0.49241   0.52626   0.62487   0.64927   0.68956
 Alpha virt. eigenvalues --    0.72388   0.76982   1.20221   1.42302   1.43369

 Mulliken charges:
               1
     1  C   -0.036979
     2  N   -0.209346
     3  H    0.246325
 Sum of Mulliken charges =  -0.00000

 Dipole moment (field-independent basis, Debye):
    X=             -1.2011    Y=              0.0655    Z=              0.0000  Tot=              1.2029
 Quadrupole moment (field-independent basis, Debye-Ang):
   XX=             -9.4978   YY=            -14.1178   ZZ=            -11.7788
   XY=             -0.1903   XZ=              0.0000   YZ=              0.0000

  Exact polarizability:  13.269   0.385  17.497  -0.000   0.000   8.652
 Approx polarizability:  23.691   1.963  44.293  -0.000  -0.000  13.833

 ******    1 imaginary frequencies (negative Signs) ******

                      1                      2                      3
                     A'                     A'                     A'
 Frequencies --  -1108.4094              1965.4634              2468.9326
 Red. masses --      1.1649                11.7684                 1.0581
 Frc consts  --      0.8432                26.7854                 3.8000
 IR Inten    --     55.4419                11.1557                91.2606

 - Thermochemistry -
 -------------------
 Temperature   298.150 Kelvin.  Pressure   1.00000 Atm.
 Atom     1 has atomic number  6 and mass  12.00000

 Molecular mass:    27.01090 amu.
 Principal axes and moments of inertia in atomic units:
                           1         2         3
     Eigenvalues --     4.41211  33.67117  38.08329
           X           -0.02665   0.99964   0.00000
           Y            0.99964   0.02665   0.00000
           Z            0.00000   0.00000   1.00000
 This molecule is an asymmetric top.
 Rotational symmetry number  1.
 Rotational temperatures (Kelvin)     19.63094     2.57235     2.27433
 Rotational constants (GHZ):         409.04249    53.59900    47.38932
    1 imaginary frequencies ignored.
 Zero-point vibrational energy      26523.6 (Joules/Mol)
                                    6.33929 (Kcal/Mol)
 Vibrational temperatures:   2827.86  3552.24
          (Kelvin)

 Zero-point correction=                           0.010102 (Hartree/Particle)
 Thermal correction to Energy=                    0.012936
 Thermal correction to Enthalpy=                  0.013880
 Thermal correction to Gibbs Free Energy=        -0.010925
 Sum of electronic and zero-point Energies=            -93.307317
 Sum of electronic and thermal Energies=               -93.304484
 Sum of electronic and thermal Enthalpies=             -93.303540
 Sum of electronic and thermal Free Energies=          -93.328345

                     E (Thermal)             CV                S
                      KCal/Mol        Cal/Mol-Kelvin    Cal/Mol-Kelvin
 Total                    8.117              5.977             52.206
 Electronic               0.000              0.000              0.000
 Translational            0.889              2.981             35.816
 Rotational               0.889              2.981             16.388
 Vibrational              6.340              0.015              0.002

                           ! Non-Optimized Parameters !
 Normal termination of Gaussian 16 at Wed Oct  7 14:48:18 2020.
