 Gaussian 16, Revision A.03,

 ----------------------------------------------------------------------
 #P Opt(TS,MaxCyc=50,NoEigenTest,MaxStep=10,AddRedundant) BLYP/6-31G* 5
 D 7F Integral=UltraFineGrid SCF=(NoSymm,XQC,MaxCyc=120) IOp(1/33=1)
 ----------------------------------------------------------------------

 TstMul:  Mul=     2
 TstMul:  ICh=     0
 TstMul:  Mul=     2
 Symbolic Z-matrix:
 Charge =  0 Multiplicity = 2

 SCF Done:  E(UB-LYP) =  -140.151393705     A.U. after   14 cycles
 SCF Done:  E(UB-LYP) =  -140.152563126     A.U. after   13 cycles
 SCF Done:  E(UB-LYP) =  -140.153090517     A.U. after   13 cycles
 SCF Done:  E(UB-LYP) =  -140.152820197     A.U. after   13 cycles
 SCF Done:  E(UB-LYP) =  -140.152788138     A.U. after   13 cycles
 SCF Done:  E(UB-LYP) =  -140.152805030     A.U. after   10 cycles
 SCF Done:  E(UB-LYP) =  -140.152810839     A.U. after   10 cycles
 SCF Done:  E(UB-LYP) =  -140.152816733     A.U. after    9 cycles
 SCF Done:  E(UB-LYP) =  -140.152824743     A.U. after   12 cycles
 SCF Done:  E(UB-LYP) =  -140.152825579     A.U. after    9 cycles
 Optimization completed.
    -- Stationary point found.

 1\1\GINC-NODE20\FTS\UBLYP\6-31G(d)\C1H4F1(2)\RPEVERATI\07-Oct-2020\0\\
 #P Opt(TS,MaxCyc=50,NoEigenTest,MaxStep=10,AddRedundant) BLYP/6-31G* 5
 D 7F Integral=UltraFineGrid SCF=(NoSymm,XQC,MaxCyc=120) IOp(1/33=1)\\T
 S search on BH76.\\0,2\H,0.0033007095,2.0876446372,0.\F,0.0025425688,0
 .7928839621,0.\C,-0.0008293465,-0.9131247967,0.\H,1.0615931087,-1.1689
 445581,0.\H,-0.5327521431,-1.1665645958,0.920378186\H,-0.5327521431,-1
 .1665645958,-0.920378186\\Version=ES64L-G16RevA.03\State=2-A'\HF=-140.
 1528256\S2=0.757741\S2-1=0.\S2A=0.750012\RMSD=2.640e-09\RMSF=4.110e-05

 Normal termination of Gaussian 16 at Wed Oct  7 14:49:43 2020.
 Gaussian 16:  ES64L-G16RevA.03 25-Dec-2016

 ----------------------------------------------------------------------
 #P Freq BLYP/6-31G* 5D 7F Integral=UltraFineGrid SCF=(NoSymm,XQC,MaxCy
 c=120) IOp(1/33=1) Geom=Check Guess=Read
 ----------------------------------------------------------------------

 TstMul:  Mul=     2
 TstMul:  ICh=     0
 TstMul:  Mul=     2
 Structure from the checkpoint file:  "MN_53_hfch3ts_BH76_BLYP_631Gs.chk"
 Charge =  0 Multiplicity = 2

                         Standard orientation:
 ---------------------------------------------------------------------
 Center     Atomic      Atomic             Coordinates (Angstroms)
 Number     Number       Type             X           Y           Z
 ---------------------------------------------------------------------
      1          1           0       -0.001711    2.074868    0.000000
      2          9           0        0.000090    0.780108    0.000000
      3          6           0        0.000090   -0.925904    0.000000
      4          1           0        1.063016   -1.179624    0.000000
      5          1           0       -0.531330   -1.180395    0.920378
      6          1           0       -0.531330   -1.180395   -0.920378
 ---------------------------------------------------------------------

 SCF Done:  E(UB-LYP) =  -140.152825579     A.U. after    1 cycles

 The electronic state is 2-A'.
 Alpha  occ. eigenvalues --  -24.26070  -9.96319  -1.00338  -0.62579  -0.42424
 Alpha  occ. eigenvalues --   -0.38334  -0.38330  -0.27676  -0.27676  -0.14617
 Alpha virt. eigenvalues --   -0.00505   0.08381   0.13800   0.13802   0.45549
 Alpha virt. eigenvalues --    0.51147   0.51150   0.63990   0.76926   0.81479
 Alpha virt. eigenvalues --    0.81485   0.96814   1.15792   1.15798   1.49363

  Beta  occ. eigenvalues --  -24.25970  -9.95598  -1.00175  -0.61096  -0.40598
  Beta  occ. eigenvalues --   -0.37824  -0.37820  -0.27486  -0.27485
  Beta virt. eigenvalues --   -0.07568   0.03816   0.08923   0.14220   0.14223
  Beta virt. eigenvalues --    0.48580   0.51513   0.51516   0.72760   0.78207
  Beta virt. eigenvalues --    0.81998   0.82005   0.98168   1.16125   1.16131

 Mulliken charges and spin densities:
               1          2
     1  H    0.092958   0.638750
     2  F   -0.314038  -0.079060
     3  C   -0.253610   0.495362
     4  H    0.158257  -0.018344
     5  H    0.158216  -0.018354
     6  H    0.158216  -0.018354
 Sum of Mulliken charges =  -0.00000   1.00000

 Dipole moment (field-independent basis, Debye):
    X=             -0.0004    Y=             -1.4068    Z=              0.0000  Tot=              1.4068
 Quadrupole moment (field-independent basis, Debye-Ang):
   XX=            -12.8158   YY=            -11.9764   ZZ=            -12.8167
   XY=             -0.0008   XZ=              0.0000   YZ=             -0.0000

  Exact polarizability:  13.106  -0.021  48.660  -0.000   0.000  13.105
 Approx polarizability:  17.947  -0.047 102.285   0.000  -0.000  17.945

 ******    1 imaginary frequencies (negative Signs) ******

                      1                      2                      3
                     A'                     A'                     A"
 Frequencies --  -1209.5421               156.0165               156.0911
 Red. masses --      2.0394                 1.1634                 1.1633
 Frc consts  --      1.7579                 0.0167                 0.0167
 IR Inten    --   1047.2186                 7.3326                 7.3389

                      4                      5                      6
                     A"                     A'                     A'
 Frequencies --    779.0367               779.1707               931.5140
 Red. masses --      1.1294                 1.1293                 1.5080
 Frc consts  --      0.4038                 0.4040                 0.7709
 IR Inten    --      0.7297                 0.7320               168.9909

                      7                      8                      9
                     A'                     A"                     A'
 Frequencies --   1171.3444              1438.2648              1438.4084
 Red. masses --      1.2432                 1.0869                 1.0869
 Frc consts  --      1.0050                 1.3247                 1.3250
 IR Inten    --     48.1272                 2.4747                 2.4734

                     10                     11                     12
                     A'                     A"                     A'
 Frequencies --   3045.0556              3182.1014              3182.4585
 Red. masses --      1.0167                 1.1147                 1.1147
 Frc consts  --      5.5546                 6.6501                 6.6517
 IR Inten    --      1.8720                15.7126                15.6792

 - Thermochemistry -
 -------------------
 Temperature   298.150 Kelvin.  Pressure   1.00000 Atm.
 Atom     1 has atomic number  1 and mass   1.00783

 Molecular mass:    35.02970 amu.
 Principal axes and moments of inertia in atomic units:
                           1         2         3
     Eigenvalues --    12.19640 114.14607 114.14765
           X           -0.00010   1.00000   0.00000
           Y            1.00000   0.00010   0.00000
           Z            0.00000   0.00000   1.00000
 This molecule is an asymmetric top.
 Rotational symmetry number  1.
 Rotational temperatures (Kelvin)      7.10160     0.75880     0.75879
 Rotational constants (GHZ):         147.97325    15.81080    15.81059
    1 imaginary frequencies ignored.
 Zero-point vibrational energy      97253.2 (Joules/Mol)
                                   23.24407 (Kcal/Mol)
 Warning -- explicit consideration of   2 degrees of freedom as
           vibrations may cause significant error
 Vibrational temperatures:    224.47   224.58  1120.86  1121.05  1340.24
          (Kelvin)           1685.30  2069.34  2069.55  4381.16  4578.33
                             4578.85

 Zero-point correction=                           0.037042 (Hartree/Particle)
 Thermal correction to Energy=                    0.041389
 Thermal correction to Enthalpy=                  0.042333
 Thermal correction to Gibbs Free Energy=         0.012155
 Sum of electronic and zero-point Energies=           -140.115784
 Sum of electronic and thermal Energies=              -140.111437
 Sum of electronic and thermal Enthalpies=            -140.110493
 Sum of electronic and thermal Free Energies=         -140.140671

                     E (Thermal)             CV                S
                      KCal/Mol        Cal/Mol-Kelvin    Cal/Mol-Kelvin
 Total                   25.972             11.994             63.515
 Electronic               0.000              0.000              1.377
 Translational            0.889              2.981             36.591
 Rotational               0.889              2.981             19.702
 Vibrational             24.194              6.032              5.844
 Vibration     1          0.620              1.896              2.598
 Vibration     2          0.620              1.896              2.597

 Optimization completed.
    -- Stationary point found.
 Normal termination of Gaussian 16 at Wed Oct  7 14:50:10 2020.
