 Gaussian 16, Revision A.03,

 ----------------------------------------------------------------------
 #P Opt(TS,MaxCyc=50,NoEigenTest,MaxStep=10,AddRedundant) BLYP/6-31G* 5
 D 7F Integral=UltraFineGrid SCF=(NoSymm,XQC,MaxCyc=120) IOp(1/33=1)
 ----------------------------------------------------------------------

 TstMul:  Mul=     2
 TstMul:  ICh=     0
 TstMul:  Mul=     2
 Symbolic Z-matrix:
 Charge =  0 Multiplicity = 2

 SCF Done:  E(UB-LYP) =  -199.997713685     A.U. after   17 cycles
 SCF Done:  E(UB-LYP) =  -200.000220452     A.U. after   14 cycles
 SCF Done:  E(UB-LYP) =  -199.998072664     A.U. after   14 cycles
 SCF Done:  E(UB-LYP) =  -199.996522633     A.U. after   15 cycles
 SCF Done:  E(UB-LYP) =  -199.995199857     A.U. after   15 cycles
 SCF Done:  E(UB-LYP) =  -199.994078282     A.U. after   15 cycles
 SCF Done:  E(UB-LYP) =  -199.993130009     A.U. after   15 cycles
 SCF Done:  E(UB-LYP) =  -199.992326649     A.U. after   15 cycles
 SCF Done:  E(UB-LYP) =  -199.991641126     A.U. after   15 cycles
 SCF Done:  E(UB-LYP) =  -199.991050883     A.U. after   15 cycles
 SCF Done:  E(UB-LYP) =  -199.986256624     A.U. after    9 cycles
 SCF Done:  E(UB-LYP) =  -199.986243097     A.U. after    9 cycles
 SCF Done:  E(UB-LYP) =  -199.986232096     A.U. after    9 cycles
 SCF Done:  E(UB-LYP) =  -199.986223483     A.U. after    8 cycles
 SCF Done:  E(UB-LYP) =  -199.986216618     A.U. after    8 cycles
 SCF Done:  E(UB-LYP) =  -199.986211166     A.U. after    9 cycles
 SCF Done:  E(UB-LYP) =  -199.986207044     A.U. after    9 cycles
 SCF Done:  E(UB-LYP) =  -199.986204146     A.U. after    9 cycles
 SCF Done:  E(UB-LYP) =  -199.986202162     A.U. after    8 cycles
 Optimization completed.
    -- Stationary point found.
 Normal termination of Gaussian 16 at Wed Oct  7 14:57:05 2020.
 Gaussian 16:  ES64L-G16RevA.03 25-Dec-2016

 ----------------------------------------------------------------------
 #P Freq BLYP/6-31G* 5D 7F Integral=UltraFineGrid SCF=(NoSymm,XQC,MaxCy
 c=120) IOp(1/33=1) Geom=Check Guess=Read
 ----------------------------------------------------------------------

 TstMul:  Mul=     2
 TstMul:  ICh=     0
 TstMul:  Mul=     2
 Structure from the checkpoint file:  "MN_52_hf2ts_BH76_BLYP_631Gs.chk"
 Charge =  0 Multiplicity = 2

                         Standard orientation:
 ---------------------------------------------------------------------
 Center     Atomic      Atomic             Coordinates (Angstroms)
 Number     Number       Type             X           Y           Z
 ---------------------------------------------------------------------
      1          1           0        0.000000    0.000000   -4.485639
      2          9           0        0.000000    0.000000   -0.469298
      3          9           0        0.000000    0.000000    0.967703
 ---------------------------------------------------------------------

 SCF Done:  E(UB-LYP) =  -199.986202162     A.U. after    1 cycles

 The electronic state is 2-SG.
 Alpha  occ. eigenvalues --  -24.38410 -24.38399  -1.19688  -0.98277  -0.52379
 Alpha  occ. eigenvalues --   -0.42906  -0.42906  -0.31350  -0.31350  -0.26448
 Alpha virt. eigenvalues --   -0.18872   0.66369   1.00119   1.00119   1.03360
 Alpha virt. eigenvalues --    1.16086   1.18204   1.18204   1.21510   1.49307
 Alpha virt. eigenvalues --    1.49307   1.65361   1.65361   1.67051   1.86942

  Beta  occ. eigenvalues --  -24.38410 -24.38399  -1.19687  -0.98276  -0.52379
  Beta  occ. eigenvalues --   -0.42906  -0.42906  -0.31350  -0.31350
  Beta virt. eigenvalues --   -0.18873  -0.00935   1.00118   1.00118   1.02954
  Beta virt. eigenvalues --    1.05345   1.16119   1.18203   1.18203   1.21511
  Beta virt. eigenvalues --    1.49307   1.49307   1.65361   1.65361   1.67051

 Mulliken charges and spin densities:
               1          2
     1  H    0.000158   0.999828
     2  F   -0.000077  -0.000021
     3  F   -0.000081   0.000193
 Sum of Mulliken charges =  -0.00000   1.00000

 Dipole moment (field-independent basis, Debye):
    X=              0.0000    Y=              0.0000    Z=             -0.0037  Tot=              0.0037
 Quadrupole moment (field-independent basis, Debye-Ang):
   XX=            -10.5421   YY=            -10.5421   ZZ=             -9.5186
   XY=              0.0000   XZ=              0.0000   YZ=             -0.0000

  Exact polarizability:   2.741   0.000   2.741  -0.000   0.000  10.189
 Approx polarizability:   3.535   0.000   3.535   0.000   0.000  26.471

 ******    1 imaginary frequencies (negative Signs) ******

                      1                      2                      3
                     SG                     PI                     PI
 Frequencies --    -41.9698                13.5599                13.5599
 Red. masses --      1.0331                 2.0663                 2.0663
 Frc consts  --      0.0011                 0.0002                 0.0002
 IR Inten    --      0.0113                 0.0000                 0.0000

                      4
                     SG
 Frequencies --    978.9920
 Red. masses --     18.9979
 Frc consts  --     10.7279
 IR Inten    --      0.0152

 - Thermochemistry -
 -------------------
 Temperature   298.150 Kelvin.  Pressure   1.00000 Atm.
 Atom     1 has atomic number  1 and mass   1.00783

 Molecular mass:    39.00463 amu.
 Principal axes and moments of inertia in atomic units:
                           1         2         3
     Eigenvalues --     0.00000 148.64890 148.64890
           X            0.00000   0.00000   1.00000
           Y            0.00000   1.00000   0.00000
           Z            1.00000   0.00000   0.00000
 This molecule is a prolate symmetric top.
 Rotational symmetry number  1.
 Rotational temperature (Kelvin)      0.58267
 Rotational constant (GHZ):          12.140966
    1 imaginary frequencies ignored.
 Zero-point vibrational energy       6017.9 (Joules/Mol)
                                    1.43831 (Kcal/Mol)
 Warning -- explicit consideration of   2 degrees of freedom as
           vibrations may cause significant error
 Vibrational temperatures:     19.51    19.51  1408.55
          (Kelvin)

 Zero-point correction=                           0.002292 (Hartree/Particle)
 Thermal correction to Energy=                    0.006520
 Thermal correction to Enthalpy=                  0.007464
 Thermal correction to Gibbs Free Energy=        -0.024648
 Sum of electronic and zero-point Energies=           -199.983910
 Sum of electronic and thermal Energies=              -199.979682
 Sum of electronic and thermal Enthalpies=            -199.978738
 Sum of electronic and thermal Free Energies=         -200.010850

                     E (Thermal)             CV                S
                      KCal/Mol        Cal/Mol-Kelvin    Cal/Mol-Kelvin
 Total                    4.091              9.342             67.586
 Electronic               0.000              0.000              1.377
 Translational            0.889              2.981             36.912
 Rotational               0.592              1.987             14.383
 Vibrational              2.610              4.374             14.914
 Vibration     1          0.593              1.986              7.406
 Vibration     2          0.593              1.986              7.406

                           ! Non-Optimized Parameters !
 Normal termination of Gaussian 16 at Wed Oct  7 14:57:23 2020.
