 Gaussian 16, Revision A.03,
 Gaussian 16:  ES64L-G16RevA.03 25-Dec-2016

 ----------------------------------------------------------------------
 #P Opt(MaxCyc=100) BLYP/6-31G* 5D 7F Integral=UltraFineGrid SCF=(NoSym
 m,XQC,MaxCyc=120) IOp(1/33=1)
 ----------------------------------------------------------------------

 TstMul:  Mul=     2
 TstMul:  ICh=     0
 TstMul:  Mul=     2
 Symbolic Z-matrix:
 Charge =  0 Multiplicity = 2

 SCF Done:  E(UB-LYP) =  -110.006125792     A.U. after   15 cycles
 SCF Done:  E(UB-LYP) =  -110.007089222     A.U. after   12 cycles
 SCF Done:  E(UB-LYP) =  -110.007141403     A.U. after   10 cycles
 SCF Done:  E(UB-LYP) =  -110.007145393     A.U. after    9 cycles
 SCF Done:  E(UB-LYP) =  -110.007145747     A.U. after    9 cycles
 Optimization completed.
    -- Stationary point found.

                         Standard orientation:
 ---------------------------------------------------------------------
 Center     Atomic      Atomic             Coordinates (Angstroms)
 Number     Number       Type             X           Y           Z
 ---------------------------------------------------------------------
      1          7           0       -0.063945    0.668235    0.000000
      2          7           0       -0.063945   -0.522135    0.000000
      3          1           0        0.895224   -1.022698    0.000000
 ---------------------------------------------------------------------

 The electronic state is 2-A'.
 Alpha  occ. eigenvalues --  -14.10873 -14.09557  -0.96560  -0.59814  -0.41516
 Alpha  occ. eigenvalues --   -0.37210  -0.35227  -0.16173
 Alpha virt. eigenvalues --   -0.08168   0.04353   0.33685   0.58218   0.58447
 Alpha virt. eigenvalues --    0.60686   0.62496   0.68672   0.69852   0.75896
 Alpha virt. eigenvalues --    0.88511   1.20516   1.42112   1.43585   1.44112

  Beta  occ. eigenvalues --  -14.10581 -14.08282  -0.95139  -0.57622  -0.38264
  Beta  occ. eigenvalues --   -0.36399  -0.32645
  Beta virt. eigenvalues --   -0.09885  -0.06900   0.06349   0.34968   0.58855
  Beta virt. eigenvalues --    0.59209   0.62753   0.67304   0.69908   0.70702
  Beta virt. eigenvalues --    0.78955   0.89427   1.22020   1.43459   1.45641

 Mulliken charges and spin densities:
               1          2
     1  N   -0.078486   0.688738
     2  N   -0.204957   0.127604
     3  H    0.283443   0.183659
 Sum of Mulliken charges =  -0.00000   1.00000

 Dipole moment (field-independent basis, Debye):
    X=              1.3195    Y=             -1.2357    Z=              0.0000  Tot=              1.8077
 Quadrupole moment (field-independent basis, Debye-Ang):
   XX=            -10.7550   YY=            -11.9120   ZZ=            -10.9808
   XY=             -1.2749   XZ=              0.0000   YZ=              0.0000

 Normal termination of Gaussian 16 at Wed Oct  7 14:49:16 2020.
