 Gaussian 16, Revision A.03,

 ----------------------------------------------------------------------
 #P Opt(TS,MaxCyc=50,NoEigenTest,MaxStep=10,AddRedundant) BLYP/6-31G* 5
 D 7F Integral=UltraFineGrid SCF=(NoSymm,XQC,MaxCyc=120) IOp(1/33=1)
 ----------------------------------------------------------------------

 TstMul:  Mul=     2
 TstMul:  ICh=     0
 TstMul:  Mul=     2
 Symbolic Z-matrix:
 Charge =  0 Multiplicity = 2

 SCF Done:  E(UB-LYP) =  -109.993029020     A.U. after   15 cycles
 SCF Done:  E(UB-LYP) =  -109.993926018     A.U. after   13 cycles
 SCF Done:  E(UB-LYP) =  -109.993882939     A.U. after   10 cycles
 SCF Done:  E(UB-LYP) =  -109.993761495     A.U. after   11 cycles
 SCF Done:  E(UB-LYP) =  -109.993750072     A.U. after   10 cycles
 SCF Done:  E(UB-LYP) =  -109.993221586     A.U. after   14 cycles
 SCF Done:  E(UB-LYP) =  -109.993091253     A.U. after   13 cycles
 SCF Done:  E(UB-LYP) =  -109.993088175     A.U. after   11 cycles
 Optimization completed.
    -- Stationary point found.
 Normal termination of Gaussian 16 at Wed Oct  7 14:49:43 2020.
 Gaussian 16:  ES64L-G16RevA.03 25-Dec-2016

 ----------------------------------------------------------------------
 #P Freq BLYP/6-31G* 5D 7F Integral=UltraFineGrid SCF=(NoSymm,XQC,MaxCy
 c=120) IOp(1/33=1) Geom=Check Guess=Read
 ----------------------------------------------------------------------

 TstMul:  Mul=     2
 TstMul:  ICh=     0
 TstMul:  Mul=     2
 Structure from the checkpoint file:  "MN_59_hn2ts_BH76_BLYP_631Gs.chk"
 Charge =  0 Multiplicity = 2

                         Standard orientation:
 ---------------------------------------------------------------------
 Center     Atomic      Atomic             Coordinates (Angstroms)
 Number     Number       Type             X           Y           Z
 ---------------------------------------------------------------------
      1          7           0        0.090903   -0.657389    0.000000
      2          7           0        0.090903    0.478460    0.000000
      3          1           0       -1.272639    1.252501    0.000000
 ---------------------------------------------------------------------

 SCF Done:  E(UB-LYP) =  -109.993088175     A.U. after    1 cycles

 The electronic state is 2-A'.
 Alpha  occ. eigenvalues --  -14.13418 -14.12065  -1.00448  -0.51488  -0.42191
 Alpha  occ. eigenvalues --   -0.39978  -0.37200  -0.20500
 Alpha virt. eigenvalues --   -0.07175  -0.04014   0.36980   0.55427   0.56739
 Alpha virt. eigenvalues --    0.58005   0.60408   0.69507   0.71135   0.73933
 Alpha virt. eigenvalues --    0.86708   1.23191   1.40590   1.42049   1.46486

  Beta  occ. eigenvalues --  -14.13296 -14.11519  -0.99892  -0.49900  -0.40299
  Beta  occ. eigenvalues --   -0.39597  -0.35952
  Beta virt. eigenvalues --   -0.12390  -0.06619  -0.00526   0.37429   0.56619
  Beta virt. eigenvalues --    0.56886   0.60359   0.64971   0.69822   0.71725
  Beta virt. eigenvalues --    0.77841   0.90228   1.24158   1.41373   1.43095

 Mulliken charges and spin densities:
               1          2
     1  N    0.000881   0.272162
     2  N   -0.057670   0.002768
     3  H    0.056789   0.725070
 Sum of Mulliken charges =   0.00000   1.00000

 Dipole moment (field-independent basis, Debye):
    X=             -0.2564    Y=              0.2819    Z=              0.0000  Tot=              0.3811
 Quadrupole moment (field-independent basis, Debye-Ang):
   XX=            -11.3810   YY=            -12.7063   ZZ=            -11.2224
   XY=             -0.1643   XZ=              0.0000   YZ=              0.0000

  Exact polarizability:  15.372  -7.412  20.178  -0.000   0.000   6.123
 Approx polarizability:  26.692 -15.561  51.129   0.000   0.000   9.730

 ******    1 imaginary frequencies (negative Signs) ******

                      1                      2                      3
                     A'                     A'                     A'
 Frequencies --   -939.7375               632.7857              2138.0651
 Red. masses --      1.0879                 1.3796                10.3614
 Frc consts  --      0.5660                 0.3255                27.9069
 IR Inten    --    182.5014                 2.3853                60.8151

 - Thermochemistry -
 -------------------
 Temperature   298.150 Kelvin.  Pressure   1.00000 Atm.
 Atom     1 has atomic number  7 and mass  14.00307

 Molecular mass:    29.01397 amu.
 Principal axes and moments of inertia in atomic units:
                           1         2         3
     Eigenvalues --     5.24441  39.72844  44.97285
           X           -0.18768   0.98223   0.00000
           Y            0.98223   0.18768   0.00000
           Z            0.00000   0.00000   1.00000
 This molecule is an asymmetric top.
 Rotational symmetry number  1.
 Rotational temperatures (Kelvin)     16.51547     2.18015     1.92592
 Rotational constants (GHZ):         344.12649    45.42693    40.12957
    1 imaginary frequencies ignored.
 Zero-point vibrational energy      16573.4 (Joules/Mol)
                                    3.96113 (Kcal/Mol)
 Vibrational temperatures:    910.44  3076.20
          (Kelvin)

 Zero-point correction=                           0.006312 (Hartree/Particle)
 Thermal correction to Energy=                    0.009288
 Thermal correction to Enthalpy=                  0.010232
 Thermal correction to Gibbs Free Energy=        -0.015755
 Sum of electronic and zero-point Energies=           -109.986776
 Sum of electronic and thermal Energies=              -109.983800
 Sum of electronic and thermal Enthalpies=            -109.982856
 Sum of electronic and thermal Free Energies=         -110.008843

                     E (Thermal)             CV                S
                      KCal/Mol        Cal/Mol-Kelvin    Cal/Mol-Kelvin
 Total                    5.828              6.932             54.694
 Electronic               0.000              0.000              1.377
 Translational            0.889              2.981             36.030
 Rotational               0.889              2.981             16.890
 Vibrational              4.051              0.970              0.397

 Optimization completed.
    -- Stationary point found.
 Normal termination of Gaussian 16 at Wed Oct  7 14:50:06 2020.
