 Gaussian 16, Revision A.03,

 ----------------------------------------------------------------------
 #P Opt(TS,MaxCyc=150,NoEigenTest,MaxStep=10,AddRedundant) BLYP/6-31G*
 5D 7F Integral=UltraFineGrid SCF=(NoSymm,XQC,MaxCyc=120) IOp(1/33=1)
 ----------------------------------------------------------------------

 TstMul:  Mul=     2
 TstMul:  ICh=     0
 TstMul:  Mul=     2
 Symbolic Z-matrix:
 Charge =  0 Multiplicity = 2

 SCF Done:  E(UB-LYP) =  -113.789757502     A.U. after   14 cycles
 SCF Done:  E(UB-LYP) =  -113.789812912     A.U. after   10 cycles
 SCF Done:  E(UB-LYP) =  -113.789086306     A.U. after   13 cycles
 SCF Done:  E(UB-LYP) =  -113.788530419     A.U. after   13 cycles
 SCF Done:  E(UB-LYP) =  -113.788046564     A.U. after   13 cycles
 SCF Done:  E(UB-LYP) =  -113.787640280     A.U. after   13 cycles
 SCF Done:  E(UB-LYP) =  -113.787313008     A.U. after   12 cycles
 SCF Done:  E(UB-LYP) =  -113.787059844     A.U. after   12 cycles
 SCF Done:  E(UB-LYP) =  -113.786871639     A.U. after   12 cycles
 SCF Done:  E(UB-LYP) =  -113.786737155     A.U. after   12 cycles
 SCF Done:  E(UB-LYP) =  -113.786644681     A.U. after   12 cycles
 SCF Done:  E(UB-LYP) =  -113.786583394     A.U. after   12 cycles
 SCF Done:  E(UB-LYP) =  -113.786544294     A.U. after   12 cycles
 SCF Done:  E(UB-LYP) =  -113.786520278     A.U. after   12 cycles
 SCF Done:  E(UB-LYP) =  -113.786505842     A.U. after   12 cycles
 SCF Done:  E(UB-LYP) =  -113.786496974     A.U. after   12 cycles
 SCF Done:  E(UB-LYP) =  -113.786490928     A.U. after   12 cycles
 SCF Done:  E(UB-LYP) =  -113.786485826     A.U. after   12 cycles
 Optimization completed.
    -- Stationary point found.

 1\1\GINC-NODE13\FTS\UBLYP\6-31G(d)\C1H1O1(2)\RPEVERATI\10-Oct-2020\0\\
 #P Opt(TS,MaxCyc=150,NoEigenTest,MaxStep=10,AddRedundant) BLYP/6-31G*
 5D 7F Integral=UltraFineGrid SCF=(NoSymm,XQC,MaxCyc=120) IOp(1/33=1)\\
 TS search on BH76.\\0,2\H,-1.952156315,1.735432514,0.\C,0.360580403,0.
 3827135887,0.\O,0.2879764288,-0.765590319,0.\\Version=ES64L-G16RevA.03
 \State=2-A'\HF=-113.7864858\S2=0.750447\S2-1=0.\S2A=0.75\RMSD=8.315e-1
 0\RMSF=5.873e-05\Dipole=-0.012762,-0.0474525,0.\Quadrupole=0.49737,-0.
 9645531,0.4671831,-0.1598252,0.,0.\PG=CS [SG(C1H1O1)]\\@

 Normal termination of Gaussian 16 at Sat Oct 10 18:12:36 2020.
 Gaussian 16:  ES64L-G16RevA.03 25-Dec-2016

 ----------------------------------------------------------------------
 #P Freq BLYP/6-31G* 5D 7F Integral=UltraFineGrid SCF=(NoSymm,XQC,MaxCy
 c=120) IOp(1/33=1) Geom=Check Guess=Read
 ----------------------------------------------------------------------

 TstMul:  Mul=     2
 TstMul:  ICh=     0
 TstMul:  Mul=     2
 Structure from the checkpoint file:  "MN_51_hcots_BH76_BLYP_631Gs.chk"
 Charge =  0 Multiplicity = 2

                         Standard orientation:
 ---------------------------------------------------------------------
 Center     Atomic      Atomic             Coordinates (Angstroms)
 Number     Number       Type             X           Y           Z
 ---------------------------------------------------------------------
      1          1           0       -2.233920    1.737466   -0.000000
      2          6           0        0.159566    0.533379   -0.000000
      3          8           0        0.159566   -0.617218    0.000000
 ---------------------------------------------------------------------

 SCF Done:  E(UB-LYP) =  -113.786485826     A.U. after    1 cycles

 The electronic state is 2-A'.
 Alpha  occ. eigenvalues --  -18.89705 -10.03290  -1.04531  -0.49613  -0.40632
 Alpha  occ. eigenvalues --   -0.40570  -0.31890  -0.25633
 Alpha virt. eigenvalues --   -0.05677  -0.05204   0.23850   0.47450   0.48518
 Alpha virt. eigenvalues --    0.54454   0.67806   0.74167   0.78621   0.86110
 Alpha virt. eigenvalues --    0.87323   1.43216   1.43418   1.45502   1.47477

  Beta  occ. eigenvalues --  -18.89676 -10.03248  -1.04484  -0.49562  -0.40540
  Beta  occ. eigenvalues --   -0.40523  -0.31343
  Beta virt. eigenvalues --   -0.09567  -0.05630  -0.03414   0.23682   0.47358
  Beta virt. eigenvalues --    0.48991   0.56280   0.67985   0.78319   0.86101
  Beta virt. eigenvalues --    0.86101   0.94386   1.43283   1.43536   1.45469

 Mulliken charges and spin densities:
               1          2
     1  H    0.000844   0.975617
     2  C    0.126480   0.012896
     3  O   -0.127324   0.011487
 Sum of Mulliken charges =  -0.00000   1.00000

 Dipole moment (field-independent basis, Debye):
    X=             -0.0248    Y=             -0.1224    Z=             -0.0000  Tot=              0.1249
 Quadrupole moment (field-independent basis, Debye-Ang):
   XX=            -11.0814   YY=            -13.0863   ZZ=            -11.1413
   XY=             -0.0894   XZ=             -0.0000   YZ=              0.0000

  Exact polarizability:  12.593  -2.543  14.301  -0.000   0.000   8.014
 Approx polarizability:  18.694  -2.803  31.349   0.000  -0.000  13.277

                      1                      2                      3
                     A'                     A'                     A'
 Frequencies --     29.0573               104.3075              2101.3677
 Red. masses --      1.0554                 1.8711                13.4376
 Frc consts  --      0.0005                 0.0120                34.9605
 IR Inten    --      0.0769                 0.3304                65.5458

 - Thermochemistry -
 -------------------
 Temperature   298.150 Kelvin.  Pressure   1.00000 Atm.
 Atom     1 has atomic number  1 and mass   1.00783

 Molecular mass:    29.00274 amu.
 Principal axes and moments of inertia in atomic units:
                           1         2         3
     Eigenvalues --    12.42189  51.93084  64.35273
           X           -0.43510   0.90038   0.00000
           Y            0.90038   0.43510   0.00000
           Z            0.00000   0.00000   1.00000
 This molecule is an asymmetric top.
 Rotational symmetry number  1.
 Rotational temperatures (Kelvin)      6.97269     1.66787     1.34592
 Rotational constants (GHZ):         145.28722    34.75278    28.04452
 Zero-point vibrational energy      13366.7 (Joules/Mol)
                                    3.19471 (Kcal/Mol)
 Warning -- explicit consideration of   2 degrees of freedom as
           vibrations may cause significant error
 Vibrational temperatures:     41.81   150.08  3023.40
          (Kelvin)

 Zero-point correction=                           0.005091 (Hartree/Particle)
 Thermal correction to Energy=                    0.009530
 Thermal correction to Enthalpy=                  0.010474
 Thermal correction to Gibbs Free Energy=        -0.020429
 Sum of electronic and zero-point Energies=           -113.781395
 Sum of electronic and thermal Energies=              -113.776956
 Sum of electronic and thermal Enthalpies=            -113.776012
 Sum of electronic and thermal Free Energies=         -113.806914

                     E (Thermal)             CV                S
                      KCal/Mol        Cal/Mol-Kelvin    Cal/Mol-Kelvin
 Total                    5.980              9.899             65.040
 Electronic               0.000              0.000              1.377
 Translational            0.889              2.981             36.028
 Rotational               0.889              2.981             18.369
 Vibrational              4.203              3.938              9.266
 Vibration     1          0.593              1.984              5.893
 Vibration     2          0.605              1.946              3.372

                           ! Non-Optimized Parameters !
 Normal termination of Gaussian 16 at Sat Oct 10 18:12:42 2020.
