 Gaussian 16, Revision A.03,

 ----------------------------------------------------------------------
 #P Opt(TS,MaxCyc=50,NoEigenTest,MaxStep=10,AddRedundant) BLYP/6-31G* 5
 D 7F Integral=UltraFineGrid SCF=(NoSymm,XQC,MaxCyc=120) IOp(1/33=1)
 ----------------------------------------------------------------------

 TstMul:  Mul=     2
 TstMul:  ICh=     0
 TstMul:  Mul=     2
 Symbolic Z-matrix:
 Charge =  0 Multiplicity = 2

 SCF Done:  E(UB-LYP) =  -100.855020255     A.U. after    9 cycles
 SCF Done:  E(UB-LYP) =  -100.856763534     A.U. after    9 cycles
 SCF Done:  E(UB-LYP) =  -100.857596698     A.U. after    8 cycles
 SCF Done:  E(UB-LYP) =  -100.857707473     A.U. after    9 cycles
 SCF Done:  E(UB-LYP) =  -100.857708836     A.U. after    6 cycles
 Optimization completed.
    -- Stationary point found.
 Normal termination of Gaussian 16 at Wed Oct  7 14:48:31 2020.
 Gaussian 16:  ES64L-G16RevA.03 25-Dec-2016

 ----------------------------------------------------------------------
 #P Freq BLYP/6-31G* 5D 7F Integral=UltraFineGrid SCF=(NoSymm,XQC,MaxCy
 c=120) IOp(1/33=1) Geom=Check Guess=Read
 ----------------------------------------------------------------------

 TstMul:  Mul=     2
 TstMul:  ICh=     0
 TstMul:  Mul=     2
 Structure from the checkpoint file:  "MN_54_hfhts_BH76_BLYP_631Gs.chk"
 Charge =  0 Multiplicity = 2

                         Standard orientation:
 ---------------------------------------------------------------------
 Center     Atomic      Atomic             Coordinates (Angstroms)
 Number     Number       Type             X           Y           Z
 ---------------------------------------------------------------------
      1          1           0        0.000000    0.000000    1.202599
      2          9           0        0.000000    0.000000    0.000000
      3          1           0        0.000000    0.000000   -1.202599
 ---------------------------------------------------------------------

 SCF Done:  E(UB-LYP) =  -100.857708836     A.U. after    1 cycles

 The electronic state is 2-SGG.
 Alpha  occ. eigenvalues --  -24.29676  -1.04565  -0.51025  -0.32119  -0.32119
 Alpha  occ. eigenvalues --   -0.16327
 Alpha virt. eigenvalues --   -0.01670   0.55017   0.68101   1.09180   1.09180
 Alpha virt. eigenvalues --    1.52981   1.57994   1.72619   1.72619   1.79635
 Alpha virt. eigenvalues --    1.79635   2.22883
  Beta  occ. eigenvalues --  -24.29519  -1.04262  -0.48521  -0.31824  -0.31824
  Beta virt. eigenvalues --   -0.08195   0.03721   0.62877   0.76785   1.09405
  Beta virt. eigenvalues --    1.09405   1.53379   1.60579   1.72178   1.72178
  Beta virt. eigenvalues --    1.79709   1.79709   2.25668

 Mulliken charges and spin densities:
               1          2
     1  H    0.179142   0.547137
     2  F   -0.358284  -0.094275
     3  H    0.179142   0.547137
 Sum of Mulliken charges =  -0.00000   1.00000

 Dipole moment (field-independent basis, Debye):
    X=              0.0000    Y=              0.0000    Z=              0.0000  Tot=              0.0000
 Quadrupole moment (field-independent basis, Debye-Ang):
   XX=             -6.9568   YY=             -6.9568   ZZ=             -4.7255
   XY=             -0.0000   XZ=             -0.0000   YZ=              0.0000

  Exact polarizability:   1.933   0.000   1.933   0.000  -0.000  33.301
 Approx polarizability:   2.377   0.000   2.377  -0.000   0.000  74.073

 ******    3 imaginary frequencies (negative Signs) ******

                      1                      2                      3
                     SGU                    PIU                    PIU
 Frequencies --  -1973.0100               -78.8596               -78.8596
 Red. masses --      1.1085                 1.1085                 1.1085
 Frc consts  --      2.5424                 0.0041                 0.0041
 IR Inten    --   2704.5688                42.0029                42.0029

                      4
                     SGG
 Frequencies --   2025.5773
 Red. masses --      1.0078
 Frc consts  --      2.4363
 IR Inten    --      0.0000

 - Thermochemistry -
 -------------------
 Temperature   298.150 Kelvin.  Pressure   1.00000 Atm.
 Atom     1 has atomic number  1 and mass   1.00783

 Molecular mass:    21.01405 amu.
 Principal axes and moments of inertia in atomic units:
                           1         2         3
     Eigenvalues --     0.00000  10.41010  10.41010
           X           -0.00000   1.00000   0.00000
           Y            0.00000   0.00000   1.00000
           Z            1.00000   0.00000   0.00000
 This molecule is a prolate symmetric top.
 Rotational symmetry number  2.
 Rotational temperature (Kelvin)      8.32018
 Rotational constant (GHZ):         173.364494
    3 imaginary frequencies ignored.
 Zero-point vibrational energy      12115.6 (Joules/Mol)
                                    2.89571 (Kcal/Mol)
 Vibrational temperatures:   2914.35
          (Kelvin)

 Zero-point correction=                           0.004615 (Hartree/Particle)
 Thermal correction to Energy=                    0.006976
 Thermal correction to Enthalpy=                  0.007920
 Thermal correction to Gibbs Free Energy=        -0.013066
 Sum of electronic and zero-point Energies=           -100.853094
 Sum of electronic and thermal Energies=              -100.850733
 Sum of electronic and thermal Enthalpies=            -100.849789
 Sum of electronic and thermal Free Energies=         -100.870775

                     E (Thermal)             CV                S
                      KCal/Mol        Cal/Mol-Kelvin    Cal/Mol-Kelvin
 Total                    4.377              4.979             44.168
 Electronic               0.000              0.000              1.377
 Translational            0.889              2.981             35.068
 Rotational               0.592              1.987              7.722
 Vibrational              2.896              0.011              0.001

 Optimization completed.
    -- Stationary point found.
 Normal termination of Gaussian 16 at Wed Oct  7 14:48:47 2020.
