 Gaussian 16, Revision A.03,
 Gaussian 16:  ES64L-G16RevA.03 25-Dec-2016

 ----------------------------------------------------------------------
 #P Opt(MaxCyc=100) BLYP/6-31G* 5D 7F Integral=UltraFineGrid SCF=(NoSym
 m,XQC,MaxCyc=120) IOp(1/33=1)
 ----------------------------------------------------------------------

 TstMul:  Mul=     1
 TstMul:  ICh=     0
 TstMul:  Mul=     1
 Symbolic Z-matrix:
 Charge =  0 Multiplicity = 1

 SCF Done:  E(RB-LYP) =  -184.644534871     A.U. after   13 cycles
 SCF Done:  E(RB-LYP) =  -184.647409820     A.U. after   12 cycles
 SCF Done:  E(RB-LYP) =  -184.647501744     A.U. after    9 cycles
 Optimization completed.
    -- Stationary point found.

                         Standard orientation:
 ---------------------------------------------------------------------
 Center     Atomic      Atomic             Coordinates (Angstroms)
 Number     Number       Type             X           Y           Z
 ---------------------------------------------------------------------
      1          7           0        0.000000    0.000000   -1.225072
      2          7           0        0.000000    0.000000   -0.072256
      3          8           0        0.000000    0.000000    1.135162
 ---------------------------------------------------------------------

 The electronic state is 1-SG.
 Alpha  occ. eigenvalues --  -18.89825 -14.24231 -14.12004  -1.12224  -0.97528
 Alpha  occ. eigenvalues --   -0.53276  -0.48551  -0.48551  -0.40807  -0.28930
 Alpha  occ. eigenvalues --   -0.28930
 Alpha virt. eigenvalues --   -0.05240  -0.05240   0.07699   0.38805   0.55310
 Alpha virt. eigenvalues --    0.55650   0.55650   0.68451   0.69553   0.69553
 Alpha virt. eigenvalues --    0.70068   0.89644   0.89644   0.96645   1.28355

 Mulliken charges:
               1
     1  N   -0.104916
     2  N    0.481110
     3  O   -0.376194
 Sum of Mulliken charges =  -0.00000

 Dipole moment (field-independent basis, Debye):
    X=              0.0000    Y=             -0.0000    Z=              0.1346  Tot=              0.1346
 Quadrupole moment (field-independent basis, Debye-Ang):
   XX=            -15.0019   YY=            -15.0019   ZZ=            -18.7053
   XY=             -0.0000   XZ=              0.0000   YZ=             -0.0000

 Normal termination of Gaussian 16 at Wed Oct  7 14:49:20 2020.
