 Gaussian 16, Revision A.03,
 Gaussian 16:  ES64L-G16RevA.03 25-Dec-2016

 ----------------------------------------------------------------------
 #P Opt(MaxCyc=100) BLYP/6-31G* 5D 7F Integral=UltraFineGrid SCF=(NoSym
 m,XQC,MaxCyc=120) IOp(1/33=1)
 ----------------------------------------------------------------------

 TstMul:  Mul=     1
 TstMul:  ICh=    -1
 TstMul:  Mul=     1
 Symbolic Z-matrix:
 Charge = -1 Multiplicity = 1

 SCF Done:  E(RB-LYP) =  -215.491126596     A.U. after   14 cycles
 SCF Done:  E(RB-LYP) =  -215.492997492     A.U. after   12 cycles
 SCF Done:  E(RB-LYP) =  -215.489454675     A.U. after   13 cycles
 SCF Done:  E(RB-LYP) =  -215.496129884     A.U. after   11 cycles
 SCF Done:  E(RB-LYP) =  -215.495007460     A.U. after   12 cycles
 SCF Done:  E(RB-LYP) =  -215.497954868     A.U. after   11 cycles
 SCF Done:  E(RB-LYP) =  -215.498466815     A.U. after   12 cycles
 SCF Done:  E(RB-LYP) =  -215.498816505     A.U. after   11 cycles
 SCF Done:  E(RB-LYP) =  -215.498941817     A.U. after   11 cycles
 SCF Done:  E(RB-LYP) =  -215.498950751     A.U. after    9 cycles
 SCF Done:  E(RB-LYP) =  -215.499081632     A.U. after   11 cycles
 SCF Done:  E(RB-LYP) =  -215.499147894     A.U. after   11 cycles
 SCF Done:  E(RB-LYP) =  -215.499208349     A.U. after   11 cycles
 SCF Done:  E(RB-LYP) =  -215.499270683     A.U. after   11 cycles
 SCF Done:  E(RB-LYP) =  -215.499359805     A.U. after   11 cycles
 SCF Done:  E(RB-LYP) =  -215.499407678     A.U. after   11 cycles
 SCF Done:  E(RB-LYP) =  -215.499429114     A.U. after   10 cycles
 SCF Done:  E(RB-LYP) =  -215.499432868     A.U. after   10 cycles
 SCF Done:  E(RB-LYP) =  -215.499433597     A.U. after    8 cycles
 SCF Done:  E(RB-LYP) =  -215.499433772     A.U. after    8 cycles
 Optimization completed.
    -- Stationary point found.

                         Standard orientation:
 ---------------------------------------------------------------------
 Center     Atomic      Atomic             Coordinates (Angstroms)
 Number     Number       Type             X           Y           Z
 ---------------------------------------------------------------------
      1          6           0       -1.251517   -0.388515    0.000035
      2          8           0       -0.500416    0.757732   -0.000024
      3          1           0       -1.953421   -0.506190   -0.891981
      4          1           0       -0.630158   -1.326611   -0.000450
      5          1           0       -1.952850   -0.506407    0.892342
      6          1           0        0.700505    0.322973    0.000044
      7          9           0        1.705373   -0.190503    0.000003
 ---------------------------------------------------------------------

 The electronic state is 1-A.
 Alpha  occ. eigenvalues --  -23.91732 -18.48513  -9.73760  -0.69019  -0.60908
 Alpha  occ. eigenvalues --   -0.34819  -0.17103  -0.14103  -0.11989  -0.05850
 Alpha  occ. eigenvalues --    0.02163   0.02170   0.05464   0.06715
 Alpha virt. eigenvalues --    0.27862   0.33841   0.34229   0.38061   0.50768
 Alpha virt. eigenvalues --    0.73892   0.75878   0.76684   0.89623   0.97052
 Alpha virt. eigenvalues --    0.98368   1.03391   1.16517   1.17684   1.20521

 Mulliken charges:
               1
     1  C   -0.074440
     2  O   -0.673789
     3  H   -0.022643
     4  H    0.029878
     5  H   -0.022582
     6  H    0.428226
     7  F   -0.664650
 Sum of Mulliken charges =  -1.00000

 Dipole moment (field-independent basis, Debye):
    X=             -1.3593    Y=             -0.9022    Z=              0.0003  Tot=              1.6315
 Quadrupole moment (field-independent basis, Debye-Ang):
   XX=            -31.0564   YY=            -22.6987   ZZ=            -20.9115
   XY=              1.6381   XZ=             -0.0005   YZ=              0.0002

 Normal termination of Gaussian 16 at Wed Oct  7 14:58:10 2020.
