 Gaussian 16, Revision A.03,
 Gaussian 16:  ES64L-G16RevA.03 25-Dec-2016

 ----------------------------------------------------------------------
 #P Opt(MaxCyc=100) BLYP/6-31G* 5D 7F Integral=UltraFineGrid SCF=(NoSym
 m,XQC,MaxCyc=120) IOp(1/33=1)
 ----------------------------------------------------------------------

 TstMul:  Mul=     1
 TstMul:  ICh=    -1
 TstMul:  Mul=     1
 Symbolic Z-matrix:
 Charge = -1 Multiplicity = 1

 SCF Done:  E(RB-LYP) =  -215.417936658     A.U. after   16 cycles
 SCF Done:  E(RB-LYP) =  -215.422698839     A.U. after   12 cycles
 SCF Done:  E(RB-LYP) =  -215.426220916     A.U. after   15 cycles
 SCF Done:  E(RB-LYP) =  -215.427854483     A.U. after   13 cycles
 SCF Done:  E(RB-LYP) =  -215.428421958     A.U. after   12 cycles
 SCF Done:  E(RB-LYP) =  -215.428860411     A.U. after   12 cycles
 SCF Done:  E(RB-LYP) =  -215.428972600     A.U. after   12 cycles
 SCF Done:  E(RB-LYP) =  -215.429041972     A.U. after   11 cycles
 SCF Done:  E(RB-LYP) =  -215.429067916     A.U. after   11 cycles
 SCF Done:  E(RB-LYP) =  -215.429087873     A.U. after   11 cycles
 SCF Done:  E(RB-LYP) =  -215.432077529     A.U. after   13 cycles
 SCF Done:  E(RB-LYP) =  -215.432654349     A.U. after   12 cycles
 SCF Done:  E(RB-LYP) =  -215.433388809     A.U. after   13 cycles
 SCF Done:  E(RB-LYP) =  -215.433876071     A.U. after   13 cycles
 SCF Done:  E(RB-LYP) =  -215.434000503     A.U. after   12 cycles
 SCF Done:  E(RB-LYP) =  -215.434056886     A.U. after   12 cycles
 SCF Done:  E(RB-LYP) =  -215.434096794     A.U. after   12 cycles
 SCF Done:  E(RB-LYP) =  -215.434106329     A.U. after    9 cycles
 SCF Done:  E(RB-LYP) =  -215.434112794     A.U. after    9 cycles
 SCF Done:  E(RB-LYP) =  -215.434115100     A.U. after    8 cycles
 Optimization completed.
    -- Stationary point found.

                         Standard orientation:
 ---------------------------------------------------------------------
 Center     Atomic      Atomic             Coordinates (Angstroms)
 Number     Number       Type             X           Y           Z
 ---------------------------------------------------------------------
      1          9           0        1.689436    0.418567   -0.013702
      2          6           0        0.559856   -0.490244    0.015577
      3          1           0       -0.522388   -0.007395   -0.089328
      4          1           0        0.722884   -1.230328   -0.801507
      5          1           0        0.631156   -1.053917    0.974674
      6          8           0       -2.149596    0.144089   -0.114360
      7          1           0       -2.198947    0.313288    0.860896
 ---------------------------------------------------------------------

 The electronic state is 1-A.
 Alpha  occ. eigenvalues --  -24.05575 -18.40564  -9.74885  -0.83509  -0.48180
 Alpha  occ. eigenvalues --   -0.38864  -0.19429  -0.18591  -0.16176  -0.06638
 Alpha  occ. eigenvalues --   -0.05889  -0.01708   0.12787   0.13450
 Alpha virt. eigenvalues --    0.27229   0.28465   0.32117   0.33755   0.47747
 Alpha virt. eigenvalues --    0.68067   0.72189   0.74938   0.97906   0.99563
 Alpha virt. eigenvalues --    1.04844   1.08150   1.13251   1.20545   1.29124

 Mulliken charges:
               1
     1  F   -0.385282
     2  C   -0.169616
     3  H    0.222242
     4  H    0.032474
     5  H    0.029186
     6  O   -0.931181
     7  H    0.202177
 Sum of Mulliken charges =  -1.00000

 Dipole moment (field-independent basis, Debye):
    X=              5.1706    Y=             -0.8492    Z=              1.2283  Tot=              5.3819
 Quadrupole moment (field-independent basis, Debye-Ang):
   XX=            -41.5412   YY=            -21.0331   ZZ=            -19.3756
   XY=              0.0846   XZ=             -2.7855   YZ=              0.4790

 Normal termination of Gaussian 16 at Wed Oct  7 15:04:17 2020.
