 Gaussian 16, Revision A.03,
 Gaussian 16:  ES64L-G16RevA.03 25-Dec-2016

 ----------------------------------------------------------------------
 #P Opt(MaxCyc=100) BLYP/6-31G* 5D 7F Integral=UltraFineGrid SCF=(NoSym
 m,XQC,MaxCyc=120) IOp(1/33=1)
 ----------------------------------------------------------------------

 TstMul:  Mul=     3
 TstMul:  ICh=     0
 TstMul:  Mul=     3
 Symbolic Z-matrix:
 Charge =  0 Multiplicity = 3

 SCF Done:  E(UB-LYP) =  -55.1984728987     A.U. after   11 cycles
 SCF Done:  E(UB-LYP) =  -55.1988311647     A.U. after    8 cycles
 SCF Done:  E(UB-LYP) =  -55.1988361602     A.U. after    7 cycles
 Optimization completed.
    -- Stationary point found.

                         Standard orientation:
 ---------------------------------------------------------------------
 Center     Atomic      Atomic             Coordinates (Angstroms)
 Number     Number       Type             X           Y           Z
 ---------------------------------------------------------------------
      1          7           0        0.000000    0.000000    0.132570
      2          1           0        0.000000    0.000000   -0.927987
 ---------------------------------------------------------------------

 The electronic state is 3-SG.
 Alpha  occ. eigenvalues --  -14.09200  -0.74252  -0.33652  -0.26474  -0.26474
 Alpha virt. eigenvalues --    0.06074   0.59505   0.59505   0.66938   0.69001
 Alpha virt. eigenvalues --    0.91091   1.59802   1.59802   1.60137   1.60137
 Alpha virt. eigenvalues --    2.12449
  Beta  occ. eigenvalues --  -14.05854  -0.65670  -0.29862
  Beta virt. eigenvalues --   -0.13818  -0.13818   0.07693   0.68465   0.68465
  Beta virt. eigenvalues --    0.69865   0.70339   0.97593   1.67206   1.67206
  Beta virt. eigenvalues --    1.74184   1.74184   2.18008

 Mulliken charges and spin densities:
               1          2
     1  N   -0.274482   2.063661
     2  H    0.274482  -0.063661
 Sum of Mulliken charges =   0.00000   2.00000

 Dipole moment (field-independent basis, Debye):
    X=              0.0000    Y=              0.0000    Z=             -1.5147  Tot=              1.5147
 Quadrupole moment (field-independent basis, Debye-Ang):
   XX=             -6.1634   YY=             -6.1634   ZZ=             -5.7845
   XY=              0.0000   XZ=              0.0000   YZ=              0.0000

 Normal termination of Gaussian 16 at Wed Oct  7 14:49:18 2020.
