 Gaussian 16, Revision A.03,
 Gaussian 16:  ES64L-G16RevA.03 25-Dec-2016

 ----------------------------------------------------------------------
 #P Opt(MaxCyc=100) BLYP/6-31G* 5D 7F Integral=UltraFineGrid SCF=(NoSym
 m,XQC,MaxCyc=120) IOp(1/33=1)
 ----------------------------------------------------------------------

 TstMul:  Mul=     1
 TstMul:  ICh=     0
 TstMul:  Mul=     1
 Symbolic Z-matrix:
 Charge =  0 Multiplicity = 1

 SCF Done:  E(RB-LYP) =  -109.505120872     A.U. after    8 cycles
 SCF Done:  E(RB-LYP) =  -109.506287210     A.U. after    6 cycles
 SCF Done:  E(RB-LYP) =  -109.506307139     A.U. after    6 cycles
 Optimization completed.
    -- Stationary point found.

                         Standard orientation:
 ---------------------------------------------------------------------
 Center     Atomic      Atomic             Coordinates (Angstroms)
 Number     Number       Type             X           Y           Z
 ---------------------------------------------------------------------
      1          7           0        0.000000    0.000000    0.559006
      2          7           0        0.000000    0.000000   -0.559006
 ---------------------------------------------------------------------

 The electronic state is 1-SGG.
 Alpha  occ. eigenvalues --  -14.12731 -14.12652  -1.01284  -0.48225  -0.40343
 Alpha  occ. eigenvalues --   -0.40343  -0.35829
 Alpha virt. eigenvalues --   -0.06077  -0.06077   0.37976   0.56708   0.56708
 Alpha virt. eigenvalues --    0.56995   0.68481   0.70261   0.70261   0.73753
 Alpha virt. eigenvalues --    1.22837   1.40457   1.40457   1.48193   1.48193

 Mulliken charges:
               1
     1  N   -0.000000
     2  N   -0.000000
 Sum of Mulliken charges =  -0.00000

 Dipole moment (field-independent basis, Debye):
    X=             -0.0000    Y=             -0.0000    Z=              0.0000  Tot=              0.0000
 Quadrupole moment (field-independent basis, Debye-Ang):
   XX=             -9.9924   YY=             -9.9924   ZZ=            -11.6251
   XY=             -0.0000   XZ=              0.0000   YZ=             -0.0000

 Normal termination of Gaussian 16 at Wed Oct  7 14:48:52 2020.
