 Gaussian 16, Revision A.03,
 Gaussian 16:  ES64L-G16RevA.03 25-Dec-2016

 ----------------------------------------------------------------------
 #P Opt(MaxCyc=100) BLYP/6-31G* 5D 7F Integral=UltraFineGrid SCF=(NoSym
 m,XQC,MaxCyc=120) IOp(1/33=1)
 ----------------------------------------------------------------------

 TstMul:  Mul=     1
 TstMul:  ICh=     0
 TstMul:  Mul=     1
 Symbolic Z-matrix:
 Charge =  0 Multiplicity = 1

 SCF Done:  E(RB-LYP) =  -93.3673405192     A.U. after   12 cycles
 SCF Done:  E(RB-LYP) =  -93.3682003775     A.U. after   10 cycles
 SCF Done:  E(RB-LYP) =  -93.3682060029     A.U. after    7 cycles
 Optimization completed.
    -- Stationary point found.

                         Standard orientation:
 ---------------------------------------------------------------------
 Center     Atomic      Atomic             Coordinates (Angstroms)
 Number     Number       Type             X           Y           Z
 ---------------------------------------------------------------------
      1          6           0        0.000000    0.000000   -0.751134
      2          7           0        0.000000    0.000000    0.437255
      3          1           0        0.000000    0.000000    1.446013
 ---------------------------------------------------------------------

 The electronic state is 1-SG.
 Alpha  occ. eigenvalues --  -14.06083  -9.96586  -0.84353  -0.59434  -0.31645
 Alpha  occ. eigenvalues --   -0.31645  -0.25683
 Alpha virt. eigenvalues --   -0.00663  -0.00663   0.03615   0.32580   0.46470
 Alpha virt. eigenvalues --    0.51448   0.51448   0.60699   0.67927   0.67927
 Alpha virt. eigenvalues --    0.85960   1.11891   1.37224   1.44453   1.44453

 Mulliken charges:
               1
     1  C    0.012000
     2  N   -0.349391
     3  H    0.337391
 Sum of Mulliken charges =  -0.00000

 Dipole moment (field-independent basis, Debye):
    X=              0.0000    Y=              0.0000    Z=              2.9281  Tot=              2.9281
 Quadrupole moment (field-independent basis, Debye-Ang):
   XX=            -11.5098   YY=            -11.5098   ZZ=             -9.9736
   XY=             -0.0000   XZ=              0.0000   YZ=              0.0000

 Normal termination of Gaussian 16 at Wed Oct  7 14:48:48 2020.
