 Gaussian 16, Revision A.03,

 ----------------------------------------------------------------------
 #P Opt(TS,MaxCyc=50,NoEigenTest,MaxStep=10,AddRedundant) BLYP/6-31G* 5
 D 7F Integral=UltraFineGrid SCF=(NoSymm,XQC,MaxCyc=120) IOp(1/33=1)
 ----------------------------------------------------------------------

 TstMul:  Mul=     1
 TstMul:  ICh=    -1
 TstMul:  Mul=     1
 Symbolic Z-matrix:
 Charge = -1 Multiplicity = 1

 SCF Done:  E(RB-LYP) =  -215.420171765     A.U. after   15 cycles
 SCF Done:  E(RB-LYP) =  -215.421900233     A.U. after   13 cycles
 SCF Done:  E(RB-LYP) =  -215.422133964     A.U. after   11 cycles
 SCF Done:  E(RB-LYP) =  -215.422248480     A.U. after   12 cycles
 SCF Done:  E(RB-LYP) =  -215.422301006     A.U. after   12 cycles
 SCF Done:  E(RB-LYP) =  -215.422347924     A.U. after   12 cycles
 SCF Done:  E(RB-LYP) =  -215.422302918     A.U. after   13 cycles
 SCF Done:  E(RB-LYP) =  -215.422476843     A.U. after   14 cycles
 SCF Done:  E(RB-LYP) =  -215.422306121     A.U. after   11 cycles
 SCF Done:  E(RB-LYP) =  -215.422199290     A.U. after   12 cycles
 SCF Done:  E(RB-LYP) =  -215.422201001     A.U. after   12 cycles
 SCF Done:  E(RB-LYP) =  -215.422202263     A.U. after    9 cycles
 SCF Done:  E(RB-LYP) =  -215.422202550     A.U. after    8 cycles
 Optimization completed.
    -- Stationary point found.
 Normal termination of Gaussian 16 at Wed Oct  7 14:51:33 2020.
 Gaussian 16:  ES64L-G16RevA.03 25-Dec-2016

 ----------------------------------------------------------------------
 #P Freq BLYP/6-31G* 5D 7F Integral=UltraFineGrid SCF=(NoSymm,XQC,MaxCy
 c=120) IOp(1/33=1) Geom=Check Guess=Read
 ----------------------------------------------------------------------

 TstMul:  Mul=     1
 TstMul:  ICh=    -1
 TstMul:  Mul=     1
 Structure from the checkpoint file:  "MN_63_hoch3fts_BH76_BLYP_631Gs.chk"
 Charge = -1 Multiplicity = 1

                         Standard orientation:
 ---------------------------------------------------------------------
 Center     Atomic      Atomic             Coordinates (Angstroms)
 Number     Number       Type             X           Y           Z
 ---------------------------------------------------------------------
      1          9           0        1.892685   -0.021293    0.000048
      2          6           0        0.071153    0.030614   -0.000037
      3          1           0        0.033091    1.114702   -0.007534
      4          1           0        0.020927   -0.508470   -0.939955
      5          1           0        0.020563   -0.495584    0.947100
      6          8           0       -1.931303    0.096981   -0.000001
      7          1           0       -2.085239   -0.878549    0.000180
 ---------------------------------------------------------------------

 SCF Done:  E(RB-LYP) =  -215.422202550     A.U. after    1 cycles

 The electronic state is 1-A.
 Alpha  occ. eigenvalues --  -23.90589 -18.46622  -9.73548  -0.65729  -0.54340
 Alpha  occ. eigenvalues --   -0.36606  -0.15487  -0.15464  -0.07296  -0.03160
 Alpha  occ. eigenvalues --    0.04205   0.04289   0.07179   0.08606
 Alpha virt. eigenvalues --    0.25976   0.27852   0.33388   0.34955   0.35170
 Alpha virt. eigenvalues --    0.74285   0.74913   0.86242   0.95824   1.02114
 Alpha virt. eigenvalues --    1.04589   1.06393   1.13975   1.17291   1.28418

 Mulliken charges:
               1
     1  F   -0.585001
     2  C   -0.111170
     3  H    0.104889
     4  H    0.093746
     5  H    0.094041
     6  O   -0.837603
     7  H    0.241099
 Sum of Mulliken charges =  -1.00000

 Dipole moment (field-independent basis, Debye):
    X=              0.3044    Y=             -1.1365    Z=              0.0001  Tot=              1.1766
 Quadrupole moment (field-independent basis, Debye-Ang):
   XX=            -40.7323   YY=            -18.2616   ZZ=            -19.6721
   XY=              2.8482   XZ=             -0.0008   YZ=             -0.0006

  Exact polarizability:  42.618   2.424  20.640  -0.002   0.000  16.064
 Approx polarizability:  98.163   0.307  31.731  -0.002   0.001  22.358

 ******    1 imaginary frequencies (negative Signs) ******

                      1                      2                      3
                      A                      A                      A
 Frequencies --   -414.4588               200.0838               273.4093
 Red. masses --      9.5509                 1.0518                 3.4065
 Frc consts  --      0.9666                 0.0248                 0.1500
 IR Inten    --    638.9128                39.4276                11.7846

                      4                      5                      6
                      A                      A                      A
 Frequencies --    290.7119               321.5632               761.6543
 Red. masses --      4.4804                13.0208                 1.1153
 Frc consts  --      0.2231                 0.7933                 0.3812
 IR Inten    --     19.7927                 6.1094                22.9532

                      7                      8                      9
                      A                      A                      A
 Frequencies --    906.0401               956.1869              1041.2712
 Red. masses --      1.0201                 1.0650                 1.0590
 Frc consts  --      0.4934                 0.5737                 0.6765
 IR Inten    --      0.0310                 4.4907                 1.4919

                     10                     11                     12
                      A                      A                      A
 Frequencies --   1346.2498              1351.3302              3057.7174
 Red. masses --      1.1250                 1.1148                 1.0084
 Frc consts  --      1.2013                 1.1994                 5.5547
 IR Inten    --      0.8871                 1.3782                 0.1134

                     13                     14                     15
                      A                      A                      A
 Frequencies --   3233.6173              3236.8706              3454.3564
 Red. masses --      1.1283                 1.1261                 1.0678
 Frc consts  --      6.9512                 6.9517                 7.5069
 IR Inten    --     52.9682                43.9206                91.3921

 - Thermochemistry -
 -------------------
 Temperature   298.150 Kelvin.  Pressure   1.00000 Atm.
 Atom     1 has atomic number  9 and mass  18.99840

 Molecular mass:    51.02462 amu.
 Principal axes and moments of inertia in atomic units:
                           1         2         3
     Eigenvalues --    15.93951 477.40899 480.53191
           X            0.99989   0.01493  -0.00001
           Y           -0.01493   0.99989   0.00001
           Z            0.00001  -0.00001   1.00000
 This molecule is an asymmetric top.
 Rotational symmetry number  1.
 Rotational temperatures (Kelvin)      5.43391     0.18142     0.18025
 Rotational constants (GHZ):         113.22440     3.78028     3.75572
    1 imaginary frequencies ignored.
 Zero-point vibrational energy     122204.9 (Joules/Mol)
                                   29.20767 (Kcal/Mol)
 Warning -- explicit consideration of   4 degrees of freedom as
           vibrations may cause significant error
 Vibrational temperatures:    287.88   393.37   418.27   462.66  1095.85
          (Kelvin)           1303.59  1375.74  1498.16  1936.95  1944.26
                             4399.37  4652.45  4657.13  4970.05

 Zero-point correction=                           0.046545 (Hartree/Particle)
 Thermal correction to Energy=                    0.051455
 Thermal correction to Enthalpy=                  0.052399
 Thermal correction to Gibbs Free Energy=         0.020270
 Sum of electronic and zero-point Energies=           -215.375657
 Sum of electronic and thermal Energies=              -215.370747
 Sum of electronic and thermal Enthalpies=            -215.369803
 Sum of electronic and thermal Free Energies=         -215.401933

                     E (Thermal)             CV                S
                      KCal/Mol        Cal/Mol-Kelvin    Cal/Mol-Kelvin
 Total                   32.289             15.069             67.622
 Electronic               0.000              0.000              0.000
 Translational            0.889              2.981             37.712
 Rotational               0.889              2.981             22.818
 Vibrational             30.511              9.107              7.091
 Vibration     1          0.638              1.840              2.132
 Vibration     2          0.676              1.722              1.575
 Vibration     3          0.687              1.691              1.470
 Vibration     4          0.707              1.632              1.302

                           ! Non-Optimized Parameters !
 Normal termination of Gaussian 16 at Wed Oct  7 14:52:02 2020.
