 Gaussian 16, Revision A.03,

 ----------------------------------------------------------------------
 #P Opt(TS,MaxCyc=50,NoEigenTest,MaxStep=10,AddRedundant) BLYP/6-31G* 5
 D 7F Integral=UltraFineGrid SCF=(NoSymm,XQC,MaxCyc=120) IOp(1/33=1)
 ----------------------------------------------------------------------

 TstMul:  Mul=     2
 TstMul:  ICh=     0
 TstMul:  Mul=     2
 Symbolic Z-matrix:
 Charge =  0 Multiplicity = 2

 SCF Done:  E(UB-LYP) =  -185.124438183     A.U. after   18 cycles
 SCF Done:  E(UB-LYP) =  -185.128269954     A.U. after   16 cycles
 SCF Done:  E(UB-LYP) =  -185.130441887     A.U. after   16 cycles
 SCF Done:  E(UB-LYP) =  -185.128516377     A.U. after   17 cycles
 SCF Done:  E(UB-LYP) =  -185.127737258     A.U. after   16 cycles
 SCF Done:  E(UB-LYP) =  -185.127650934     A.U. after   15 cycles
 SCF Done:  E(UB-LYP) =  -185.127649593     A.U. after   11 cycles
 Optimization completed.
    -- Stationary point found.

 1\1\GINC-NODE22\FTS\UBLYP\6-31G(d)\H1N2O1(2)\RPEVERATI\07-Oct-2020\0\\
 #P Opt(TS,MaxCyc=50,NoEigenTest,MaxStep=10,AddRedundant) BLYP/6-31G* 5
 D 7F Integral=UltraFineGrid SCF=(NoSymm,XQC,MaxCyc=120) IOp(1/33=1)\\T
 S search on BH76.\\0,2\H,-0.3445436492,-2.0349387646,0.\O,-0.855884316
 2,-0.6148556453,0.\N,0.0093816047,0.2856822682,0.\N,1.0540868316,0.798
 0074236,0.\\Version=ES64L-G16RevA.03\State=2-A'\HF=-185.1276496\S2=0.7
 5962\S2-1=0.\S2A=0.75001\RMSD=3.093e-09\RMSF=9.076e-05\Dipole=-0.08496
 96,-0.0757777,0.\Quadrupole=-0.9300976,0.0890202,0.8410774,-1.1222252,

 Normal termination of Gaussian 16 at Wed Oct  7 14:50:22 2020.
 Gaussian 16:  ES64L-G16RevA.03 25-Dec-2016

 ----------------------------------------------------------------------
 #P Freq BLYP/6-31G* 5D 7F Integral=UltraFineGrid SCF=(NoSymm,XQC,MaxCy
 c=120) IOp(1/33=1) Geom=Check Guess=Read
 ----------------------------------------------------------------------

 TstMul:  Mul=     2
 TstMul:  ICh=     0
 TstMul:  Mul=     2
 Structure from the checkpoint file:  "MN_68_n2ohts_BH76_BLYP_631Gs.chk"
 Charge =  0 Multiplicity = 2

                         Standard orientation:
 ---------------------------------------------------------------------
 Center     Atomic      Atomic             Coordinates (Angstroms)
 Number     Number       Type             X           Y           Z
 ---------------------------------------------------------------------
      1          1           0       -0.368331   -2.060171   -0.000000
      2          8           0       -0.870842   -0.636940   -0.000000
      3          7           0       -0.000000    0.258207    0.000000
      4          7           0        1.047867    0.764034    0.000000
 ---------------------------------------------------------------------

 SCF Done:  E(UB-LYP) =  -185.127649593     A.U. after    1 cycles

 The electronic state is 2-A'.
 Alpha  occ. eigenvalues --  -18.91354 -14.22242 -14.12108  -1.10397  -0.96144
 Alpha  occ. eigenvalues --   -0.57054  -0.47737  -0.47224  -0.41620  -0.32724
 Alpha  occ. eigenvalues --   -0.29587  -0.18911
 Alpha virt. eigenvalues --   -0.07805  -0.06419   0.09197   0.41148   0.53944
 Alpha virt. eigenvalues --    0.55912   0.56209   0.64476   0.66872   0.68791
 Alpha virt. eigenvalues --    0.69505   0.72338   0.87485   0.88363   1.04588

  Beta  occ. eigenvalues --  -18.91260 -14.22065 -14.11625  -1.09941  -0.95570
  Beta  occ. eigenvalues --   -0.56257  -0.46939  -0.46877  -0.40594  -0.30815
  Beta  occ. eigenvalues --   -0.29290
  Beta virt. eigenvalues --   -0.12419  -0.05923  -0.03746   0.09735   0.41604
  Beta virt. eigenvalues --    0.56113   0.56419   0.57088   0.67401   0.68397
  Beta virt. eigenvalues --    0.69809   0.71515   0.74907   0.87495   0.88746

 Mulliken charges and spin densities:
               1          2
     1  H    0.042798   0.709534
     2  O   -0.330263  -0.062135
     3  N    0.384848   0.086153
     4  N   -0.097383   0.266448
 Sum of Mulliken charges =  -0.00000   1.00000

 Dipole moment (field-independent basis, Debye):
    X=             -0.2172    Y=             -0.1913    Z=              0.0000  Tot=              0.2894
 Quadrupole moment (field-independent basis, Debye-Ang):
   XX=            -18.7610   YY=            -17.3529   ZZ=            -16.3600
   XY=             -1.5008   XZ=             -0.0000   YZ=             -0.0000

  Exact polarizability:  22.232  12.117  38.694   0.000   0.000   7.608
 Approx polarizability:  76.389  56.407 112.519   0.000   0.000  11.838

 ******    1 imaginary frequencies (negative Signs) ******

                      1                      2                      3
                     A'                     A'                     A"
 Frequencies --  -1076.1594               451.8334               539.7668
 Red. masses --      1.5220                 1.3163                 4.7519
 Frc consts  --      1.0385                 0.1583                 0.8157
 IR Inten    --    355.2320                11.3577                 4.8711

                      4                      5                      6
                     A'                     A'                     A'
 Frequencies --    776.5403              1152.8213              2056.3905
 Red. masses --      2.5415                 5.6086                13.9478
 Frc consts  --      0.9030                 4.3916                34.7511
 IR Inten    --      0.2208                30.0132               206.1514

 - Thermochemistry -
 -------------------
 Temperature   298.150 Kelvin.  Pressure   1.00000 Atm.
 Atom     1 has atomic number  1 and mass   1.00783

 Molecular mass:    45.00889 amu.
 Principal axes and moments of inertia in atomic units:
                           1         2         3
     Eigenvalues --     8.97111 160.37002 169.34113
           X            0.76986  -0.63822   0.00000
           Y            0.63822   0.76986   0.00000
           Z           -0.00000   0.00000   1.00000
 This molecule is an asymmetric top.
 Rotational symmetry number  1.
 Rotational temperatures (Kelvin)      9.65476     0.54009     0.51148
 Rotational constants (GHZ):         201.17254    11.25361    10.65743
    1 imaginary frequencies ignored.
 Zero-point vibrational energy      29771.2 (Joules/Mol)
                                    7.11548 (Kcal/Mol)
 Warning -- explicit consideration of   2 degrees of freedom as
           vibrations may cause significant error
 Vibrational temperatures:    650.09   776.60  1117.27  1658.65  2958.69
          (Kelvin)

 Zero-point correction=                           0.011339 (Hartree/Particle)
 Thermal correction to Energy=                    0.014737
 Thermal correction to Enthalpy=                  0.015681
 Thermal correction to Gibbs Free Energy=        -0.013054
 Sum of electronic and zero-point Energies=           -185.116310
 Sum of electronic and thermal Energies=              -185.112913
 Sum of electronic and thermal Enthalpies=            -185.111969
 Sum of electronic and thermal Free Energies=         -185.140704

                     E (Thermal)             CV                S
                      KCal/Mol        Cal/Mol-Kelvin    Cal/Mol-Kelvin
 Total                    9.247              9.418             60.477
 Electronic               0.000              0.000              1.377
 Translational            0.889              2.981             37.338
 Rotational               0.889              2.981             20.127
 Vibrational              7.470              3.457              1.635
 Vibration     1          0.810              1.357              0.790
 Vibration     2          0.895              1.162              0.566

 Optimization completed.
    -- Stationary point found.
 Normal termination of Gaussian 16 at Wed Oct  7 14:50:50 2020.
