 Gaussian 16, Revision A.03,
 Gaussian 16:  ES64L-G16RevA.03 25-Dec-2016

 ----------------------------------------------------------------------
 #P Opt(MaxCyc=100) BLYP/6-31G* 5D 7F Integral=UltraFineGrid SCF=(NoSym
 m,XQC,MaxCyc=120) IOp(1/33=1)
 ----------------------------------------------------------------------

 TstMul:  Mul=     2
 TstMul:  ICh=     0
 TstMul:  Mul=     2
 Symbolic Z-matrix:
 Charge =  0 Multiplicity = 2

 SCF Done:  E(UB-LYP) =  -398.713209872     A.U. after   12 cycles
 SCF Done:  E(UB-LYP) =  -398.713560295     A.U. after   10 cycles
 Optimization completed.
    -- Stationary point found.

                         Standard orientation:
 ---------------------------------------------------------------------
 Center     Atomic      Atomic             Coordinates (Angstroms)
 Number     Number       Type             X           Y           Z
 ---------------------------------------------------------------------
      1         16           0        0.000000    0.000000    0.080450
      2          1           0        0.000000    0.000000   -1.287193
 ---------------------------------------------------------------------

 Unable to determine electronic state:  partially filled degenerate orbitals.
 Alpha  occ. eigenvalues --  -88.14235  -7.70104  -5.73732  -5.72953  -5.71848
 Alpha  occ. eigenvalues --   -0.66194  -0.36514  -0.27323  -0.22710
 Alpha virt. eigenvalues --    0.00051   0.25015   0.29819   0.30287   0.32913
 Alpha virt. eigenvalues --    0.64827   0.65782   0.68569   0.69167   0.69816
 Alpha virt. eigenvalues --    1.01518
  Beta  occ. eigenvalues --  -88.13770  -7.69649  -5.72661  -5.72461  -5.71563
  Beta  occ. eigenvalues --   -0.63261  -0.35362  -0.21424
  Beta virt. eigenvalues --   -0.20766   0.01040   0.26457   0.30542   0.33508
  Beta virt. eigenvalues --    0.33738   0.66282   0.70634   0.71222   0.73689
  Beta virt. eigenvalues --    0.74421   1.02666

 Mulliken charges and spin densities:
               1          2
     1  S   -0.102873   1.027988
     2  H    0.102873  -0.027988
 Sum of Mulliken charges =  -0.00000   1.00000

 Dipole moment (field-independent basis, Debye):
    X=              0.0000    Y=             -0.0000    Z=             -1.0329  Tot=              1.0329
 Quadrupole moment (field-independent basis, Debye-Ang):
   XX=            -12.8317   YY=            -15.6828   ZZ=            -12.0184
   XY=              0.0000   XZ=              0.0000   YZ=              0.0000

 Normal termination of Gaussian 16 at Wed Oct  7 14:48:42 2020.
