 Gaussian 16, Revision A.03,
 Gaussian 16:  ES64L-G16RevA.03 25-Dec-2016

 ----------------------------------------------------------------------
 #P Opt(MaxCyc=100) BLYP/6-31G* 5D 7F Integral=UltraFineGrid SCF=(NoSym
 m,XQC,MaxCyc=120) IOp(1/33=1)
 ----------------------------------------------------------------------

 TstMul:  Mul=     2
 TstMul:  ICh=     0
 TstMul:  Mul=     2
 Symbolic Z-matrix:
 Charge =  0 Multiplicity = 2

 SCF Done:  E(UB-LYP) =  -75.7047073563     A.U. after   11 cycles
 SCF Done:  E(UB-LYP) =  -75.7052744335     A.U. after   10 cycles
 SCF Done:  E(UB-LYP) =  -75.7052819212     A.U. after    8 cycles
 Optimization completed.
    -- Stationary point found.

                         Standard orientation:
 ---------------------------------------------------------------------
 Center     Atomic      Atomic             Coordinates (Angstroms)
 Number     Number       Type             X           Y           Z
 ---------------------------------------------------------------------
      1          8           0        0.000000    0.000000    0.110596
      2          1           0        0.000000    0.000000   -0.884768
 ---------------------------------------------------------------------

 Unable to determine electronic state:  partially filled degenerate orbitals.
 Alpha  occ. eigenvalues --  -18.85060  -0.89777  -0.39819  -0.32936  -0.25625
 Alpha virt. eigenvalues --    0.04030   0.71080   0.76613   0.81386   0.86997
 Alpha virt. eigenvalues --    1.17314   1.63805   1.68669   1.69867   1.69891
 Alpha virt. eigenvalues --    2.30777
  Beta  occ. eigenvalues --  -18.82862  -0.84348  -0.37605  -0.23253
  Beta virt. eigenvalues --   -0.20526   0.04858   0.71701   0.82933   0.85365
  Beta virt. eigenvalues --    0.88831   1.21126   1.69639   1.70020   1.75792
  Beta virt. eigenvalues --    1.76884   2.33255

 Mulliken charges and spin densities:
               1          2
     1  O   -0.390115   1.031369
     2  H    0.390115  -0.031369
 Sum of Mulliken charges =  -0.00000   1.00000

 Dipole moment (field-independent basis, Debye):
    X=              0.0000    Y=              0.0000    Z=             -1.6978  Tot=              1.6978
 Quadrupole moment (field-independent basis, Debye-Ang):
   XX=             -5.3047   YY=             -6.4324   ZZ=             -4.4560
   XY=              0.0000   XZ=              0.0000   YZ=              0.0000

 Normal termination of Gaussian 16 at Wed Oct  7 14:49:28 2020.
