 Gaussian 16, Revision A.03,
 Gaussian 16:  ES64L-G16RevA.03 25-Dec-2016

 ----------------------------------------------------------------------
 #P Opt(MaxCyc=100) BLYP/6-31G* 5D 7F Integral=UltraFineGrid SCF=(NoSym
 m,XQC,MaxCyc=120) IOp(1/33=1)
 ----------------------------------------------------------------------

 TstMul:  Mul=     1
 TstMul:  ICh=    -1
 TstMul:  Mul=     1
 Symbolic Z-matrix:
 Charge = -1 Multiplicity = 1

 SCF Done:  E(RB-LYP) =  -75.6934820985     A.U. after   11 cycles
 SCF Done:  E(RB-LYP) =  -75.6946480018     A.U. after   10 cycles
 SCF Done:  E(RB-LYP) =  -75.6947019178     A.U. after    7 cycles
 Optimization completed.
    -- Stationary point found.

                         Standard orientation:
 ---------------------------------------------------------------------
 Center     Atomic      Atomic             Coordinates (Angstroms)
 Number     Number       Type             X           Y           Z
 ---------------------------------------------------------------------
      1          8           0        0.000000    0.000000    0.111436
      2          1           0        0.000000    0.000000   -0.891488
 ---------------------------------------------------------------------

 The electronic state is 1-SG.
 Alpha  occ. eigenvalues --  -18.30550  -0.37733   0.06976   0.22983   0.22983
 Alpha virt. eigenvalues --    0.38906   1.12320   1.24710   1.24710   1.28906
 Alpha virt. eigenvalues --    1.62111   2.15294   2.15294   2.21330   2.21330
 Alpha virt. eigenvalues --    2.76302

 Mulliken charges:
               1
     1  O   -1.122030
     2  H    0.122030
 Sum of Mulliken charges =  -1.00000

 Dipole moment (field-independent basis, Debye):
    X=              0.0000    Y=              0.0000    Z=             -1.0678  Tot=              1.0678
 Quadrupole moment (field-independent basis, Debye-Ang):
   XX=             -7.9721   YY=             -7.9721   ZZ=             -6.9187
   XY=              0.0000   XZ=              0.0000   YZ=              0.0000

 1\1\GINC-NODE53\FOpt\RBLYP\6-31G(d)\H1O1(1-)\RPEVERATI\07-Oct-2020\0\\
 #P Opt(MaxCyc=100) BLYP/6-31G* 5D 7F Integral=UltraFineGrid SCF=(NoSym
 m,XQC,MaxCyc=120) IOp(1/33=1)\\TS search on BH76.\\-1,1\O,0.,0.,0.1273
 338095\H,0.,0.,-0.8755903856\\Version=ES64L-G16RevA.03\State=1-SG\HF=-
 75.6947019\RMSD=7.889e-09\RMSF=1.621e-05\Dipole=0.,0.,-0.4200875\Quadr
 upole=-0.2610558,-0.2610558,0.5221116,0.,0.,0.\PG=C*V [C*(H1O1)]\\@

 Normal termination of Gaussian 16 at Wed Oct  7 14:49:30 2020.
