 Gaussian 16, Revision A.03,

 ----------------------------------------------------------------------
 #P Opt(TS,MaxCyc=50,NoEigenTest,MaxStep=10,AddRedundant) BLYP/6-31G* 5
 D 7F Integral=UltraFineGrid SCF=(NoSymm,XQC,MaxCyc=120) IOp(1/33=1)
 ----------------------------------------------------------------------

 TstMul:  Mul=     2
 TstMul:  ICh=     0
 TstMul:  Mul=     2
 Symbolic Z-matrix:
 Charge =  0 Multiplicity = 2

 SCF Done:  E(UB-LYP) =  -461.270179000     A.U. after   12 cycles
 SCF Done:  E(UB-LYP) =  -461.272714595     A.U. after   11 cycles
 SCF Done:  E(UB-LYP) =  -461.274359541     A.U. after   11 cycles
 SCF Done:  E(UB-LYP) =  -461.275467582     A.U. after   11 cycles
 SCF Done:  E(UB-LYP) =  -461.276268109     A.U. after   11 cycles
 SCF Done:  E(UB-LYP) =  -461.276888633     A.U. after   11 cycles
 SCF Done:  E(UB-LYP) =  -461.277392589     A.U. after   11 cycles
 SCF Done:  E(UB-LYP) =  -461.277810003     A.U. after   11 cycles
 SCF Done:  E(UB-LYP) =  -461.278156041     A.U. after   11 cycles
 SCF Done:  E(UB-LYP) =  -461.278441005     A.U. after   11 cycles
 SCF Done:  E(UB-LYP) =  -461.278860049     A.U. after   11 cycles
 SCF Done:  E(UB-LYP) =  -461.279007127     A.U. after   11 cycles
 SCF Done:  E(UB-LYP) =  -461.279120045     A.U. after   11 cycles
 SCF Done:  E(UB-LYP) =  -461.279204004     A.U. after   11 cycles
 SCF Done:  E(UB-LYP) =  -461.279263838     A.U. after   11 cycles
 SCF Done:  E(UB-LYP) =  -461.279303787     A.U. after   11 cycles
 SCF Done:  E(UB-LYP) =  -461.279327170     A.U. after   11 cycles
 SCF Done:  E(UB-LYP) =  -461.279335296     A.U. after   11 cycles
 SCF Done:  E(UB-LYP) =  -461.279335817     A.U. after    8 cycles
 Optimization completed.
    -- Stationary point found.
 Normal termination of Gaussian 16 at Wed Oct  7 14:52:44 2020.
 Gaussian 16:  ES64L-G16RevA.03 25-Dec-2016

 ----------------------------------------------------------------------
 #P Freq BLYP/6-31G* 5D 7F Integral=UltraFineGrid SCF=(NoSymm,XQC,MaxCy
 c=120) IOp(1/33=1) Geom=Check Guess=Read
 ----------------------------------------------------------------------

 TstMul:  Mul=     2
 TstMul:  ICh=     0
 TstMul:  Mul=     2
 Structure from the checkpoint file:  "MN_78_RKT01_BH76_BLYP_631Gs.chk"
 Charge =  0 Multiplicity = 2

                         Standard orientation:
 ---------------------------------------------------------------------
 Center     Atomic      Atomic             Coordinates (Angstroms)
 Number     Number       Type             X           Y           Z
 ---------------------------------------------------------------------
      1          1           0        0.000000    0.000000   -1.928303
      2         17           0        0.000000    0.000000    0.271580
      3          1           0        0.000000    0.000000   -2.688560
 ---------------------------------------------------------------------

 SCF Done:  E(UB-LYP) =  -461.279335817     A.U. after    1 cycles

 The electronic state is 2-SG.
 Alpha  occ. eigenvalues -- -100.76513  -9.20569  -7.04769  -7.02599  -7.02599
 Alpha  occ. eigenvalues --   -0.74817  -0.42552  -0.32756  -0.29039  -0.29039
 Alpha virt. eigenvalues --    0.07381   0.32350   0.39884   0.39884   0.42466
 Alpha virt. eigenvalues --    0.59277   0.75308   0.75308   0.79705   0.79705
 Alpha virt. eigenvalues --    0.81519   1.11452
  Beta  occ. eigenvalues -- -100.75972  -9.20061  -7.03317  -7.02274  -7.02274
  Beta  occ. eigenvalues --   -0.71200  -0.41026  -0.27694  -0.27694
  Beta virt. eigenvalues --   -0.26670   0.08245   0.34144   0.40509   0.40509
  Beta virt. eigenvalues --    0.45160   0.62119   0.80529   0.80529   0.80537
  Beta virt. eigenvalues --    0.80537   0.86557   1.12888

 Mulliken charges and spin densities:
               1          2
     1  H   -0.015692  -0.020170
     2  Cl  -0.047364   0.908984
     3  H    0.063057   0.111185
 Sum of Mulliken charges =  -0.00000   1.00000

 Dipole moment (field-independent basis, Debye):
    X=              0.0000    Y=             -0.0000    Z=             -0.7363  Tot=              0.7363
 Quadrupole moment (field-independent basis, Debye-Ang):
   XX=            -15.0012   YY=            -15.0012   ZZ=            -10.6771
   XY=              0.0000   XZ=              0.0000   YZ=             -0.0000

  Exact polarizability:   5.754   0.000   5.754   0.000  -0.000  28.640
 Approx polarizability:   7.406   0.000   7.406   0.000  -0.000  45.678

 ******    2 imaginary frequencies (negative Signs) ******

                      1                      2                      3
                     PI                     PI                     SG
 Frequencies --    -37.9362               -37.9362               186.4197
 Red. masses --      1.0090                 1.0090                 1.0641
 Frc consts  --      0.0009                 0.0009                 0.0218
 IR Inten    --      0.9616                 0.9616                32.3180

                      4
                     SG
 Frequencies --   4086.7754
 Red. masses --      1.0078
 Frc consts  --      9.9175
 IR Inten    --    316.5546

 - Thermochemistry -
 -------------------
 Temperature   298.150 Kelvin.  Pressure   1.00000 Atm.
 Atom     1 has atomic number  1 and mass   1.00783

 Molecular mass:    36.98450 amu.
 Principal axes and moments of inertia in atomic units:
                           1         2         3
     Eigenvalues --     0.00000  46.34214  46.34214
           X            0.00000   0.00000   1.00000
           Y            0.00000   1.00000   0.00000
           Z            1.00000   0.00000   0.00000
 This molecule is a prolate symmetric top.
 Rotational symmetry number  1.
 Rotational temperature (Kelvin)      1.86901
 Rotational constant (GHZ):          38.943846
    2 imaginary frequencies ignored.
 Zero-point vibrational energy      25559.4 (Joules/Mol)
                                    6.10884 (Kcal/Mol)
 Warning -- explicit consideration of   1 degrees of freedom as
           vibrations may cause significant error
 Vibrational temperatures:    268.22  5879.96
          (Kelvin)

 Zero-point correction=                           0.009735 (Hartree/Particle)
 Thermal correction to Energy=                    0.012678
 Thermal correction to Enthalpy=                  0.013622
 Thermal correction to Gibbs Free Energy=        -0.011304
 Sum of electronic and zero-point Energies=           -461.269601
 Sum of electronic and thermal Energies=              -461.266658
 Sum of electronic and thermal Enthalpies=            -461.265714
 Sum of electronic and thermal Free Energies=         -461.290639

                     E (Thermal)             CV                S
                      KCal/Mol        Cal/Mol-Kelvin    Cal/Mol-Kelvin
 Total                    7.955              6.826             52.460
 Electronic               0.000              0.000              1.377
 Translational            0.889              2.981             36.753
 Rotational               0.592              1.987             12.067
 Vibrational              6.474              1.858              2.263
 Vibration     1          0.632              1.858              2.263

 Optimization completed.
    -- Stationary point found.

 1\1\GINC-NODE59\Freq\UBLYP\6-31G(d)\Cl1H2(2)\RPEVERATI\07-Oct-2020\0\\
 #P Freq BLYP/6-31G* 5D 7F Integral=UltraFineGrid SCF=(NoSymm,XQC,MaxCy
 c=120) IOp(1/33=1) Geom=Check Guess=Read\\TS search on BH76.\\0,2\H,0.
 ,0.,-1.5638878496\Cl,0.,0.,0.6359954899\H,0.,0.,-2.3241444931\\Version
 =ES64L-G16RevA.03\State=2-SG\HF=-461.2793358\S2=0.751746\S2-1=0.\S2A=0
 .750002\RMSD=8.055e-10\RMSF=1.463e-05\ZeroPoint=0.0097351\Thermal=0.01
 26778\Dipole=0.,0.,-0.289701\DipoleDeriv=-0.0007599,0.,0.,0.,-0.000759
 9,0.,0.,0.,-0.5255051,-0.0516221,0.,0.,0.,-0.0516221,0.,0.,0.,0.237617

 Normal termination of Gaussian 16 at Wed Oct  7 14:53:04 2020.
