 Gaussian 16, Revision A.03,
 Gaussian 16:  ES64L-G16RevA.03 25-Dec-2016

 ----------------------------------------------------------------------
 #P Opt(MaxCyc=100) BLYP/6-31G* 5D 7F Integral=UltraFineGrid SCF=(NoSym
 m,XQC,MaxCyc=120) IOp(1/33=1)
 ----------------------------------------------------------------------

 TstMul:  Mul=     1
 TstMul:  ICh=     0
 TstMul:  Mul=     1
 Symbolic Z-matrix:
 Charge =  0 Multiplicity = 1

 SCF Done:  E(RB-LYP) =  -56.5163125091     A.U. after   10 cycles
 SCF Done:  E(RB-LYP) =  -56.5169879685     A.U. after    9 cycles
 SCF Done:  E(RB-LYP) =  -56.5170806197     A.U. after    8 cycles
 SCF Done:  E(RB-LYP) =  -56.5170824123     A.U. after    6 cycles
 Optimization completed.
    -- Stationary point found.

                         Standard orientation:
 ---------------------------------------------------------------------
 Center     Atomic      Atomic             Coordinates (Angstroms)
 Number     Number       Type             X           Y           Z
 ---------------------------------------------------------------------
      1          7           0        0.000000    0.000000    0.123744
      2          1           0        0.000000    0.942989   -0.288735
      3          1           0        0.816652   -0.471494   -0.288735
      4          1           0       -0.816652   -0.471494   -0.288735
 ---------------------------------------------------------------------

 The electronic state is 1-A1.
 Alpha  occ. eigenvalues --  -13.99074  -0.75550  -0.39204  -0.39204  -0.19587
 Alpha virt. eigenvalues --    0.05296   0.13694   0.13694   0.64382   0.64382
 Alpha virt. eigenvalues --    0.67593   0.84847   0.84847   0.86569   1.20281
 Alpha virt. eigenvalues --    1.62052   1.62052   1.86585   2.31864   2.31864

 Mulliken charges:
               1
     1  N   -0.835343
     2  H    0.278448
     3  H    0.278448
     4  H    0.278448
 Sum of Mulliken charges =   0.00000

 Dipole moment (field-independent basis, Debye):
    X=             -0.0000    Y=             -0.0000    Z=             -1.8824  Tot=              1.8824
 Quadrupole moment (field-independent basis, Debye-Ang):
   XX=             -6.2407   YY=             -6.2407   ZZ=             -8.7655
   XY=             -0.0000   XZ=              0.0000   YZ=              0.0000

 Normal termination of Gaussian 16 at Wed Oct  7 14:49:39 2020.
