 Gaussian 16, Revision A.03,

 ----------------------------------------------------------------------
 #P Opt(TS,MaxCyc=50,NoEigenTest,MaxStep=10,AddRedundant) BLYP/6-31G* 5
 D 7F Integral=UltraFineGrid SCF=(NoSymm,XQC,MaxCyc=120) IOp(1/33=1)
 ----------------------------------------------------------------------

 TstMul:  Mul=     2
 TstMul:  ICh=     0
 TstMul:  Mul=     2
 Symbolic Z-matrix:
 Charge =  0 Multiplicity = 2

 SCF Done:  E(UB-LYP) =  -76.8711644990     A.U. after   14 cycles
 SCF Done:  E(UB-LYP) =  -76.8715470429     A.U. after   13 cycles
 SCF Done:  E(UB-LYP) =  -76.8718890495     A.U. after   13 cycles
 SCF Done:  E(UB-LYP) =  -76.8719782152     A.U. after   11 cycles
 SCF Done:  E(UB-LYP) =  -76.8720981584     A.U. after   13 cycles
 SCF Done:  E(UB-LYP) =  -76.8719714041     A.U. after   14 cycles
 SCF Done:  E(UB-LYP) =  -76.8718156475     A.U. after   14 cycles
 SCF Done:  E(UB-LYP) =  -76.8716758389     A.U. after   14 cycles
 SCF Done:  E(UB-LYP) =  -76.8716230535     A.U. after   14 cycles
 SCF Done:  E(UB-LYP) =  -76.8716360464     A.U. after   10 cycles
 SCF Done:  E(UB-LYP) =  -76.8716537139     A.U. after   14 cycles
 SCF Done:  E(UB-LYP) =  -76.8716568885     A.U. after   13 cycles
 Optimization completed.
    -- Stationary point found.
 Normal termination of Gaussian 16 at Wed Oct  7 14:51:26 2020.
 Gaussian 16:  ES64L-G16RevA.03 25-Dec-2016

 ----------------------------------------------------------------------
 #P Freq BLYP/6-31G* 5D 7F Integral=UltraFineGrid SCF=(NoSymm,XQC,MaxCy
 c=120) IOp(1/33=1) Geom=Check Guess=Read
 ----------------------------------------------------------------------

 TstMul:  Mul=     2
 TstMul:  ICh=     0
 TstMul:  Mul=     2
 Structure from the checkpoint file:  "MN_79_RKT02_BH76_BLYP_631Gs.chk"
 Charge =  0 Multiplicity = 2

                         Standard orientation:
 ---------------------------------------------------------------------
 Center     Atomic      Atomic             Coordinates (Angstroms)
 Number     Number       Type             X           Y           Z
 ---------------------------------------------------------------------
      1          8           0       -0.314216   -0.112767   -0.000049
      2          1           0       -0.492170    0.863314    0.000100
      3          1           0        1.107348   -0.085604    0.000792
      4          1           0        1.898546    0.124424   -0.000501
 ---------------------------------------------------------------------

 SCF Done:  E(UB-LYP) =  -76.8716568885     A.U. after    1 cycles

 The electronic state is 2-A.
 Alpha  occ. eigenvalues --  -18.82966  -0.89069  -0.44969  -0.37908  -0.27068
 Alpha  occ. eigenvalues --   -0.24607
 Alpha virt. eigenvalues --    0.05013   0.14561   0.59514   0.73385   0.78338
 Alpha virt. eigenvalues --    0.81791   0.96839   1.00206   1.34401   1.65313
 Alpha virt. eigenvalues --    1.69234   1.70426   1.86893   2.32489
  Beta  occ. eigenvalues --  -18.81246  -0.85012  -0.42156  -0.35392  -0.22803
  Beta virt. eigenvalues --   -0.18953   0.05742   0.16658   0.61792   0.74158
  Beta virt. eigenvalues --    0.82439   0.82944   0.98530   1.03786   1.37441
  Beta virt. eigenvalues --    1.69918   1.70058   1.74735   1.91348   2.34365

 Mulliken charges and spin densities:
               1          2
     1  O   -0.492867   0.768595
     2  H    0.379042  -0.021392
     3  H    0.118945  -0.071747
     4  H   -0.005121   0.324544
 Sum of Mulliken charges =   0.00000   1.00000

 Dipole moment (field-independent basis, Debye):
    X=              0.3280    Y=              1.5983    Z=              0.0007  Tot=              1.6316
 Quadrupole moment (field-independent basis, Debye-Ang):
   XX=             -6.6792   YY=             -6.5738   ZZ=             -8.4706
   XY=             -0.7719   XZ=             -0.0005   YZ=              0.0000

  Exact polarizability:  21.665   0.454   7.159  -0.009  -0.003   2.544
 Approx polarizability:  38.539   2.975  10.890  -0.014  -0.004   2.940

 ******    1 imaginary frequencies (negative Signs) ******

                      1                      2                      3
                      A                      A                      A
 Frequencies --   -478.2937               350.7472               624.9216
 Red. masses --      1.1189                 1.0181                 1.0233
 Frc consts  --      0.1508                 0.0738                 0.2355
 IR Inten    --     31.4442                19.8502                35.3366

                      4                      5                      6
                      A                      A                      A
 Frequencies --   1009.9630              2900.4017              3501.7074
 Red. masses --      1.0567                 1.0122                 1.0666
 Frc consts  --      0.6351                 5.0171                 7.7059
 IR Inten    --    108.4033                77.3364                 2.4826

 - Thermochemistry -
 -------------------
 Temperature   298.150 Kelvin.  Pressure   1.00000 Atm.
 Atom     1 has atomic number  8 and mass  15.99491

 Molecular mass:    19.01839 amu.
 Principal axes and moments of inertia in atomic units:
                           1         2         3
     Eigenvalues --     3.32294  22.74809  26.07103
           X            0.99955  -0.03013  -0.00001
           Y            0.03013   0.99955  -0.00003
           Z            0.00001   0.00003   1.00000
 This molecule is an asymmetric top.
 Rotational symmetry number  1.
 Rotational temperatures (Kelvin)     26.06543     3.80752     3.32223
 Rotational constants (GHZ):         543.11547    79.33593    69.22401
    1 imaginary frequencies ignored.
 Zero-point vibrational energy      50169.8 (Joules/Mol)
                                   11.99088 (Kcal/Mol)
 Warning -- explicit consideration of   1 degrees of freedom as
           vibrations may cause significant error
 Vibrational temperatures:    504.65   899.12  1453.11  4173.03  5038.18
          (Kelvin)

 Zero-point correction=                           0.019109 (Hartree/Particle)
 Thermal correction to Energy=                    0.022484
 Thermal correction to Enthalpy=                  0.023428
 Thermal correction to Gibbs Free Energy=        -0.001825
 Sum of electronic and zero-point Energies=            -76.852548
 Sum of electronic and thermal Energies=               -76.849173
 Sum of electronic and thermal Enthalpies=             -76.848229
 Sum of electronic and thermal Free Energies=          -76.873482

                     E (Thermal)             CV                S
                      KCal/Mol        Cal/Mol-Kelvin    Cal/Mol-Kelvin
 Total                   14.109              8.882             53.150
 Electronic               0.000              0.000              1.377
 Translational            0.889              2.981             34.771
 Rotational               0.889              2.981             15.341
 Vibrational             12.331              2.920              1.661
 Vibration     1          0.728              1.574              1.163

 Optimization completed.
    -- Stationary point found.
 Normal termination of Gaussian 16 at Wed Oct  7 14:51:46 2020.
