 Gaussian 16, Revision A.03,
 Gaussian 16:  ES64L-G16RevA.03 25-Dec-2016

 ----------------------------------------------------------------------
 #P Opt(MaxCyc=100) BLYP/6-31G* 5D 7F Integral=UltraFineGrid SCF=(NoSym
 m,XQC,MaxCyc=120) IOp(1/33=1)
 ----------------------------------------------------------------------

 TstMul:  Mul=     2
 TstMul:  ICh=     0
 TstMul:  Mul=     2
 Symbolic Z-matrix:
 Charge =  0 Multiplicity = 2

 SCF Done:  E(UB-LYP) =  -342.471903759     A.U. after   12 cycles
 SCF Done:  E(UB-LYP) =  -342.472442165     A.U. after   11 cycles
 SCF Done:  E(UB-LYP) =  -342.472443726     A.U. after    7 cycles
 Optimization completed.
    -- Stationary point found.

                         Standard orientation:
 ---------------------------------------------------------------------
 Center     Atomic      Atomic             Coordinates (Angstroms)
 Number     Number       Type             X           Y           Z
 ---------------------------------------------------------------------
      1         15           0        0.000000   -0.000000    0.118916
      2          1           0        0.000000    1.030886   -0.891873
      3          1           0       -0.000000   -1.030886   -0.891873
 ---------------------------------------------------------------------

 The electronic state is 2-B1.
 Alpha  occ. eigenvalues --  -76.38034  -6.31822  -4.54680  -4.54247  -4.53912
 Alpha  occ. eigenvalues --   -0.56905  -0.34097  -0.26815  -0.20703
 Alpha virt. eigenvalues --    0.00274   0.05056   0.21981   0.25176   0.26959
 Alpha virt. eigenvalues --    0.27313   0.59728   0.60379   0.61319   0.63359
 Alpha virt. eigenvalues --    0.68556   0.89339   1.05248
  Beta  occ. eigenvalues --  -76.37678  -6.31455  -4.54012  -4.53691  -4.53680
  Beta  occ. eigenvalues --   -0.54710  -0.33595  -0.25597
  Beta virt. eigenvalues --   -0.14799   0.00847   0.06790   0.24020   0.25739
  Beta virt. eigenvalues --    0.28025   0.30338   0.62054   0.63464   0.64661
  Beta virt. eigenvalues --    0.65156   0.72985   0.90700   1.05622

 Mulliken charges and spin densities:
               1          2
     1  P   -0.015960   1.065508
     2  H    0.007980  -0.032754
     3  H    0.007980  -0.032754
 Sum of Mulliken charges =  -0.00000   1.00000

 Dipole moment (field-independent basis, Debye):
    X=              0.0000    Y=             -0.0000    Z=             -0.8396  Tot=              0.8396
 Quadrupole moment (field-independent basis, Debye-Ang):
   XX=            -14.9444   YY=            -13.9892   ZZ=            -15.3975
   XY=             -0.0000   XZ=             -0.0000   YZ=              0.0000

 Normal termination of Gaussian 16 at Wed Oct  7 14:49:50 2020.
