 Gaussian 16, Revision A.03,
 Gaussian 16:  ES64L-G16RevA.03 25-Dec-2016

 ----------------------------------------------------------------------
 #P Opt(MaxCyc=100) BLYP/6-31G* 5D 7F Integral=UltraFineGrid SCF=(NoSym
 m,XQC,MaxCyc=120) IOp(1/33=1)
 ----------------------------------------------------------------------

 TstMul:  Mul=     1
 TstMul:  ICh=     0
 TstMul:  Mul=     1
 Symbolic Z-matrix:
 Charge =  0 Multiplicity = 1

 SCF Done:  E(RB-LYP) =  -343.101383740     A.U. after   10 cycles
 SCF Done:  E(RB-LYP) =  -343.102085000     A.U. after    9 cycles
 SCF Done:  E(RB-LYP) =  -343.102097688     A.U. after    7 cycles
 Optimization completed.
    -- Stationary point found.

                         Standard orientation:
 ---------------------------------------------------------------------
 Center     Atomic      Atomic             Coordinates (Angstroms)
 Number     Number       Type             X           Y           Z
 ---------------------------------------------------------------------
      1         15           0        0.000000    0.000000    0.131425
      2          1           0        0.000000    1.201547   -0.657123
      3          1           0        1.040570   -0.600774   -0.657123
      4          1           0       -1.040570   -0.600774   -0.657123
 ---------------------------------------------------------------------

 The electronic state is 1-A1.
 Alpha  occ. eigenvalues --  -76.36495  -6.30521  -4.53050  -4.53050  -4.52574
 Alpha  occ. eigenvalues --   -0.57852  -0.33814  -0.33814  -0.23573
 Alpha virt. eigenvalues --    0.00807   0.00807   0.08623   0.25482   0.25482
 Alpha virt. eigenvalues --    0.27619   0.36630   0.61818   0.61818   0.63652
 Alpha virt. eigenvalues --    0.63816   0.63816   0.87286   1.06871   1.06871

 Mulliken charges:
               1
     1  P   -0.105512
     2  H    0.035171
     3  H    0.035171
     4  H    0.035171
 Sum of Mulliken charges =  -0.00000

 Dipole moment (field-independent basis, Debye):
    X=             -0.0000    Y=             -0.0000    Z=             -0.9507  Tot=              0.9507
 Quadrupole moment (field-independent basis, Debye-Ang):
   XX=            -14.6638   YY=            -14.6638   ZZ=            -16.9461
   XY=             -0.0000   XZ=              0.0000   YZ=              0.0000

 Normal termination of Gaussian 16 at Wed Oct  7 14:49:58 2020.
