 Gaussian 16, Revision A.03,
 Gaussian 16:  ES64L-G16RevA.03 25-Dec-2016

 ----------------------------------------------------------------------
 #P Opt(MaxCyc=100) BLYP/6-31G* 5D 7F Integral=UltraFineGrid SCF=(NoSym
 m,XQC,MaxCyc=120) IOp(1/33=1)
 ----------------------------------------------------------------------

 TstMul:  Mul=     2
 TstMul:  ICh=     0
 TstMul:  Mul=     2
 Symbolic Z-matrix:
 Charge =  0 Multiplicity = 2

 SCF Done:  E(UB-LYP) =  -55.8470287158     A.U. after   11 cycles
 SCF Done:  E(UB-LYP) =  -55.8476530906     A.U. after   10 cycles
 SCF Done:  E(UB-LYP) =  -55.8476797891     A.U. after    8 cycles
 SCF Done:  E(UB-LYP) =  -55.8476801256     A.U. after    6 cycles
 Optimization completed.
    -- Stationary point found.

                         Standard orientation:
 ---------------------------------------------------------------------
 Center     Atomic      Atomic             Coordinates (Angstroms)
 Number     Number       Type             X           Y           Z
 ---------------------------------------------------------------------
      1          7           0        0.000000    0.000000    0.147245
      2          1           0       -0.000000    0.809160   -0.515359
      3          1           0       -0.000000   -0.809160   -0.515359
 ---------------------------------------------------------------------

 The electronic state is 2-B1.
 Alpha  occ. eigenvalues --  -14.04603  -0.75840  -0.40590  -0.26189  -0.24675
 Alpha virt. eigenvalues --    0.05047   0.11774   0.60711   0.63905   0.67036
 Alpha virt. eigenvalues --    0.77246   0.81784   1.03964   1.60030   1.61900
 Alpha virt. eigenvalues --    1.62504   2.00353   2.28223
  Beta  occ. eigenvalues --  -14.02900  -0.71723  -0.39417  -0.24046
  Beta virt. eigenvalues --   -0.13989   0.06018   0.12358   0.64184   0.68456
  Beta virt. eigenvalues --    0.68653   0.79083   0.82803   1.07924   1.63892
  Beta virt. eigenvalues --    1.66828   1.69122   2.07870   2.29306

 Mulliken charges and spin densities:
               1          2
     1  N   -0.551106   1.069757
     2  H    0.275553  -0.034879
     3  H    0.275553  -0.034879
 Sum of Mulliken charges =  -0.00000   1.00000

 Dipole moment (field-independent basis, Debye):
    X=             -0.0000    Y=              0.0000    Z=             -1.9323  Tot=              1.9323
 Quadrupole moment (field-independent basis, Debye-Ang):
   XX=             -6.9625   YY=             -5.6134   ZZ=             -7.3153
   XY=              0.0000   XZ=              0.0000   YZ=             -0.0000

 Normal termination of Gaussian 16 at Wed Oct  7 14:49:32 2020.
