 Gaussian 16, Revision A.03,

 ----------------------------------------------------------------------
 #P Opt(TS,MaxCyc=50,NoEigenTest,MaxStep=10,AddRedundant) BLYP/6-31G* 5
 D 7F Integral=UltraFineGrid SCF=(NoSymm,XQC,MaxCyc=120) IOp(1/33=1)
 ----------------------------------------------------------------------

 TstMul:  Mul=     2
 TstMul:  ICh=     0
 TstMul:  Mul=     2
 Symbolic Z-matrix:
 Charge =  0 Multiplicity = 2

 SCF Done:  E(UB-LYP) =  -1.65609666373     A.U. after    9 cycles
 SCF Done:  E(UB-LYP) =  -1.65614198296     A.U. after    7 cycles
 SCF Done:  E(UB-LYP) =  -1.65614524867     A.U. after    7 cycles
 Optimization completed.
    -- Stationary point found.
 Normal termination of Gaussian 16 at Wed Oct  7 14:50:14 2020.
 Gaussian 16:  ES64L-G16RevA.03 25-Dec-2016

 ----------------------------------------------------------------------
 #P Freq BLYP/6-31G* 5D 7F Integral=UltraFineGrid SCF=(NoSymm,XQC,MaxCy
 c=120) IOp(1/33=1) Geom=Check Guess=Read
 ----------------------------------------------------------------------

 TstMul:  Mul=     2
 TstMul:  ICh=     0
 TstMul:  Mul=     2
 Structure from the checkpoint file:  "MN_82_RKT06_BH76_BLYP_631Gs.chk"
 Charge =  0 Multiplicity = 2

                         Standard orientation:
 ---------------------------------------------------------------------
 Center     Atomic      Atomic             Coordinates (Angstroms)
 Number     Number       Type             X           Y           Z
 ---------------------------------------------------------------------
      1          1           0        0.000000    0.000000    0.000000
      2          1           0        0.000000    0.000000    0.938639
      3          1           0        0.000000    0.000000   -0.938639
 ---------------------------------------------------------------------

 SCF Done:  E(UB-LYP) =  -1.65614524867     A.U. after    1 cycles

 The electronic state is 2-SGU.
 Alpha  occ. eigenvalues --   -0.44729  -0.21156
 Alpha virt. eigenvalues --    0.12760   0.62736   0.70219   0.95253
  Beta  occ. eigenvalues --   -0.40898
  Beta virt. eigenvalues --   -0.12270   0.16377   0.67590   0.79208   0.99028

 Mulliken charges and spin densities:
               1          2
     1  H   -0.083521  -0.150828
     2  H    0.041761   0.575414
     3  H    0.041761   0.575414
 Sum of Mulliken charges =  -0.00000   1.00000

 Dipole moment (field-independent basis, Debye):
    X=              0.0000    Y=              0.0000    Z=              0.0000  Tot=              0.0000
 Quadrupole moment (field-independent basis, Debye-Ang):
   XX=             -3.2709   YY=             -3.2709   ZZ=             -3.2953
   XY=              0.0000   XZ=              0.0000   YZ=              0.0000

  Exact polarizability:   0.000   0.000   0.000  -0.000   0.000  18.367
 Approx polarizability:   0.000  -0.000  -0.000  -0.000  -0.000  28.640

 ******    1 imaginary frequencies (negative Signs) ******

                      1                      2                      3
                     SGU                    PIU                    PIU
 Frequencies --   -451.5740              1074.7710              1074.7710
 Red. masses --      1.0078                 1.0078                 1.0078
 Frc consts  --      0.1211                 0.6859                 0.6859
 IR Inten    --     85.1054                 5.5574                 5.5574

                      4
                     SGG
 Frequencies --   2029.1326
 Red. masses --      1.0078
 Frc consts  --      2.4449
 IR Inten    --      0.0000

 - Thermochemistry -
 -------------------
 Temperature   298.150 Kelvin.  Pressure   1.00000 Atm.
 Atom     1 has atomic number  1 and mass   1.00783

 Molecular mass:     3.02348 amu.
 Principal axes and moments of inertia in atomic units:
                           1         2         3
     Eigenvalues --     0.00000   6.34176   6.34176
           X           -0.00000   1.00000   0.00000
           Y            0.00000   0.00000   1.00000
           Z            1.00000   0.00000   0.00000
 This molecule is a prolate symmetric top.
 Rotational symmetry number  2.
 Rotational temperature (Kelvin)     13.65771
 Rotational constant (GHZ):         284.580585
    1 imaginary frequencies ignored.
 Zero-point vibrational energy      24994.0 (Joules/Mol)
                                    5.97372 (Kcal/Mol)
 Vibrational temperatures:   1546.36  1546.36  2919.47
          (Kelvin)

 Zero-point correction=                           0.009520 (Hartree/Particle)
 Thermal correction to Energy=                    0.011936
 Thermal correction to Enthalpy=                  0.012880
 Thermal correction to Gibbs Free Energy=        -0.004958
 Sum of electronic and zero-point Energies=             -1.646626
 Sum of electronic and thermal Energies=                -1.644209
 Sum of electronic and thermal Enthalpies=              -1.643265
 Sum of electronic and thermal Free Energies=           -1.661103

                     E (Thermal)             CV                S
                      KCal/Mol        Cal/Mol-Kelvin    Cal/Mol-Kelvin
 Total                    7.490              5.583             37.543
 Electronic               0.000              0.000              1.377
 Translational            0.889              2.981             29.289
 Rotational               0.592              1.987              6.737
 Vibrational              6.009              0.615              0.139

 Optimization completed.
    -- Stationary point found.
 Normal termination of Gaussian 16 at Wed Oct  7 14:50:34 2020.
