 Gaussian 16, Revision A.03,

 ----------------------------------------------------------------------
 #P Opt(TS,MaxCyc=50,NoEigenTest,MaxStep=10,AddRedundant) BLYP/6-31G* 5
 D 7F Integral=UltraFineGrid SCF=(NoSymm,XQC,MaxCyc=120) IOp(1/33=1)
 ----------------------------------------------------------------------

 TstMul:  Mul=     2
 TstMul:  ICh=     0
 TstMul:  Mul=     2
 Symbolic Z-matrix:
 Charge =  0 Multiplicity = 2

 SCF Done:  E(UB-LYP) =  -116.183587949     A.U. after   13 cycles
 SCF Done:  E(UB-LYP) =  -116.183623791     A.U. after   10 cycles
 SCF Done:  E(UB-LYP) =  -116.183618676     A.U. after   10 cycles
 SCF Done:  E(UB-LYP) =  -116.184044926     A.U. after   12 cycles
 SCF Done:  E(UB-LYP) =  -116.184640500     A.U. after   12 cycles
 SCF Done:  E(UB-LYP) =  -116.184666522     A.U. after   12 cycles
 SCF Done:  E(UB-LYP) =  -116.184667748     A.U. after   10 cycles
 SCF Done:  E(UB-LYP) =  -116.184668382     A.U. after    9 cycles
 Optimization completed.
    -- Stationary point found.

 1\1\GINC-NODE54\FTS\UBLYP\6-31G(d)\C1H5O1(2)\RPEVERATI\07-Oct-2020\0\\
 #P Opt(TS,MaxCyc=50,NoEigenTest,MaxStep=10,AddRedundant) BLYP/6-31G* 5
 D 7F Integral=UltraFineGrid SCF=(NoSymm,XQC,MaxCyc=120) IOp(1/33=1)\\T
 S search on BH76.\\0,2\C,-1.2253725875,0.0039273615,0.0030236252\O,1.3
 009413241,-0.102114975,-0.0044042862\H,0.0370844531,-0.1523155564,0.01
 78487144\H,-1.5568954668,-0.2373086986,1.0211839055\H,-1.4227464636,1.
 0463479923,-0.2782164951\H,-1.5729579735,-0.7142528678,-0.7510357984\H
 ,1.4396321049,0.8767367277,-0.0113662473\\Version=ES64L-G16RevA.03\Sta

 Normal termination of Gaussian 16 at Wed Oct  7 14:51:13 2020.
 Gaussian 16:  ES64L-G16RevA.03 25-Dec-2016

 ----------------------------------------------------------------------
 #P Freq BLYP/6-31G* 5D 7F Integral=UltraFineGrid SCF=(NoSymm,XQC,MaxCy
 c=120) IOp(1/33=1) Geom=Check Guess=Read
 ----------------------------------------------------------------------

 TstMul:  Mul=     2
 TstMul:  ICh=     0
 TstMul:  Mul=     2
 Structure from the checkpoint file:  "MN_81_RKT04_BH76_BLYP_631Gs.chk"
 Charge =  0 Multiplicity = 2

                         Standard orientation:
 ---------------------------------------------------------------------
 Center     Atomic      Atomic             Coordinates (Angstroms)
 Number     Number       Type             X           Y           Z
 ---------------------------------------------------------------------
      1          6           0       -1.224260    0.009707    0.000112
      2          8           0        1.301404   -0.111071    0.000075
      3          1           0        0.037210   -0.154014    0.017967
      4          1           0       -1.560473   -0.236092    1.015639
      5          1           0       -1.414640    1.055043   -0.275065
      6          1           0       -1.573589   -0.701589   -0.759646
      7          1           0        1.445823    0.866977   -0.000165
 ---------------------------------------------------------------------

 SCF Done:  E(UB-LYP) =  -116.184668382     A.U. after    1 cycles

 The electronic state is 2-A.
 Alpha  occ. eigenvalues --  -18.79495  -9.93055  -0.87157  -0.63293  -0.42109
 Alpha  occ. eigenvalues --   -0.36708  -0.36592  -0.34239  -0.22269  -0.21640
 Alpha virt. eigenvalues --    0.05727   0.09566   0.13255   0.13503   0.24854
 Alpha virt. eigenvalues --    0.47769   0.47948   0.50192   0.71677   0.76035
 Alpha virt. eigenvalues --    0.81935   0.82104   0.83686   0.86272   0.92239

  Beta  occ. eigenvalues --  -18.78148  -9.92357  -0.84088  -0.61622  -0.40056
  Beta  occ. eigenvalues --   -0.36095  -0.36023  -0.31737  -0.20892
  Beta virt. eigenvalues --   -0.15585   0.06272   0.10168   0.13748   0.14005
  Beta virt. eigenvalues --    0.26408   0.48232   0.48379   0.53252   0.72166
  Beta virt. eigenvalues --    0.76976   0.82457   0.82657   0.84603   0.87159

 Mulliken charges and spin densities:
               1          2
     1  C   -0.596362   0.507929
     2  O   -0.605745   0.577980
     3  H    0.334823  -0.041356
     4  H    0.171192  -0.009381
     5  H    0.160972  -0.013599
     6  H    0.173712  -0.008516
     7  H    0.361408  -0.013057
 Sum of Mulliken charges =   0.00000   1.00000

 Dipole moment (field-independent basis, Debye):
    X=             -1.3692    Y=              1.4630    Z=              0.0052  Tot=              2.0038
 Quadrupole moment (field-independent basis, Debye-Ang):
   XX=            -14.6201   YY=            -12.6264   ZZ=            -14.4306
   XY=              2.5226   XZ=             -0.0058   YZ=              0.0127

  Exact polarizability:  34.935   1.378  18.500  -0.059  -0.003  14.723
 Approx polarizability:  61.381  -0.284  27.248  -0.171  -0.009  20.011

 ******    1 imaginary frequencies (negative Signs) ******

                      1                      2                      3
                      A                      A                      A
 Frequencies --  -1005.7127                32.9401               287.7180
 Red. masses --      1.0940                 1.0523                 1.0641
 Frc consts  --      0.6519                 0.0007                 0.0519
 IR Inten    --    241.3270                76.0796                 7.4988

                      4                      5                      6
                      A                      A                      A
 Frequencies --    376.6238               626.9768               872.9751
 Red. masses --      1.1396                 3.1669                 1.1795
 Frc consts  --      0.0952                 0.7335                 0.5296
 IR Inten    --      7.9145                37.3421                99.9552

                      7                      8                      9
                      A                      A                      A
 Frequencies --   1055.8310              1225.8237              1418.5799
 Red. masses --      1.0930                 1.1415                 1.1095
 Frc consts  --      0.7179                 1.0106                 1.3155
 IR Inten    --     45.4282                 0.2515                31.6209

                     10                     11                     12
                      A                      A                      A
 Frequencies --   1432.8061              1458.8055              3012.2654
 Red. masses --      1.0665                 1.0222                 1.0214
 Frc consts  --      1.2900                 1.2816                 5.4606
 IR Inten    --      2.3506                39.2351                 1.3948

                     13                     14                     15
                      A                      A                      A
 Frequencies --   3131.9459              3134.7084              3530.9252
 Red. masses --      1.1080                 1.1086                 1.0663
 Frc consts  --      6.4035                 6.4182                 7.8326
 IR Inten    --     13.2791                11.6275                 6.4444

 - Thermochemistry -
 -------------------
 Temperature   298.150 Kelvin.  Pressure   1.00000 Atm.
 Atom     1 has atomic number  6 and mass  12.00000

 Molecular mass:    33.03404 amu.
 Principal axes and moments of inertia in atomic units:
                           1         2         3
     Eigenvalues --    15.37621 198.53187 201.78253
           X            0.99975   0.02227   0.00000
           Y           -0.02227   0.99975   0.00003
           Z           -0.00000  -0.00003   1.00000
 This molecule is an asymmetric top.
 Rotational symmetry number  1.
 Rotational temperatures (Kelvin)      5.63298     0.43627     0.42924
 Rotational constants (GHZ):         117.37232     9.09044     8.94399
    1 imaginary frequencies ignored.
 Zero-point vibrational energy     129190.3 (Joules/Mol)
                                   30.87721 (Kcal/Mol)
 Warning -- explicit consideration of   3 degrees of freedom as
           vibrations may cause significant error
 Vibrational temperatures:     47.39   413.96   541.88   902.08  1256.02
          (Kelvin)           1519.11  1763.69  2041.02  2061.49  2098.90
                             4333.98  4506.17  4510.15  5080.21

 Zero-point correction=                           0.049206 (Hartree/Particle)
 Thermal correction to Energy=                    0.053948
 Thermal correction to Enthalpy=                  0.054892
 Thermal correction to Gibbs Free Energy=         0.022704
 Sum of electronic and zero-point Energies=           -116.135462
 Sum of electronic and thermal Energies=              -116.130721
 Sum of electronic and thermal Enthalpies=            -116.129777
 Sum of electronic and thermal Free Energies=         -116.161965

                     E (Thermal)             CV                S
                      KCal/Mol        Cal/Mol-Kelvin    Cal/Mol-Kelvin
 Total                   33.853             13.464             67.745
 Electronic               0.000              0.000              1.377
 Translational            0.889              2.981             36.416
 Rotational               0.889              2.981             21.049
 Vibrational             32.075              7.502              8.903
 Vibration     1          0.594              1.983              5.644
 Vibration     2          0.685              1.697              1.487
 Vibration     3          0.747              1.520              1.053

                           ! Non-Optimized Parameters !
 Normal termination of Gaussian 16 at Wed Oct  7 14:51:43 2020.
