 Gaussian 16, Revision A.03,

 ----------------------------------------------------------------------
 #P Opt(TS,MaxCyc=50,NoEigenTest,MaxStep=10,AddRedundant) BLYP/6-31G* 5
 D 7F Integral=UltraFineGrid SCF=(NoSymm,XQC,MaxCyc=120) IOp(1/33=1)
 ----------------------------------------------------------------------

 TstMul:  Mul=     2
 TstMul:  ICh=     0
 TstMul:  Mul=     2
 Symbolic Z-matrix:
 Charge =  0 Multiplicity = 2

 SCF Done:  E(UB-LYP) =  -100.877588246     A.U. after   14 cycles
 SCF Done:  E(UB-LYP) =  -100.877572320     A.U. after   12 cycles
 SCF Done:  E(UB-LYP) =  -100.877530706     A.U. after   10 cycles
 SCF Done:  E(UB-LYP) =  -100.877403121     A.U. after   12 cycles
 SCF Done:  E(UB-LYP) =  -100.877778841     A.U. after   12 cycles
 SCF Done:  E(UB-LYP) =  -100.878123767     A.U. after   12 cycles
 SCF Done:  E(UB-LYP) =  -100.877745393     A.U. after   12 cycles
 SCF Done:  E(UB-LYP) =  -100.877324024     A.U. after   13 cycles
 SCF Done:  E(UB-LYP) =  -100.876915072     A.U. after   12 cycles
 SCF Done:  E(UB-LYP) =  -100.876539310     A.U. after   12 cycles
 SCF Done:  E(UB-LYP) =  -100.875370954     A.U. after   12 cycles
 SCF Done:  E(UB-LYP) =  -100.875162609     A.U. after   12 cycles
 SCF Done:  E(UB-LYP) =  -100.874989889     A.U. after   12 cycles
 SCF Done:  E(UB-LYP) =  -100.874853598     A.U. after   12 cycles
 SCF Done:  E(UB-LYP) =  -100.874758452     A.U. after   12 cycles
 SCF Done:  E(UB-LYP) =  -100.874703455     A.U. after   12 cycles
 SCF Done:  E(UB-LYP) =  -100.874692088     A.U. after   12 cycles
 SCF Done:  E(UB-LYP) =  -100.874692323     A.U. after   10 cycles
 SCF Done:  E(UB-LYP) =  -100.874692394     A.U. after   10 cycles
 Optimization completed.
    -- Stationary point found.
 Normal termination of Gaussian 16 at Wed Oct  7 14:53:41 2020.
 Gaussian 16:  ES64L-G16RevA.03 25-Dec-2016

 ----------------------------------------------------------------------
 #P Freq BLYP/6-31G* 5D 7F Integral=UltraFineGrid SCF=(NoSymm,XQC,MaxCy
 c=120) IOp(1/33=1) Geom=Check Guess=Read
 ----------------------------------------------------------------------

 TstMul:  Mul=     2
 TstMul:  ICh=     0
 TstMul:  Mul=     2
 Structure from the checkpoint file:  "MN_86_RKT10_BH76_BLYP_631Gs.chk"
 Charge =  0 Multiplicity = 2

                         Standard orientation:
 ---------------------------------------------------------------------
 Center     Atomic      Atomic             Coordinates (Angstroms)
 Number     Number       Type             X           Y           Z
 ---------------------------------------------------------------------
      1          1           0        0.388253   -1.402717   -0.000000
      2          9           0        0.000000    0.311516    0.000000
      3          1           0       -0.388253   -1.400926   -0.000000
 ---------------------------------------------------------------------

 SCF Done:  E(UB-LYP) =  -100.874692394     A.U. after    1 cycles

 The electronic state is 2-A'.
 Alpha  occ. eigenvalues --  -24.31053  -1.03003  -0.47052  -0.33022  -0.32099
 Alpha  occ. eigenvalues --   -0.31537
 Alpha virt. eigenvalues --    0.04566   0.52985   0.95302   1.10872   1.11701
 Alpha virt. eigenvalues --    1.15712   1.33961   1.76656   1.76998   1.78998
 Alpha virt. eigenvalues --    1.80971   1.80981
  Beta  occ. eigenvalues --  -24.28732  -0.97371  -0.42592  -0.29766  -0.29189
  Beta virt. eigenvalues --   -0.23467   0.05858   0.54698   0.98037   1.12325
  Beta virt. eigenvalues --    1.17220   1.19202   1.37630   1.80879   1.81587
  Beta virt. eigenvalues --    1.81604   1.82807   1.83187

 Mulliken charges and spin densities:
               1          2
     1  H    0.072568   0.093010
     2  F   -0.145470   0.814797
     3  H    0.072902   0.092193
 Sum of Mulliken charges =  -0.00000   1.00000

 Dipole moment (field-independent basis, Debye):
    X=             -0.0004    Y=             -1.1475    Z=             -0.0000  Tot=              1.1475
 Quadrupole moment (field-independent basis, Debye-Ang):
   XX=             -6.2276   YY=             -4.6331   ZZ=             -6.6555
   XY=             -0.0002   XZ=             -0.0000   YZ=              0.0000

  Exact polarizability:   7.226  -0.011  13.017   0.000   0.000   1.562
 Approx polarizability:  10.275  -0.020  23.289  -0.000   0.000   1.878

 ******    1 imaginary frequencies (negative Signs) ******

                      1                      2                      3
                     A'                     A'                     A'
 Frequencies --   -497.4359               535.3533              3934.0401
 Red. masses --      1.0128                 1.1083                 1.0080
 Frc consts  --      0.1477                 0.1872                 9.1913
 IR Inten    --      2.0155                22.1444               117.0940

 - Thermochemistry -
 -------------------
 Temperature   298.150 Kelvin.  Pressure   1.00000 Atm.
 Atom     1 has atomic number  1 and mass   1.00783

 Molecular mass:    21.01405 amu.
 Principal axes and moments of inertia in atomic units:
                           1         2         3
     Eigenvalues --     1.08503  19.10320  20.18823
           X           -0.00014   1.00000   0.00000
           Y            1.00000   0.00014   0.00000
           Z            0.00000   0.00000   1.00000
 This molecule is an asymmetric top.
 Rotational symmetry number  1.
 Rotational temperatures (Kelvin)     79.82632     4.53400     4.29032
 Rotational constants (GHZ):        1663.31045    94.47322    89.39570
    1 imaginary frequencies ignored.
 Zero-point vibrational energy      26732.9 (Joules/Mol)
                                    6.38932 (Kcal/Mol)
 Warning -- explicit consideration of   1 degrees of freedom as
           vibrations may cause significant error
 Vibrational temperatures:    770.25  5660.21
          (Kelvin)

 Zero-point correction=                           0.010182 (Hartree/Particle)
 Thermal correction to Energy=                    0.013214
 Thermal correction to Enthalpy=                  0.014158
 Thermal correction to Gibbs Free Energy=        -0.009989
 Sum of electronic and zero-point Energies=           -100.864510
 Sum of electronic and thermal Energies=              -100.861479
 Sum of electronic and thermal Enthalpies=            -100.860534
 Sum of electronic and thermal Free Energies=         -100.884681

                     E (Thermal)             CV                S
                      KCal/Mol        Cal/Mol-Kelvin    Cal/Mol-Kelvin
 Total                    8.292              7.133             50.822
 Electronic               0.000              0.000              1.377
 Translational            0.889              2.981             35.068
 Rotational               0.889              2.981             13.801
 Vibrational              6.514              1.172              0.575
 Vibration     1          0.890              1.172              0.575

 Optimization completed.
    -- Stationary point found.
 Normal termination of Gaussian 16 at Wed Oct  7 14:54:04 2020.
