 Gaussian 16, Revision A.03,

 ----------------------------------------------------------------------
 #P Opt(TS,MaxCyc=50,NoEigenTest,MaxStep=10,AddRedundant) BLYP/6-31G* 5
 D 7F Integral=UltraFineGrid SCF=(NoSymm,XQC,MaxCyc=120) IOp(1/33=1)
 ----------------------------------------------------------------------

 TstMul:  Mul=     2
 TstMul:  ICh=     0
 TstMul:  Mul=     2
 Symbolic Z-matrix:
 Charge =  0 Multiplicity = 2

 SCF Done:  E(UB-LYP) =  -500.583136659     A.U. after   13 cycles
 SCF Done:  E(UB-LYP) =  -500.584511774     A.U. after   12 cycles
 SCF Done:  E(UB-LYP) =  -500.584970256     A.U. after   12 cycles
 SCF Done:  E(UB-LYP) =  -500.584440401     A.U. after   11 cycles
 SCF Done:  E(UB-LYP) =  -500.584715682     A.U. after   11 cycles
 SCF Done:  E(UB-LYP) =  -500.585252436     A.U. after   12 cycles
 SCF Done:  E(UB-LYP) =  -500.584076189     A.U. after   12 cycles
 SCF Done:  E(UB-LYP) =  -500.582924033     A.U. after   12 cycles
 SCF Done:  E(UB-LYP) =  -500.582002143     A.U. after   12 cycles
 SCF Done:  E(UB-LYP) =  -500.581299406     A.U. after   12 cycles
 SCF Done:  E(UB-LYP) =  -500.578176131     A.U. after   10 cycles
 SCF Done:  E(UB-LYP) =  -500.578156050     A.U. after   11 cycles
 SCF Done:  E(UB-LYP) =  -500.578151142     A.U. after   11 cycles
 SCF Done:  E(UB-LYP) =  -500.578156473     A.U. after   11 cycles
 SCF Done:  E(UB-LYP) =  -500.578159427     A.U. after    9 cycles
 SCF Done:  E(UB-LYP) =  -500.578163576     A.U. after   10 cycles
 SCF Done:  E(UB-LYP) =  -500.578164308     A.U. after    8 cycles
 SCF Done:  E(UB-LYP) =  -500.578165435     A.U. after    9 cycles
 SCF Done:  E(UB-LYP) =  -500.578165326     A.U. after    7 cycles
 Optimization completed.
    -- Stationary point found.
 Normal termination of Gaussian 16 at Wed Oct  7 14:58:32 2020.
 Gaussian 16:  ES64L-G16RevA.03 25-Dec-2016

 ----------------------------------------------------------------------
 #P Freq BLYP/6-31G* 5D 7F Integral=UltraFineGrid SCF=(NoSymm,XQC,MaxCy
 c=120) IOp(1/33=1) Geom=Check Guess=Read
 ----------------------------------------------------------------------

 TstMul:  Mul=     2
 TstMul:  ICh=     0
 TstMul:  Mul=     2
 Structure from the checkpoint file:  "MN_84_RKT08_BH76_BLYP_631Gs.chk"
 Charge =  0 Multiplicity = 2

                         Standard orientation:
 ---------------------------------------------------------------------
 Center     Atomic      Atomic             Coordinates (Angstroms)
 Number     Number       Type             X           Y           Z
 ---------------------------------------------------------------------
      1          6           0        2.107135    0.004075    0.019467
      2          1           0        2.535771   -0.212986   -0.959339
      3          1           0        2.049925   -0.795422    0.759976
      4          1           0        2.068151    1.039906    0.360490
      5          1           0        0.151493   -0.073773   -0.335659
      6         17           0       -1.144009    0.001048    0.003396
 ---------------------------------------------------------------------

 SCF Done:  E(UB-LYP) =  -500.578165326     A.U. after    1 cycles

 The electronic state is 2-A.
 Alpha  occ. eigenvalues -- -100.71310  -9.95856  -9.15898  -6.99287  -6.98110
 Alpha  occ. eigenvalues --   -6.98103  -0.74104  -0.63653  -0.40504  -0.39109
 Alpha  occ. eigenvalues --   -0.39059  -0.26252  -0.26187  -0.21611
 Alpha virt. eigenvalues --    0.03611   0.06521   0.12775   0.12910   0.35826
 Alpha virt. eigenvalues --    0.39002   0.40258   0.40694   0.49331   0.49929
 Alpha virt. eigenvalues --    0.50807   0.68974   0.79893   0.79927   0.82076

  Beta  occ. eigenvalues -- -100.71235  -9.94688  -9.15828  -6.99097  -6.98060
  Beta  occ. eigenvalues --   -6.98057  -0.73680  -0.60788  -0.39882  -0.38295
  Beta  occ. eigenvalues --   -0.38263  -0.26053  -0.26025
  Beta virt. eigenvalues --   -0.14140   0.05184   0.07862   0.13329   0.13479
  Beta virt. eigenvalues --    0.36229   0.39862   0.40489   0.40878   0.50083
  Beta virt. eigenvalues --    0.51211   0.55030   0.71225   0.80519   0.80545

 Mulliken charges and spin densities:
               1          2
     1  C   -0.468138   1.001701
     2  H    0.174591  -0.037938
     3  H    0.183745  -0.037494
     4  H    0.183535  -0.037641
     5  H    0.167593   0.019087
     6  Cl  -0.241326   0.092284
 Sum of Mulliken charges =  -0.00000   1.00000

 Dipole moment (field-independent basis, Debye):
    X=              2.6279    Y=             -0.0494    Z=             -0.2113  Tot=              2.6369
 Quadrupole moment (field-independent basis, Debye-Ang):
   XX=            -19.6584   YY=            -20.8819   ZZ=            -20.8136
   XY=             -0.1136   XZ=             -0.5640   YZ=              0.0205

  Exact polarizability:  37.205  -0.369  17.738  -1.925   0.046  17.852
 Approx polarizability:  54.141  -0.823  24.557  -4.129   0.151  25.091

 ******    1 imaginary frequencies (negative Signs) ******

                      1                      2                      3
                      A                      A                      A
 Frequencies --    -23.5474               198.5222               248.5210
 Red. masses --      2.9367                 1.2280                 1.0284
 Frc consts  --      0.0010                 0.0285                 0.0374
 IR Inten    --     16.3349                 9.7155                 3.7804

                      4                      5                      6
                      A                      A                      A
 Frequencies --    468.4376               516.9730               752.2832
 Red. masses --      1.0466                 1.0332                 1.1733
 Frc consts  --      0.1353                 0.1627                 0.3912
 IR Inten    --     86.1135                27.6831                44.3827

                      7                      8                      9
                      A                      A                      A
 Frequencies --   1398.4480              1402.7116              2260.3262
 Red. masses --      1.0990                 1.0995                 1.0424
 Frc consts  --      1.2663                 1.2746                 3.1379
 IR Inten    --      3.8738                 3.3830               400.4861

                     10                     11                     12
                      A                      A                      A
 Frequencies --   3061.6420              3226.3604              3230.9726
 Red. masses --      1.0097                 1.1171                 1.1172
 Frc consts  --      5.5762                 6.8514                 6.8716
 IR Inten    --      1.1055                 2.2113                 3.3004

 - Thermochemistry -
 -------------------
 Temperature   298.150 Kelvin.  Pressure   1.00000 Atm.
 Atom     1 has atomic number  6 and mass  12.00000

 Molecular mass:    51.00015 amu.
 Principal axes and moments of inertia in atomic units:
                           1         2         3
     Eigenvalues --    12.63091 409.39487 409.46918
           X            1.00000  -0.00036  -0.00181
           Y            0.00033   0.99988  -0.01543
           Z            0.00182   0.01543   0.99988
 This molecule is an asymmetric top.
 Rotational symmetry number  1.
 Rotational temperatures (Kelvin)      6.85730     0.21157     0.21153
 Rotational constants (GHZ):         142.88296     4.40831     4.40751
    1 imaginary frequencies ignored.
 Zero-point vibrational energy     100278.2 (Joules/Mol)
                                   23.96705 (Kcal/Mol)
 Warning -- explicit consideration of   4 degrees of freedom as
           vibrations may cause significant error
 Vibrational temperatures:    285.63   357.57   673.98   743.81  1082.37
          (Kelvin)           2012.05  2018.19  3252.11  4405.02  4642.01
                             4648.65

 Zero-point correction=                           0.038194 (Hartree/Particle)
 Thermal correction to Energy=                    0.042647
 Thermal correction to Enthalpy=                  0.043591
 Thermal correction to Gibbs Free Energy=         0.011806
 Sum of electronic and zero-point Energies=           -500.539971
 Sum of electronic and thermal Energies=              -500.535518
 Sum of electronic and thermal Enthalpies=            -500.534574
 Sum of electronic and thermal Free Energies=         -500.566359

                     E (Thermal)             CV                S
                      KCal/Mol        Cal/Mol-Kelvin    Cal/Mol-Kelvin
 Total                   26.761             13.050             66.897
 Electronic               0.000              0.000              1.377
 Translational            0.889              2.981             37.711
 Rotational               0.889              2.981             22.275
 Vibrational             24.984              7.088              5.533
 Vibration     1          0.637              1.842              2.147
 Vibration     2          0.662              1.765              1.741
 Vibration     3          0.826              1.320              0.742
 Vibration     4          0.872              1.212              0.617

                           ! Non-Optimized Parameters !
 Normal termination of Gaussian 16 at Wed Oct  7 14:58:49 2020.
