 Gaussian 16, Revision A.03,

 ----------------------------------------------------------------------
 #P Opt(TS,MaxCyc=50,NoEigenTest,MaxStep=10,AddRedundant) BLYP/6-31G* 5
 D 7F Integral=UltraFineGrid SCF=(NoSymm,XQC,MaxCyc=120) IOp(1/33=1)
 ----------------------------------------------------------------------

 TstMul:  Mul=     3
 TstMul:  ICh=     0
 TstMul:  Mul=     3
 Symbolic Z-matrix:
 Charge =  0 Multiplicity = 3

 SCF Done:  E(UB-LYP) =  -76.2020564263     A.U. after   12 cycles
 SCF Done:  E(UB-LYP) =  -76.2021074883     A.U. after   10 cycles
 SCF Done:  E(UB-LYP) =  -76.2020785524     A.U. after   10 cycles
 SCF Done:  E(UB-LYP) =  -76.2016709570     A.U. after   11 cycles
 SCF Done:  E(UB-LYP) =  -76.2013440605     A.U. after   11 cycles
 SCF Done:  E(UB-LYP) =  -76.2016193580     A.U. after   11 cycles
 SCF Done:  E(UB-LYP) =  -76.2015098016     A.U. after   11 cycles
 SCF Done:  E(UB-LYP) =  -76.2014895552     A.U. after   11 cycles
 SCF Done:  E(UB-LYP) =  -76.2014980487     A.U. after   11 cycles
 SCF Done:  E(UB-LYP) =  -76.2014953154     A.U. after   11 cycles
 SCF Done:  E(UB-LYP) =  -76.2014966282     A.U. after    9 cycles
 SCF Done:  E(UB-LYP) =  -76.2014965211     A.U. after    8 cycles
 SCF Done:  E(UB-LYP) =  -76.2014964110     A.U. after    8 cycles
 Optimization completed.
    -- Stationary point found.
 Normal termination of Gaussian 16 at Wed Oct  7 14:52:31 2020.
 Gaussian 16:  ES64L-G16RevA.03 25-Dec-2016

 ----------------------------------------------------------------------
 #P Freq BLYP/6-31G* 5D 7F Integral=UltraFineGrid SCF=(NoSymm,XQC,MaxCy
 c=120) IOp(1/33=1) Geom=Check Guess=Read
 ----------------------------------------------------------------------

 TstMul:  Mul=     3
 TstMul:  ICh=     0
 TstMul:  Mul=     3
 Structure from the checkpoint file:  "MN_89_RKT14_BH76_BLYP_631Gs.chk"
 Charge =  0 Multiplicity = 3

                         Standard orientation:
 ---------------------------------------------------------------------
 Center     Atomic      Atomic             Coordinates (Angstroms)
 Number     Number       Type             X           Y           Z
 ---------------------------------------------------------------------
      1          1           0        0.000000    0.000000   -0.746300
      2          8           0        0.000000    0.000000    0.330087
      3          1           0        0.000000    0.000000   -1.894393
 ---------------------------------------------------------------------

 SCF Done:  E(UB-LYP) =  -76.2014964110     A.U. after    1 cycles

 Unable to determine electronic state:  partially filled degenerate orbitals.
 Alpha  occ. eigenvalues --  -18.86795  -0.89773  -0.44536  -0.33996  -0.27971
 Alpha  occ. eigenvalues --   -0.26671
 Alpha virt. eigenvalues --    0.14102   0.63754   0.68490   0.75780   0.80515
 Alpha virt. eigenvalues --    0.86683   1.31771   1.62969   1.67824   1.69071
 Alpha virt. eigenvalues --    1.69102   2.20576
  Beta  occ. eigenvalues --  -18.83902  -0.82579  -0.39566  -0.23657
  Beta virt. eigenvalues --   -0.20835  -0.17906   0.17670   0.67343   0.77642
  Beta virt. eigenvalues --    0.82405   0.84894   0.90549   1.37195   1.70359
  Beta virt. eigenvalues --    1.71052   1.75220   1.76340   2.24826

 Mulliken charges and spin densities:
               1          2
     1  H    0.293293  -0.059660
     2  O   -0.312015   1.310628
     3  H    0.018722   0.749032
 Sum of Mulliken charges =   0.00000   2.00000

 Dipole moment (field-independent basis, Debye):
    X=              0.0000    Y=              0.0000    Z=             -1.3492  Tot=              1.3492
 Quadrupole moment (field-independent basis, Debye-Ang):
   XX=             -7.7031   YY=             -6.5772   ZZ=             -6.3418
   XY=              0.0000   XZ=              0.0000   YZ=              0.0000

  Exact polarizability:   2.380  -0.000   2.664   0.000  -0.000  19.306
 Approx polarizability:   2.731  -0.000   3.689  -0.000  -0.000  32.848

 ******    2 imaginary frequencies (negative Signs) ******

                      1                      2                      3
                     SG                     PI                     PI
 Frequencies --   -405.3908              -144.2041               776.8445
 Red. masses --      1.0163                 1.0207                 1.0207
 Frc consts  --      0.0984                 0.0125                 0.3629
 IR Inten    --    114.0519                52.5070                40.2535

                      4
                     SG
 Frequencies --   1861.2263
 Red. masses --      1.1155
 Frc consts  --      2.2768
 IR Inten    --     13.6941

 - Thermochemistry -
 -------------------
 Temperature   298.150 Kelvin.  Pressure   1.00000 Atm.
 Atom     1 has atomic number  1 and mass   1.00783

 Molecular mass:    18.01056 amu.
 Principal axes and moments of inertia in atomic units:
                           1         2         3
     Eigenvalues --     0.00000  19.78455  19.78455
           X            0.00000   0.00000   1.00000
           Y            0.00000   1.00000   0.00000
           Z            1.00000   0.00000   0.00000
 This molecule is a prolate symmetric top.
 Rotational symmetry number  1.
 Rotational temperature (Kelvin)      4.37786
 Rotational constant (GHZ):          91.219726
    2 imaginary frequencies ignored.
 Zero-point vibrational energy      15779.2 (Joules/Mol)
                                    3.77131 (Kcal/Mol)
 Vibrational temperatures:   1117.71  2677.89
          (Kelvin)

 Zero-point correction=                           0.006010 (Hartree/Particle)
 Thermal correction to Energy=                    0.008457
 Thermal correction to Enthalpy=                  0.009401
 Thermal correction to Gibbs Free Energy=        -0.013118
 Sum of electronic and zero-point Energies=            -76.195486
 Sum of electronic and thermal Energies=               -76.193040
 Sum of electronic and thermal Enthalpies=             -76.192095
 Sum of electronic and thermal Free Energies=          -76.214615

                     E (Thermal)             CV                S
                      KCal/Mol        Cal/Mol-Kelvin    Cal/Mol-Kelvin
 Total                    5.307              5.678             47.396
 Electronic               0.000              0.000              2.183
 Translational            0.889              2.981             34.608
 Rotational               0.592              1.987             10.375
 Vibrational              3.826              0.710              0.229

 Optimization completed.
    -- Stationary point found.
 Normal termination of Gaussian 16 at Wed Oct  7 14:52:56 2020.
