 Gaussian 16, Revision A.03,

 ----------------------------------------------------------------------
 #P Opt(TS,MaxCyc=250,NoEigenTest,MaxStep=10,AddRedundant) BLYP/6-31G*
 5D 7F Integral=UltraFineGrid SCF=(NoSymm,XQC,MaxCyc=120) IOp(1/33=1)
 ----------------------------------------------------------------------

 TstMul:  Mul=     2
 TstMul:  ICh=     0
 TstMul:  Mul=     2
 Symbolic Z-matrix:
 Charge =  0 Multiplicity = 2

 SCF Done:  E(UB-LYP) =  -155.471678058     A.U. after   15 cycles
 SCF Done:  E(UB-LYP) =  -155.471725873     A.U. after   10 cycles
 SCF Done:  E(UB-LYP) =  -155.471694335     A.U. after   11 cycles
 SCF Done:  E(UB-LYP) =  -155.472239527     A.U. after   13 cycles
 SCF Done:  E(UB-LYP) =  -155.472941371     A.U. after   13 cycles
 SCF Done:  E(UB-LYP) =  -155.473092979     A.U. after   13 cycles
 SCF Done:  E(UB-LYP) =  -155.473126568     A.U. after   13 cycles
 SCF Done:  E(UB-LYP) =  -155.473161703     A.U. after   13 cycles
 SCF Done:  E(UB-LYP) =  -155.473134990     A.U. after   14 cycles
 SCF Done:  E(UB-LYP) =  -155.473137931     A.U. after   12 cycles
 SCF Done:  E(UB-LYP) =  -155.473151971     A.U. after   14 cycles
 SCF Done:  E(UB-LYP) =  -155.473152542     A.U. after   11 cycles
 SCF Done:  E(UB-LYP) =  -155.473152292     A.U. after   11 cycles
 SCF Done:  E(UB-LYP) =  -155.473152269     A.U. after   12 cycles
 SCF Done:  E(UB-LYP) =  -155.473155356     A.U. after   13 cycles
 SCF Done:  E(UB-LYP) =  -155.473152099     A.U. after   13 cycles
 SCF Done:  E(UB-LYP) =  -155.473151894     A.U. after   10 cycles
 SCF Done:  E(UB-LYP) =  -155.473151420     A.U. after   14 cycles
 SCF Done:  E(UB-LYP) =  -155.473151811     A.U. after   13 cycles
 Optimization completed.
    -- Stationary point found.

 1\1\GINC-NODE37\FTS\UBLYP\6-31G(d)\C2H7O1(2)\RPEVERATI\07-Oct-2020\0\\
 #P Opt(TS,MaxCyc=250,NoEigenTest,MaxStep=10,AddRedundant) BLYP/6-31G*
 5D 7F Integral=UltraFineGrid SCF=(NoSymm,XQC,MaxCyc=120) IOp(1/33=1)\\
 TS search on BH76.\\0,2\C,0.0007264701,0.0112562891,-0.0083591372\C,-0
 .0076908307,-0.0525100731,1.5175865635\O,2.4578385582,-0.0536255975,2.
 4032574057\H,0.573742738,0.8795900821,-0.3733194235\H,0.4419629781,-0.
 8977139034,-0.4490166093\H,-1.0311643043,0.1046178136,-0.3977621618\H,
 -0.4101844921,0.857446694,1.9922657554\H,-0.5172044647,-0.9414651431,1

 Normal termination of Gaussian 16 at Wed Oct  7 14:57:05 2020.
 Gaussian 16:  ES64L-G16RevA.03 25-Dec-2016

 ----------------------------------------------------------------------
 #P Freq BLYP/6-31G* 5D 7F Integral=UltraFineGrid SCF=(NoSymm,XQC,MaxCy
 c=120) IOp(1/33=1) Geom=Check Guess=Read
 ----------------------------------------------------------------------

 TstMul:  Mul=     2
 TstMul:  ICh=     0
 TstMul:  Mul=     2
 Structure from the checkpoint file:  "MN_85_RKT09_BH76_BLYP_631Gs.chk"
 Charge =  0 Multiplicity = 2

                         Standard orientation:
 ---------------------------------------------------------------------
 Center     Atomic      Atomic             Coordinates (Angstroms)
 Number     Number       Type             X           Y           Z
 ---------------------------------------------------------------------
      1          6           0        1.498005   -0.456120    0.025909
      2          6           0        0.493327    0.693031   -0.026259
      3          8           0       -1.938964   -0.278221   -0.088527
      4          1           0        1.297675   -1.129707    0.875435
      5          1           0        1.474275   -1.056751   -0.898091
      6          1           0        2.526951   -0.065849    0.144687
      7          1           0        0.465488    1.293422    0.897916
      8          1           0        0.618585    1.356478   -0.897831
      9          1           0       -0.594019    0.237105   -0.159186
     10          1           0       -2.225234    0.169599    0.747383
 ---------------------------------------------------------------------

 SCF Done:  E(UB-LYP) =  -155.473151811     A.U. after    1 cycles

 The electronic state is 2-A.
 Alpha  occ. eigenvalues --  -18.79901  -9.92733  -9.91612  -0.86308  -0.68135
 Alpha  occ. eigenvalues --   -0.55523  -0.41038  -0.39126  -0.36205  -0.33595
 Alpha  occ. eigenvalues --   -0.32241  -0.30661  -0.22433  -0.22071
 Alpha virt. eigenvalues --    0.05723   0.08655   0.11854   0.12290   0.14030
 Alpha virt. eigenvalues --    0.15694   0.19751   0.24928   0.46531   0.49298
 Alpha virt. eigenvalues --    0.50571   0.56481   0.58880   0.60212   0.74959

  Beta  occ. eigenvalues --  -18.78294  -9.92266  -9.91611  -0.82580  -0.67491
  Beta  occ. eigenvalues --   -0.54812  -0.39446  -0.38820  -0.35097  -0.32824
  Beta  occ. eigenvalues --   -0.30534  -0.30141  -0.20395
  Beta virt. eigenvalues --   -0.16020   0.06234   0.08955   0.12172   0.12480
  Beta virt. eigenvalues --    0.14229   0.15924   0.20151   0.26287   0.46808
  Beta virt. eigenvalues --    0.49452   0.51187   0.57799   0.59142   0.60607

 Mulliken charges and spin densities:
               1          2
     1  C   -0.385868  -0.003924
     2  C   -0.427737   0.320794
     3  O   -0.547098   0.713785
     4  H    0.143973   0.003400
     5  H    0.147557   0.002183
     6  H    0.140648   0.023633
     7  H    0.139440  -0.006392
     8  H    0.151190  -0.000850
     9  H    0.274732  -0.033739
    10  H    0.363162  -0.018890
 Sum of Mulliken charges =   0.00000   1.00000

 Dipole moment (field-independent basis, Debye):
    X=              1.1643    Y=              1.0421    Z=              1.2323  Tot=              1.9900
 Quadrupole moment (field-independent basis, Debye-Ang):
   XX=            -21.0349   YY=            -20.9091   ZZ=            -19.5568
   XY=             -1.6514   XZ=             -3.1774   YZ=              0.3420

  Exact polarizability:  52.343   3.558  28.045  -1.936   1.070  27.376
 Approx polarizability:  89.214  13.527  42.554  -1.046   2.896  41.801

 ******    1 imaginary frequencies (negative Signs) ******

                      1                      2                      3
                      A                      A                      A
 Frequencies --    -81.7884                65.1773                99.7581
 Red. masses --      3.8137                 1.1008                 2.0266
 Frc consts  --      0.0150                 0.0028                 0.0119
 IR Inten    --     31.4470                89.2636                10.0708

                      4                      5                      6
                      A                      A                      A
 Frequencies --    170.6211               368.7255               724.5698
 Red. masses --      1.1773                 1.0322                 1.1125
 Frc consts  --      0.0202                 0.0827                 0.3441
 IR Inten    --      6.9094                 3.8774                46.8413

                      7                      8                      9
                      A                      A                      A
 Frequencies --    801.6567               874.2694               995.3295
 Red. masses --      1.0733                 1.0887                 3.0940
 Frc consts  --      0.4064                 0.4903                 1.8059
 IR Inten    --      5.9708                40.8578                 2.0479

                     10                     11                     12
                      A                      A                      A
 Frequencies --   1126.2048              1211.0605              1266.0863
 Red. masses --      1.4097                 1.4240                 1.2853
 Frc consts  --      1.0534                 1.2305                 1.2139
 IR Inten    --     23.0694                 0.3698                93.7901

                     13                     14                     15
                      A                      A                      A
 Frequencies --   1376.7032              1393.2882              1456.3027
 Red. masses --      1.0362                 1.1997                 1.1213
 Frc consts  --      1.1571                 1.3721                 1.4011
 IR Inten    --    100.7635                 1.6312                 1.6635

                     16                     17                     18
                      A                      A                      A
 Frequencies --   1475.9800              1489.8868              1665.0368
 Red. masses --      1.0426                 1.0509                 1.0779
 Frc consts  --      1.3382                 1.3744                 1.7607
 IR Inten    --      6.8248                 5.0379               440.8137

                     19                     20                     21
                      A                      A                      A
 Frequencies --   2955.0992              2995.1499              3019.4106
 Red. masses --      1.0448                 1.0566                 1.0869
 Frc consts  --      5.3758                 5.5846                 5.8384
 IR Inten    --     11.8867                12.6358                32.1276

                     22                     23                     24
                      A                      A                      A
 Frequencies --   3037.2931              3062.2044              3510.8163
 Red. masses --      1.1031                 1.1055                 1.0668
 Frc consts  --      5.9959                 6.1076                 7.7472
 IR Inten    --      1.6533                49.1536                 6.9582

 - Thermochemistry -
 -------------------
 Temperature   298.150 Kelvin.  Pressure   1.00000 Atm.
 Atom     1 has atomic number  6 and mass  12.00000

 Molecular mass:    47.04969 amu.
 Principal axes and moments of inertia in atomic units:
                           1         2         3
     Eigenvalues --    69.29296 392.80113 434.02600
           X            0.99961  -0.02411  -0.01438
           Y            0.02415   0.99971   0.00230
           Z            0.01432  -0.00265   0.99989
 This molecule is an asymmetric top.
 Rotational symmetry number  1.
 Rotational temperatures (Kelvin)      1.24997     0.22050     0.19956
 Rotational constants (GHZ):          26.04509     4.59454     4.15814
    1 imaginary frequencies ignored.
 Zero-point vibrational energy     210187.6 (Joules/Mol)
                                   50.23605 (Kcal/Mol)
 Warning -- explicit consideration of   4 degrees of freedom as
           vibrations may cause significant error
 Vibrational temperatures:     93.78   143.53   245.49   530.51  1042.49
          (Kelvin)           1153.41  1257.88  1432.06  1620.36  1742.45
                             1821.62  1980.77  2004.63  2095.29  2123.61
                             2143.61  2395.62  4251.73  4309.35  4344.26
                             4369.99  4405.83  5051.28

 Zero-point correction=                           0.080056 (Hartree/Particle)
 Thermal correction to Energy=                    0.085741
 Thermal correction to Enthalpy=                  0.086685
 Thermal correction to Gibbs Free Energy=         0.051030
 Sum of electronic and zero-point Energies=           -155.393096
 Sum of electronic and thermal Energies=              -155.387411
 Sum of electronic and thermal Enthalpies=            -155.386467
 Sum of electronic and thermal Free Energies=         -155.422122

                     E (Thermal)             CV                S
                      KCal/Mol        Cal/Mol-Kelvin    Cal/Mol-Kelvin
 Total                   53.803             16.780             75.043
 Electronic               0.000              0.000              1.377
 Translational            0.889              2.981             37.471
 Rotational               0.889              2.981             23.983
 Vibrational             52.026             10.818             12.212
 Vibration     1          0.597              1.971              4.294
 Vibration     2          0.604              1.949              3.459
 Vibration     3          0.626              1.879              2.429
 Vibration     4          0.741              1.537              1.085

                           ! Non-Optimized Parameters !
 Normal termination of Gaussian 16 at Wed Oct  7 14:57:49 2020.
