 Gaussian 16, Revision A.03,

 ----------------------------------------------------------------------
 #P Opt(TS,MaxCyc=50,NoEigenTest,MaxStep=10,AddRedundant) BLYP/6-31G* 5
 D 7F Integral=UltraFineGrid SCF=(NoSymm,XQC,MaxCyc=120) IOp(1/33=1)
 ----------------------------------------------------------------------

 TstMul:  Mul=     3
 TstMul:  ICh=     0
 TstMul:  Mul=     3
 Symbolic Z-matrix:
 Charge =  0 Multiplicity = 3

 SCF Done:  E(UB-LYP) =  -115.514901640     A.U. after   13 cycles
 SCF Done:  E(UB-LYP) =  -115.515697550     A.U. after   12 cycles
 SCF Done:  E(UB-LYP) =  -115.516213135     A.U. after   12 cycles
 SCF Done:  E(UB-LYP) =  -115.515451492     A.U. after   12 cycles
 SCF Done:  E(UB-LYP) =  -115.514822902     A.U. after   12 cycles
 SCF Done:  E(UB-LYP) =  -115.514440510     A.U. after   12 cycles
 SCF Done:  E(UB-LYP) =  -115.514309325     A.U. after   12 cycles
 SCF Done:  E(UB-LYP) =  -115.514319091     A.U. after   11 cycles
 SCF Done:  E(UB-LYP) =  -115.514319062     A.U. after    9 cycles
 Optimization completed.
    -- Stationary point found.

 1\1\GINC-NODE56\FTS\UBLYP\6-31G(d)\C1H4O1(3)\RPEVERATI\07-Oct-2020\0\\
 #P Opt(TS,MaxCyc=50,NoEigenTest,MaxStep=10,AddRedundant) BLYP/6-31G* 5
 D 7F Integral=UltraFineGrid SCF=(NoSymm,XQC,MaxCyc=120) IOp(1/33=1)\\T
 S search on BH76.\\0,3\C,0.0030425903,-1.1936836565,0.\H,-1.0727601424
 ,-1.4014236433,0.\H,0.5311513766,-1.4338037137,0.9285834915\H,0.531151
 3766,-1.4338037137,-0.9285834915\H,0.0103044553,0.268146363,0.\O,-0.00
 65172905,1.3920810904,0.\\Version=ES64L-G16RevA.03\State=3-A'\HF=-115.
 5143191\S2=2.0057\S2-1=0.\S2A=2.000015\RMSD=1.876e-09\RMSF=3.504e-05\D

 Normal termination of Gaussian 16 at Wed Oct  7 14:51:59 2020.
 Gaussian 16:  ES64L-G16RevA.03 25-Dec-2016

 ----------------------------------------------------------------------
 #P Freq BLYP/6-31G* 5D 7F Integral=UltraFineGrid SCF=(NoSymm,XQC,MaxCy
 c=120) IOp(1/33=1) Geom=Check Guess=Read
 ----------------------------------------------------------------------

 TstMul:  Mul=     3
 TstMul:  ICh=     0
 TstMul:  Mul=     3
 Structure from the checkpoint file:  "MN_87_RKT11_BH76_BLYP_631Gs.chk"
 Charge =  0 Multiplicity = 3

                         Standard orientation:
 ---------------------------------------------------------------------
 Center     Atomic      Atomic             Coordinates (Angstroms)
 Number     Number       Type             X           Y           Z
 ---------------------------------------------------------------------
      1          6           0        0.000526   -1.192231    0.000000
      2          1           0       -1.076038   -1.395992    0.000000
      3          1           0        0.527743   -1.434301    0.928583
      4          1           0        0.527743   -1.434301   -0.928583
      5          1           0        0.013192    0.269563   -0.000000
      6          8           0        0.000526    1.393552   -0.000000
 ---------------------------------------------------------------------

 SCF Done:  E(UB-LYP) =  -115.514319062     A.U. after    1 cycles

 The electronic state is 3-A'.
 Alpha  occ. eigenvalues --  -18.84101  -9.94766  -0.86515  -0.63728  -0.40115
 Alpha  occ. eigenvalues --   -0.38206  -0.38186  -0.31445  -0.24233  -0.21695
 Alpha virt. eigenvalues --    0.07162   0.12737   0.12833   0.20502   0.46784
 Alpha virt. eigenvalues --    0.47169   0.49013   0.66238   0.79906   0.81209
 Alpha virt. eigenvalues --    0.81588   0.81707   0.84639   0.89517   1.08998

  Beta  occ. eigenvalues --  -18.81107  -9.93790  -0.79041  -0.61270  -0.37463
  Beta  occ. eigenvalues --   -0.37442  -0.35687  -0.21128
  Beta virt. eigenvalues --   -0.18336  -0.14718   0.08061   0.13360   0.13439
  Beta virt. eigenvalues --    0.23307   0.47780   0.47860   0.53563   0.67064
  Beta virt. eigenvalues --    0.82187   0.82310   0.82971   0.86589   0.88900

 Mulliken charges and spin densities:
               1          2
     1  C   -0.561877   0.754112
     2  H    0.180480  -0.020360
     3  H    0.180896  -0.021534
     4  H    0.180896  -0.021534
     5  H    0.383022  -0.042348
     6  O   -0.363418   1.351664
 Sum of Mulliken charges =   0.00000   2.00000

 Dipole moment (field-independent basis, Debye):
    X=              0.0011    Y=             -2.1867    Z=             -0.0000  Tot=              2.1867
 Quadrupole moment (field-independent basis, Debye-Ang):
   XX=            -12.3642   YY=            -15.4740   ZZ=            -13.4763
   XY=             -0.0023   XZ=             -0.0000   YZ=              0.0000

  Exact polarizability:  14.525  -0.092  30.054   0.000   0.000  14.276
 Approx polarizability:  20.201  -0.148  51.009  -0.000   0.000  19.291

 ******    1 imaginary frequencies (negative Signs) ******

                      1                      2                      3
                     A'                     A"                     A'
 Frequencies --   -695.2123               252.9796               381.4377
 Red. masses --      1.6315                 1.0525                 1.0685
 Frc consts  --      0.4646                 0.0397                 0.0916
 IR Inten    --     63.3407                13.3159                 3.6164

                      4                      5                      6
                     A'                     A"                     A'
 Frequencies --    691.4759               793.0956              1039.3163
 Red. masses --      1.7248                 1.0639                 1.0536
 Frc consts  --      0.4859                 0.3943                 0.6705
 IR Inten    --      0.4317                41.8896                50.3985

                      7                      8                      9
                     A'                     A'                     A"
 Frequencies --   1257.9172              1413.0061              1419.6331
 Red. masses --      1.3164                 1.0857                 1.0885
 Frc consts  --      1.2273                 1.2771                 1.2925
 IR Inten    --     17.8424                 3.8231                 3.8817

                     10                     11                     12
                     A'                     A'                     A"
 Frequencies --   3028.0164              3168.9531              3177.3382
 Red. masses --      1.0155                 1.1123                 1.1135
 Frc consts  --      5.4861                 6.5813                 6.6233
 IR Inten    --      0.1286                 6.7398                 6.4152

 - Thermochemistry -
 -------------------
 Temperature   298.150 Kelvin.  Pressure   1.00000 Atm.
 Atom     1 has atomic number  6 and mass  12.00000

 Molecular mass:    32.02621 amu.
 Principal axes and moments of inertia in atomic units:
                           1         2         3
     Eigenvalues --    12.37914 198.34567 198.37976
           X           -0.00010   0.00000   1.00000
           Y            1.00000   0.00000   0.00010
           Z           -0.00000   1.00000   0.00000
 This molecule is an asymmetric top.
 Rotational symmetry number  1.
 Rotational temperatures (Kelvin)      6.99676     0.43668     0.43661
 Rotational constants (GHZ):         145.78891     9.09897     9.09741
    1 imaginary frequencies ignored.
 Zero-point vibrational energy      99428.6 (Joules/Mol)
                                   23.76401 (Kcal/Mol)
 Warning -- explicit consideration of   2 degrees of freedom as
           vibrations may cause significant error
 Vibrational temperatures:    363.98   548.80   994.88  1141.09  1495.34
          (Kelvin)           1809.86  2033.00  2042.54  4356.64  4559.42
                             4571.48

 Zero-point correction=                           0.037870 (Hartree/Particle)
 Thermal correction to Energy=                    0.041768
 Thermal correction to Enthalpy=                  0.042713
 Thermal correction to Gibbs Free Energy=         0.012902
 Sum of electronic and zero-point Energies=           -115.476449
 Sum of electronic and thermal Energies=              -115.472551
 Sum of electronic and thermal Enthalpies=            -115.471606
 Sum of electronic and thermal Free Energies=         -115.501417

                     E (Thermal)             CV                S
                      KCal/Mol        Cal/Mol-Kelvin    Cal/Mol-Kelvin
 Total                   26.210             11.444             62.741
 Electronic               0.000              0.000              2.183
 Translational            0.889              2.981             36.324
 Rotational               0.889              2.981             20.815
 Vibrational             24.433              5.482              3.418
 Vibration     1          0.664              1.758              1.710
 Vibration     2          0.751              1.510              1.033

 Optimization completed.
    -- Stationary point found.
 Normal termination of Gaussian 16 at Wed Oct  7 14:52:29 2020.
