 Gaussian 16, Revision A.03,

 ----------------------------------------------------------------------
 #P Opt(TS,MaxCyc=50,NoEigenTest,MaxStep=10,AddRedundant) BLYP/6-31G* 5
 D 7F Integral=UltraFineGrid SCF=(NoSymm,XQC,MaxCyc=120) IOp(1/33=1)
 ----------------------------------------------------------------------

 TstMul:  Mul=     2
 TstMul:  ICh=     0
 TstMul:  Mul=     2
 Symbolic Z-matrix:
 Charge =  0 Multiplicity = 2

 SCF Done:  E(UB-LYP) =  -40.9602280622     A.U. after   13 cycles
 SCF Done:  E(UB-LYP) =  -40.9602334737     A.U. after    9 cycles
 SCF Done:  E(UB-LYP) =  -40.9602610998     A.U. after    9 cycles
 SCF Done:  E(UB-LYP) =  -40.9604065804     A.U. after   12 cycles
 SCF Done:  E(UB-LYP) =  -40.9604587115     A.U. after   10 cycles
 SCF Done:  E(UB-LYP) =  -40.9604680382     A.U. after   11 cycles
 SCF Done:  E(UB-LYP) =  -40.9604698262     A.U. after    9 cycles
 Optimization completed.
    -- Stationary point found.
 Normal termination of Gaussian 16 at Wed Oct  7 14:50:55 2020.
 Gaussian 16:  ES64L-G16RevA.03 25-Dec-2016

 ----------------------------------------------------------------------
 #P Freq BLYP/6-31G* 5D 7F Integral=UltraFineGrid SCF=(NoSymm,XQC,MaxCy
 c=120) IOp(1/33=1) Geom=Check Guess=Read
 ----------------------------------------------------------------------

 TstMul:  Mul=     2
 TstMul:  ICh=     0
 TstMul:  Mul=     2
 Structure from the checkpoint file:  "MN_80_RKT03_BH76_BLYP_631Gs.chk"
 Charge =  0 Multiplicity = 2

                         Standard orientation:
 ---------------------------------------------------------------------
 Center     Atomic      Atomic             Coordinates (Angstroms)
 Number     Number       Type             X           Y           Z
 ---------------------------------------------------------------------
      1          6           0        0.000000    0.277290    0.000000
      2          1           0        1.067293    0.523081    0.000000
      3          1           0       -0.533670    0.523032    0.924306
      4          1           0       -0.533670    0.523032   -0.924306
      5          1           0        0.000111   -1.171438    0.000000
      6          1           0       -0.000064   -2.061447    0.000000
 ---------------------------------------------------------------------

 SCF Done:  E(UB-LYP) =  -40.9604698262     A.U. after    1 cycles

 The electronic state is 2-A'.
 Alpha  occ. eigenvalues --   -9.92573  -0.61969  -0.38695  -0.36051  -0.36050
 Alpha  occ. eigenvalues --   -0.16851
 Alpha virt. eigenvalues --    0.08867   0.14267   0.14267   0.17168   0.49241
 Alpha virt. eigenvalues --    0.49241   0.51623   0.64750   0.83331   0.83331
 Alpha virt. eigenvalues --    0.85992   0.95336   1.15041   1.58196   1.58196

  Beta  occ. eigenvalues --   -9.91608  -0.59838  -0.35789  -0.35369  -0.35369
  Beta virt. eigenvalues --   -0.10136   0.09688   0.14882   0.14882   0.19627
  Beta virt. eigenvalues --    0.49762   0.49762   0.56037   0.68367   0.83966
  Beta virt. eigenvalues --    0.83966   0.88322   0.96201   1.17627   1.62448

 Mulliken charges and spin densities:
               1          2
     1  C   -0.481086   0.715684
     2  H    0.163167  -0.020392
     3  H    0.163166  -0.020395
     4  H    0.163166  -0.020395
     5  H    0.015485  -0.113601
     6  H   -0.023898   0.459100
 Sum of Mulliken charges =   0.00000   1.00000

 Dipole moment (field-independent basis, Debye):
    X=              0.0000    Y=              0.7448    Z=              0.0000  Tot=              0.7448
 Quadrupole moment (field-independent basis, Debye-Ang):
   XX=             -9.2412   YY=            -11.2457   ZZ=             -9.2413
   XY=             -0.0000   XZ=             -0.0000   YZ=             -0.0000

  Exact polarizability:  12.479   0.001  28.610  -0.000   0.000  12.479
 Approx polarizability:  16.915   0.002  43.249  -0.000  -0.000  16.915

 ******    1 imaginary frequencies (negative Signs) ******

                      1                      2                      3
                     A'                     A"                     A'
 Frequencies --   -951.7093               549.4135               549.4482
 Red. masses --      1.1833                 1.0471                 1.0471
 Frc consts  --      0.6315                 0.1862                 0.1862
 IR Inten    --      5.9592                 0.6928                 0.6930

                      4                      5                      6
                     A'                     A"                     A'
 Frequencies --   1047.1062              1152.9782              1152.9784
 Red. masses --      1.0806                 1.0437                 1.0437
 Frc consts  --      0.6981                 0.8175                 0.8175
 IR Inten    --      5.9770                 2.3237                 2.3239

                      7                      8                      9
                     A'                     A"                     A'
 Frequencies --   1422.2952              1422.3029              1962.5911
 Red. masses --      1.0782                 1.0782                 1.0572
 Frc consts  --      1.2850                 1.2850                 2.3992
 IR Inten    --      2.9637                 2.9638                37.7564

                     10                     11                     12
                     A'                     A"                     A'
 Frequencies --   3027.7102              3166.8376              3166.8923
 Red. masses --      1.0165                 1.1124                 1.1124
 Frc consts  --      5.4904                 6.5727                 6.5730
 IR Inten    --      0.3099                14.2282                14.2263

 - Thermochemistry -
 -------------------
 Temperature   298.150 Kelvin.  Pressure   1.00000 Atm.
 Atom     1 has atomic number  6 and mass  12.00000

 Molecular mass:    17.03913 amu.
 Principal axes and moments of inertia in atomic units:
                           1         2         3
     Eigenvalues --    12.29926  32.06029  32.06043
           X            0.00001   1.00000   0.00000
           Y            1.00000  -0.00001   0.00000
           Z            0.00000   0.00000   1.00000
 This molecule is an asymmetric top.
 Rotational symmetry number  1.
 Rotational temperatures (Kelvin)      7.04221     2.70160     2.70158
 Rotational constants (GHZ):         146.73576    56.29210    56.29185
    1 imaginary frequencies ignored.
 Zero-point vibrational energy     111375.6 (Joules/Mol)
                                   26.61942 (Kcal/Mol)
 Warning -- explicit consideration of   2 degrees of freedom as
           vibrations may cause significant error
 Vibrational temperatures:    790.48   790.53  1506.55  1658.88  1658.88
          (Kelvin)           2046.37  2046.38  2823.73  4356.20  4556.37
                             4556.45

 Zero-point correction=                           0.042421 (Hartree/Particle)
 Thermal correction to Energy=                    0.045719
 Thermal correction to Enthalpy=                  0.046663
 Thermal correction to Gibbs Free Energy=         0.020858
 Sum of electronic and zero-point Energies=            -40.918049
 Sum of electronic and thermal Energies=               -40.914751
 Sum of electronic and thermal Enthalpies=             -40.913807
 Sum of electronic and thermal Free Energies=          -40.939612

                     E (Thermal)             CV                S
                      KCal/Mol        Cal/Mol-Kelvin    Cal/Mol-Kelvin
 Total                   28.689              9.257             54.310
 Electronic               0.000              0.000              1.377
 Translational            0.889              2.981             34.443
 Rotational               0.889              2.981             17.187
 Vibrational             26.911              3.296              1.303
 Vibration     1          0.905              1.141              0.545
 Vibration     2          0.905              1.141              0.545

 Optimization completed.
    -- Stationary point found.
 Normal termination of Gaussian 16 at Wed Oct  7 14:51:23 2020.
