 Gaussian 16, Revision A.03,

 ----------------------------------------------------------------------
 #P Opt(TS,MaxCyc=50,NoEigenTest,MaxStep=10,AddRedundant) BLYP/6-31G* 5
 D 7F Integral=UltraFineGrid SCF=(NoSymm,XQC,MaxCyc=120) IOp(1/33=1)
 ----------------------------------------------------------------------

 TstMul:  Mul=     2
 TstMul:  ICh=     0
 TstMul:  Mul=     2
 Symbolic Z-matrix:
 Charge =  0 Multiplicity = 2

 SCF Done:  E(UB-LYP) =  -343.600542448     A.U. after   13 cycles
 SCF Done:  E(UB-LYP) =  -343.600611587     A.U. after   10 cycles
 SCF Done:  E(UB-LYP) =  -343.600571101     A.U. after   10 cycles
 SCF Done:  E(UB-LYP) =  -343.600031581     A.U. after   12 cycles
 SCF Done:  E(UB-LYP) =  -343.599651793     A.U. after   12 cycles
 SCF Done:  E(UB-LYP) =  -343.599347208     A.U. after   12 cycles
 SCF Done:  E(UB-LYP) =  -343.599078721     A.U. after   12 cycles
 SCF Done:  E(UB-LYP) =  -343.598816954     A.U. after   11 cycles
 SCF Done:  E(UB-LYP) =  -343.598583237     A.U. after   11 cycles
 SCF Done:  E(UB-LYP) =  -343.598399702     A.U. after   11 cycles
 SCF Done:  E(UB-LYP) =  -343.597862452     A.U. after    7 cycles
 SCF Done:  E(UB-LYP) =  -343.597862021     A.U. after    7 cycles
 SCF Done:  E(UB-LYP) =  -343.597861074     A.U. after    8 cycles
 SCF Done:  E(UB-LYP) =  -343.597857749     A.U. after   10 cycles
 SCF Done:  E(UB-LYP) =  -343.597856523     A.U. after    8 cycles
 SCF Done:  E(UB-LYP) =  -343.597854039     A.U. after    9 cycles
 SCF Done:  E(UB-LYP) =  -343.597850309     A.U. after   10 cycles
 SCF Done:  E(UB-LYP) =  -343.597847423     A.U. after   10 cycles
 SCF Done:  E(UB-LYP) =  -343.597846612     A.U. after    7 cycles
 Optimization completed.
    -- Stationary point found.
 Normal termination of Gaussian 16 at Sat Oct 10 18:17:42 2020.
 Gaussian 16:  ES64L-G16RevA.03 25-Dec-2016

 ----------------------------------------------------------------------
 #P Freq BLYP/6-31G* 5D 7F Integral=UltraFineGrid SCF=(NoSymm,XQC,MaxCy
 c=120) IOp(1/33=1) Geom=Check Guess=Read
 ----------------------------------------------------------------------

 TstMul:  Mul=     2
 TstMul:  ICh=     0
 TstMul:  Mul=     2
 Structure from the checkpoint file:  "MN_88_RKT12_BH76_BLYP_631Gs.chk"
 Charge =  0 Multiplicity = 2

                         Standard orientation:
 ---------------------------------------------------------------------
 Center     Atomic      Atomic             Coordinates (Angstroms)
 Number     Number       Type             X           Y           Z
 ---------------------------------------------------------------------
      1         15           0        0.270131   -0.000001   -0.108844
      2          1           0        0.264284    1.042574    0.880399
      3          1           0        0.269947   -1.038454    0.884742
      4          1           0       -1.166060   -0.004112   -0.214539
      5          1           0       -3.420131    0.000000    0.082056
 ---------------------------------------------------------------------

 SCF Done:  E(UB-LYP) =  -343.597846612     A.U. after    1 cycles

 The electronic state is 2-A.
 Alpha  occ. eigenvalues --  -76.36510  -6.30539  -4.53072  -4.53066  -4.52601
 Alpha  occ. eigenvalues --   -0.57895  -0.34098  -0.33837  -0.26706  -0.23373
 Alpha virt. eigenvalues --    0.00789   0.01046   0.08965   0.25477   0.25804
 Alpha virt. eigenvalues --    0.27679   0.36536   0.61648   0.61714   0.62621
 Alpha virt. eigenvalues --    0.63563   0.63799   0.73468   0.89180   1.06844

  Beta  occ. eigenvalues --  -76.36496  -6.30525  -4.53057  -4.53045  -4.52578
  Beta  occ. eigenvalues --   -0.57820  -0.33902  -0.33821  -0.23637
  Beta virt. eigenvalues --   -0.09049   0.00791   0.01460   0.09255   0.25468
  Beta virt. eigenvalues --    0.26036   0.27861   0.36514   0.61860   0.61888
  Beta virt. eigenvalues --    0.63689   0.63797   0.65031   0.86937   0.93543

 Mulliken charges and spin densities:
               1          2
     1  P   -0.099713   0.034043
     2  H    0.035647  -0.000458
     3  H    0.035639  -0.000459
     4  H    0.027761  -0.014440
     5  H    0.000665   0.981314
 Sum of Mulliken charges =  -0.00000   1.00000

 Dipole moment (field-independent basis, Debye):
    X=             -0.5570    Y=              0.0001    Z=              0.7527  Tot=              0.9364
 Quadrupole moment (field-independent basis, Debye-Ang):
   XX=            -16.9702   YY=            -15.9346   ZZ=            -17.3780
   XY=             -0.0002   XZ=              1.2277   YZ=             -0.0000

  Exact polarizability:  28.977  -0.003  21.884   0.909   0.001  20.062
 Approx polarizability:  44.186  -0.003  38.493   3.535   0.001  33.002

                      1                      2                      3
                      A                      A                      A
 Frequencies --     45.2398                98.1240               100.7136
 Red. masses --      1.0278                 1.0089                 1.0324
 Frc consts  --      0.0012                 0.0057                 0.0062
 IR Inten    --      1.5819                 3.0598                 6.6415

                      4                      5                      6
                      A                      A                      A
 Frequencies --   1029.1224              1133.3451              1134.6863
 Red. masses --      1.0750                 1.0250                 1.0249
 Frc consts  --      0.6708                 0.7757                 0.7775
 IR Inten    --     20.1624                11.3761                 8.6332

                      7                      8                      9
                      A                      A                      A
 Frequencies --   2281.6190              2321.2784              2331.1363
 Red. masses --      1.0363                 1.0368                 1.0406
 Frc consts  --      3.1786                 3.2915                 3.3316
 IR Inten    --     93.6862                91.5191               114.4366

 - Thermochemistry -
 -------------------
 Temperature   298.150 Kelvin.  Pressure   1.00000 Atm.
 Atom     1 has atomic number 15 and mass  30.97376

 Molecular mass:    35.00506 amu.
 Principal axes and moments of inertia in atomic units:
                           1         2         3
     Eigenvalues --    14.57868  60.50863  61.51628
           X            0.99981   0.00000   0.01941
           Y           -0.00000   1.00000  -0.00000
           Z           -0.01941   0.00000   0.99981
 This molecule is an asymmetric top.
 Rotational symmetry number  1.
 Rotational temperatures (Kelvin)      5.94114     1.43143     1.40798
 Rotational constants (GHZ):         123.79321    29.82618    29.33762
 Zero-point vibrational energy      62656.0 (Joules/Mol)
                                   14.97514 (Kcal/Mol)
 Warning -- explicit consideration of   3 degrees of freedom as
           vibrations may cause significant error
 Vibrational temperatures:     65.09   141.18   144.90  1480.68  1630.63
          (Kelvin)           1632.56  3282.74  3339.80  3353.99

 Zero-point correction=                           0.023864 (Hartree/Particle)
 Thermal correction to Energy=                    0.029090
 Thermal correction to Enthalpy=                  0.030034
 Thermal correction to Gibbs Free Energy=        -0.002627
 Sum of electronic and zero-point Energies=           -343.573982
 Sum of electronic and thermal Energies=              -343.568756
 Sum of electronic and thermal Enthalpies=            -343.567812
 Sum of electronic and thermal Free Energies=         -343.600473

                     E (Thermal)             CV                S
                      KCal/Mol        Cal/Mol-Kelvin    Cal/Mol-Kelvin
 Total                   18.254             12.701             68.741
 Electronic               0.000              0.000              1.377
 Translational            0.889              2.981             36.589
 Rotational               0.889              2.981             18.635
 Vibrational             16.477              6.740             12.140
 Vibration     1          0.595              1.979              5.015
 Vibration     2          0.604              1.950              3.491
 Vibration     3          0.604              1.949              3.440

                           ! Non-Optimized Parameters !
 Normal termination of Gaussian 16 at Sat Oct 10 18:17:50 2020.
