 Gaussian 16, Revision A.03,

 ----------------------------------------------------------------------
 #P Opt(TS,MaxCyc=50,NoEigenTest,MaxStep=10,AddRedundant) BLYP/6-31G* 5
 D 7F Integral=UltraFineGrid SCF=(NoSymm,XQC,MaxCyc=120) IOp(1/33=1)
 ----------------------------------------------------------------------

 TstMul:  Mul=     2
 TstMul:  ICh=     0
 TstMul:  Mul=     2
 Symbolic Z-matrix:
 Charge =  0 Multiplicity = 2

 SCF Done:  E(UB-LYP) =  -132.239115480     A.U. after   16 cycles
 SCF Done:  E(UB-LYP) =  -132.239165767     A.U. after   11 cycles
 SCF Done:  E(UB-LYP) =  -132.239166066     A.U. after   11 cycles
 SCF Done:  E(UB-LYP) =  -132.240383365     A.U. after   14 cycles
 SCF Done:  E(UB-LYP) =  -132.241009176     A.U. after   13 cycles
 SCF Done:  E(UB-LYP) =  -132.241034691     A.U. after   13 cycles
 SCF Done:  E(UB-LYP) =  -132.241036697     A.U. after   13 cycles
 SCF Done:  E(UB-LYP) =  -132.241047368     A.U. after   10 cycles
 SCF Done:  E(UB-LYP) =  -132.241052308     A.U. after   10 cycles
 SCF Done:  E(UB-LYP) =  -132.241054521     A.U. after   10 cycles
 SCF Done:  E(UB-LYP) =  -132.241056051     A.U. after    9 cycles
 SCF Done:  E(UB-LYP) =  -132.241057520     A.U. after    9 cycles
 SCF Done:  E(UB-LYP) =  -132.241059076     A.U. after    8 cycles
 SCF Done:  E(UB-LYP) =  -132.241060056     A.U. after    8 cycles
 SCF Done:  E(UB-LYP) =  -132.241060211     A.U. after    9 cycles
 Optimization completed.
    -- Stationary point found.

 1\1\GINC-NODE04\FTS\UBLYP\6-31G(d)\H4N1O1(2)\RPEVERATI\10-Oct-2020\0\\
 #P Opt(TS,MaxCyc=50,NoEigenTest,MaxStep=10,AddRedundant) BLYP/6-31G* 5
 D 7F Integral=UltraFineGrid SCF=(NoSymm,XQC,MaxCyc=120) IOp(1/33=1)\\T
 S search on BH76.\\0,2\N,-1.1601873,-0.0187761677,-0.1149897976\O,1.17
 76896575,-0.103363458,0.1386111226\H,-1.4078764391,-0.6187226655,0.688
 5565458\H,-1.3759527556,0.9461197769,0.1847890748\H,0.024558509,-0.152
 2803952,-0.3192417556\H,1.3923611488,0.859481322,0.1096583852\\Version
 =ES64L-G16RevA.03\State=2-A\HF=-132.2410602\S2=0.753173\S2-1=0.\S2A=0.

 Normal termination of Gaussian 16 at Sat Oct 10 18:15:19 2020.
 Gaussian 16:  ES64L-G16RevA.03 25-Dec-2016

 ----------------------------------------------------------------------
 #P Freq BLYP/6-31G* 5D 7F Integral=UltraFineGrid SCF=(NoSymm,XQC,MaxCy
 c=120) IOp(1/33=1) Geom=Check Guess=Read
 ----------------------------------------------------------------------

 TstMul:  Mul=     2
 TstMul:  ICh=     0
 TstMul:  Mul=     2
 Structure from the checkpoint file:  "MN_83_RKT07_BH76_BLYP_631Gs.chk"
 Charge =  0 Multiplicity = 2

                         Standard orientation:
 ---------------------------------------------------------------------
 Center     Atomic      Atomic             Coordinates (Angstroms)
 Number     Number       Type             X           Y           Z
 ---------------------------------------------------------------------
      1          7           0       -1.162961   -0.009009   -0.115715
      2          8           0        1.184265   -0.107902    0.018017
      3          1           0       -1.372124   -0.723626    0.600208
      4          1           0       -1.367578    0.898781    0.333169
      5          1           0        0.011631   -0.099502   -0.390140
      6          1           0        1.394680    0.850624    0.122634
 ---------------------------------------------------------------------

 SCF Done:  E(UB-LYP) =  -132.241060211     A.U. after    1 cycles

 The electronic state is 2-A.
 Alpha  occ. eigenvalues --  -18.78398 -14.04332  -0.87011  -0.77494  -0.44673
 Alpha  occ. eigenvalues --   -0.42756  -0.34610  -0.27540  -0.22516  -0.21921
 Alpha virt. eigenvalues --    0.03377   0.08320   0.11312   0.24559   0.57678
 Alpha virt. eigenvalues --    0.60151   0.65310   0.74412   0.77350   0.77794
 Alpha virt. eigenvalues --    0.81021   0.89023   0.92025   1.03960   1.19079

  Beta  occ. eigenvalues --  -18.77316 -14.03296  -0.84602  -0.75125  -0.43381
  Beta  occ. eigenvalues --   -0.41905  -0.33307  -0.24131  -0.21124
  Beta virt. eigenvalues --   -0.15890   0.03982   0.08815   0.11651   0.25373
  Beta virt. eigenvalues --    0.59496   0.60684   0.67939   0.75021   0.78316
  Beta virt. eigenvalues --    0.78881   0.81588   0.90151   0.93790   1.05345

 Mulliken charges and spin densities:
               1          2
     1  N   -0.725511   0.602310
     2  O   -0.652423   0.478010
     3  H    0.310712  -0.018948
     4  H    0.296900  -0.019356
     5  H    0.411052  -0.030072
     6  H    0.359270  -0.011945
 Sum of Mulliken charges =   0.00000   1.00000

 Dipole moment (field-independent basis, Debye):
    X=             -1.2474    Y=              1.7170    Z=              1.3208  Tot=              2.4997
 Quadrupole moment (field-independent basis, Debye-Ang):
   XX=            -13.8238   YY=            -10.8228   ZZ=            -14.0564
   XY=              1.9975   XZ=             -2.2590   YZ=              0.0193

  Exact polarizability:  40.906   1.251  15.706  -0.125   0.134  10.055
 Approx polarizability: 123.077  -2.643  23.718   6.678   0.066  14.358

 ******    1 imaginary frequencies (negative Signs) ******

                      1                      2                      3
                      A                      A                      A
 Frequencies --  -1063.6141               265.0874               412.0387
 Red. masses --      1.0386                 1.0621                 1.9428
 Frc consts  --      0.6922                 0.0440                 0.1943
 IR Inten    --     21.7800                72.7485                29.2545

                      4                      5                      6
                      A                      A                      A
 Frequencies --    505.4303               769.1525               849.6335
 Red. masses --      1.0378                 1.7619                 1.1605
 Frc consts  --      0.1562                 0.6141                 0.4936
 IR Inten    --     33.4698               147.9352                78.0437

                      7                      8                      9
                      A                      A                      A
 Frequencies --   1423.9761              1607.4299              1661.1017
 Red. masses --      1.1226                 1.0675                 1.0326
 Frc consts  --      1.3411                 1.6251                 1.6786
 IR Inten    --    118.6597                35.7009                16.5016

                     10                     11                     12
                      A                      A                      A
 Frequencies --   3323.6679              3421.9877              3545.9481
 Red. masses --      1.0498                 1.0903                 1.0661
 Frc consts  --      6.8325                 7.5225                 7.8976
 IR Inten    --      3.3727                 0.2029                12.8965

 - Thermochemistry -
 -------------------
 Temperature   298.150 Kelvin.  Pressure   1.00000 Atm.
 Atom     1 has atomic number  7 and mass  14.00307

 Molecular mass:    34.02929 amu.
 Principal axes and moments of inertia in atomic units:
                           1         2         3
     Eigenvalues --    10.78855 171.07279 176.17803
           X            0.99950   0.02024  -0.02436
           Y           -0.02018   0.99979   0.00274
           Z            0.02441  -0.00224   0.99970
 This molecule is an asymmetric top.
 Rotational symmetry number  1.
 Rotational temperatures (Kelvin)      8.02832     0.50630     0.49163
 Rotational constants (GHZ):         167.28294    10.54955    10.24385
    1 imaginary frequencies ignored.
 Zero-point vibrational energy     106380.6 (Joules/Mol)
                                   25.42558 (Kcal/Mol)
 Warning -- explicit consideration of   3 degrees of freedom as
           vibrations may cause significant error
 Vibrational temperatures:    381.40   592.83   727.20  1106.64  1222.43
          (Kelvin)           2048.78  2312.73  2389.95  4782.02  4923.48
                             5101.83

 Zero-point correction=                           0.040518 (Hartree/Particle)
 Thermal correction to Energy=                    0.044500
 Thermal correction to Enthalpy=                  0.045444
 Thermal correction to Gibbs Free Energy=         0.016023
 Sum of electronic and zero-point Energies=           -132.200542
 Sum of electronic and thermal Energies=              -132.196560
 Sum of electronic and thermal Enthalpies=            -132.195616
 Sum of electronic and thermal Free Energies=         -132.225037

                     E (Thermal)             CV                S
                      KCal/Mol        Cal/Mol-Kelvin    Cal/Mol-Kelvin
 Total                   27.924             11.847             61.922
 Electronic               0.000              0.000              1.377
 Translational            0.889              2.981             36.505
 Rotational               0.889              2.981             20.414
 Vibrational             26.147              5.885              3.626
 Vibration     1          0.671              1.737              1.628
 Vibration     2          0.776              1.444              0.919
 Vibration     3          0.861              1.238              0.645

 Optimization completed.
    -- Stationary point found.
 Normal termination of Gaussian 16 at Sat Oct 10 18:15:31 2020.
