 Gaussian 16, Revision A.03,

 ----------------------------------------------------------------------
 #P Opt(TS,MaxCyc=50,NoEigenTest,MaxStep=10,AddRedundant) BLYP/6-31G* 5
 D 7F Integral=UltraFineGrid SCF=(NoSymm,XQC,MaxCyc=120) IOp(1/33=1)
 ----------------------------------------------------------------------

 TstMul:  Mul=     2
 TstMul:  ICh=     0
 TstMul:  Mul=     2
 Symbolic Z-matrix:
 Charge =  0 Multiplicity = 2

 SCF Done:  E(UB-LYP) =  -399.851692394     A.U. after   13 cycles
 SCF Done:  E(UB-LYP) =  -399.852546563     A.U. after   11 cycles
 SCF Done:  E(UB-LYP) =  -399.853463204     A.U. after   12 cycles
 SCF Done:  E(UB-LYP) =  -399.852363944     A.U. after   12 cycles
 SCF Done:  E(UB-LYP) =  -399.851454466     A.U. after   12 cycles
 SCF Done:  E(UB-LYP) =  -399.850758999     A.U. after   12 cycles
 SCF Done:  E(UB-LYP) =  -399.850240981     A.U. after   12 cycles
 SCF Done:  E(UB-LYP) =  -399.849862388     A.U. after   12 cycles
 SCF Done:  E(UB-LYP) =  -399.849594665     A.U. after   12 cycles
 SCF Done:  E(UB-LYP) =  -399.849413322     A.U. after   12 cycles
 SCF Done:  E(UB-LYP) =  -399.849298172     A.U. after   11 cycles
 SCF Done:  E(UB-LYP) =  -399.849232518     A.U. after   11 cycles
 SCF Done:  E(UB-LYP) =  -399.849202397     A.U. after   11 cycles
 SCF Done:  E(UB-LYP) =  -399.849196609     A.U. after   11 cycles
 SCF Done:  E(UB-LYP) =  -399.849196096     A.U. after    9 cycles
 SCF Done:  E(UB-LYP) =  -399.849196080     A.U. after    8 cycles
 Optimization completed.
    -- Stationary point found.
 Normal termination of Gaussian 16 at Wed Oct  7 14:53:11 2020.
 Gaussian 16:  ES64L-G16RevA.03 25-Dec-2016

 ----------------------------------------------------------------------
 #P Freq BLYP/6-31G* 5D 7F Integral=UltraFineGrid SCF=(NoSymm,XQC,MaxCy
 c=120) IOp(1/33=1) Geom=Check Guess=Read
 ----------------------------------------------------------------------

 TstMul:  Mul=     2
 TstMul:  ICh=     0
 TstMul:  Mul=     2
 Structure from the checkpoint file:  "MN_90_RKT16_BH76_BLYP_631Gs.chk"
 Charge =  0 Multiplicity = 2

                         Standard orientation:
 ---------------------------------------------------------------------
 Center     Atomic      Atomic             Coordinates (Angstroms)
 Number     Number       Type             X           Y           Z
 ---------------------------------------------------------------------
      1          1           0        1.305898   -0.145104    0.000000
      2         16           0       -0.000000    0.243530    0.000000
      3          1           0       -0.443901   -1.066119    0.000000
      4          1           0       -0.861997   -2.685264    0.000000
 ---------------------------------------------------------------------

 SCF Done:  E(UB-LYP) =  -399.849196080     A.U. after    1 cycles

 The electronic state is 2-A'.
 Alpha  occ. eigenvalues --  -88.11589  -7.67808  -5.70966  -5.70632  -5.69705
 Alpha  occ. eigenvalues --   -0.67067  -0.40504  -0.33194  -0.26877  -0.21587
 Alpha virt. eigenvalues --   -0.00227   0.04636   0.29565   0.30745   0.32007
 Alpha virt. eigenvalues --    0.33568   0.65687   0.68476   0.69787   0.70876
 Alpha virt. eigenvalues --    0.71553   0.77498   0.94689   1.11187
  Beta  occ. eigenvalues --  -88.11529  -7.67750  -5.70868  -5.70528  -5.69669
  Beta  occ. eigenvalues --   -0.66748  -0.39987  -0.32305  -0.21456
  Beta virt. eigenvalues --   -0.13764   0.00180   0.06074   0.29745   0.31220
  Beta virt. eigenvalues --    0.32449   0.33595   0.65891   0.69167   0.71196
  Beta virt. eigenvalues --    0.71928   0.77748   0.87381   0.94726   1.11409

 Mulliken charges and spin densities:
               1          2
     1  H    0.113116  -0.002069
     2  S   -0.193423   0.104757
     3  H    0.060145  -0.031260
     4  H    0.020163   0.928572
 Sum of Mulliken charges =  -0.00000   1.00000

 Dipole moment (field-independent basis, Debye):
    X=              0.6292    Y=             -1.2929    Z=              0.0000  Tot=              1.4378
 Quadrupole moment (field-independent basis, Debye-Ang):
   XX=            -13.7305   YY=            -14.5754   ZZ=            -17.8791
   XY=              0.6213   XZ=              0.0000   YZ=              0.0000

  Exact polarizability:  18.438   4.414  28.788   0.000   0.000  11.136
 Approx polarizability:  31.267   6.468  44.087   0.000   0.000  15.513

 ******    1 imaginary frequencies (negative Signs) ******

                      1                      2                      3
                     A'                     A'                     A"
 Frequencies --   -229.5874               249.3826               251.7875
 Red. masses --      1.0305                 1.0173                 1.0167
 Frc consts  --      0.0320                 0.0373                 0.0380
 IR Inten    --      6.9675                 9.5683                16.8367

                      4                      5                      6
                     A'                     A'                     A'
 Frequencies --   1196.7190              2266.6974              2593.1905
 Red. masses --      1.0392                 1.0423                 1.0380
 Frc consts  --      0.8768                 3.1551                 4.1127
 IR Inten    --      3.3773                 5.6514                16.9689

 - Thermochemistry -
 -------------------
 Temperature   298.150 Kelvin.  Pressure   1.00000 Atm.
 Atom     1 has atomic number  1 and mass   1.00783

 Molecular mass:    34.99555 amu.
 Principal axes and moments of inertia in atomic units:
                           1         2         3
     Eigenvalues --     6.49240  38.39782  44.89021
           X            0.30810   0.95135   0.00000
           Y            0.95135  -0.30810   0.00000
           Z            0.00000   0.00000   1.00000
 This molecule is an asymmetric top.
 Rotational symmetry number  1.
 Rotational temperatures (Kelvin)     13.34083     2.25570     1.92946
 Rotational constants (GHZ):         277.97773    47.00114    40.20345
    1 imaginary frequencies ignored.
 Zero-point vibrational energy      39224.2 (Joules/Mol)
                                    9.37481 (Kcal/Mol)
 Warning -- explicit consideration of   2 degrees of freedom as
           vibrations may cause significant error
 Vibrational temperatures:    358.81   362.27  1721.81  3261.27  3731.02
          (Kelvin)

 Zero-point correction=                           0.014940 (Hartree/Particle)
 Thermal correction to Energy=                    0.018761
 Thermal correction to Enthalpy=                  0.019705
 Thermal correction to Gibbs Free Energy=        -0.008103
 Sum of electronic and zero-point Energies=           -399.834256
 Sum of electronic and thermal Energies=              -399.830435
 Sum of electronic and thermal Enthalpies=            -399.829491
 Sum of electronic and thermal Free Energies=         -399.857299

                     E (Thermal)             CV                S
                      KCal/Mol        Cal/Mol-Kelvin    Cal/Mol-Kelvin
 Total                   11.773              9.698             58.527
 Electronic               0.000              0.000              1.377
 Translational            0.889              2.981             36.588
 Rotational               0.889              2.981             17.066
 Vibrational              9.995              3.736              3.495
 Vibration     1          0.662              1.764              1.735
 Vibration     2          0.664              1.760              1.718

 Optimization completed.
    -- Stationary point found.
 Normal termination of Gaussian 16 at Wed Oct  7 14:53:38 2020.
