 Gaussian 16, Revision A.03,

 ----------------------------------------------------------------------
 #P Opt(TS,MaxCyc=50,NoEigenTest,MaxStep=10,AddRedundant) BLYP/6-31G* 5
 D 7F Integral=UltraFineGrid SCF=(NoSymm,XQC,MaxCyc=120) IOp(1/33=1)
 ----------------------------------------------------------------------

 TstMul:  Mul=     3
 TstMul:  ICh=     0
 TstMul:  Mul=     3
 Symbolic Z-matrix:
 Charge =  0 Multiplicity = 3

 SCF Done:  E(UB-LYP) =  -134.939568270     A.U. after   15 cycles
 SCF Done:  E(UB-LYP) =  -134.940069928     A.U. after   12 cycles
 SCF Done:  E(UB-LYP) =  -134.941321544     A.U. after   13 cycles
 SCF Done:  E(UB-LYP) =  -134.941705194     A.U. after   12 cycles
 SCF Done:  E(UB-LYP) =  -134.942026431     A.U. after   13 cycles
 SCF Done:  E(UB-LYP) =  -134.942465038     A.U. after   13 cycles
 SCF Done:  E(UB-LYP) =  -134.942043358     A.U. after   15 cycles
 SCF Done:  E(UB-LYP) =  -134.941796428     A.U. after   15 cycles
 SCF Done:  E(UB-LYP) =  -134.941669474     A.U. after   15 cycles
 SCF Done:  E(UB-LYP) =  -134.941816890     A.U. after   12 cycles
 SCF Done:  E(UB-LYP) =  -134.941527260     A.U. after    8 cycles
 SCF Done:  E(UB-LYP) =  -134.941528363     A.U. after    9 cycles
 SCF Done:  E(UB-LYP) =  -134.941532871     A.U. after   11 cycles
 SCF Done:  E(UB-LYP) =  -134.941599929     A.U. after   15 cycles
 SCF Done:  E(UB-LYP) =  -134.941641635     A.U. after   15 cycles
 SCF Done:  E(UB-LYP) =  -134.941666712     A.U. after   12 cycles
 SCF Done:  E(UB-LYP) =  -134.941678535     A.U. after   13 cycles
 SCF Done:  E(UB-LYP) =  -134.941679348     A.U. after   10 cycles
 SCF Done:  E(UB-LYP) =  -134.941679519     A.U. after    9 cycles
 Optimization completed.
    -- Stationary point found.

 1\1\GINC-NODE13\FTS\UBLYP\6-31G(d)\C2H7N1(3)\RPEVERATI\07-Oct-2020\0\\
 #P Opt(TS,MaxCyc=50,NoEigenTest,MaxStep=10,AddRedundant) BLYP/6-31G* 5
 D 7F Integral=UltraFineGrid SCF=(NoSymm,XQC,MaxCyc=120) IOp(1/33=1)\\T
 S search on BH76.\\0,3\C,-1.4341827929,-0.4482993994,-0.0053554261\C,-
 0.4446929899,0.6997449825,-0.0197549688\N,2.0101533611,-0.3308381169,0
 .0379844658\H,-1.3061531956,-1.1078708729,-0.8804303794\H,-1.330314914
 7,-1.0646284672,0.9037670757\H,-2.4793054216,-0.0758461839,-0.02858819
 63\H,-0.4029024791,1.2895277616,-0.9469125297\H,-0.4267958481,1.333023

 Normal termination of Gaussian 16 at Wed Oct  7 14:58:10 2020.
 Gaussian 16:  ES64L-G16RevA.03 25-Dec-2016

 ----------------------------------------------------------------------
 #P Freq BLYP/6-31G* 5D 7F Integral=UltraFineGrid SCF=(NoSymm,XQC,MaxCy
 c=120) IOp(1/33=1) Geom=Check Guess=Read
 ----------------------------------------------------------------------

 TstMul:  Mul=     3
 TstMul:  ICh=     0
 TstMul:  Mul=     3
 Structure from the checkpoint file:  "MN_93_RKT19_BH76_BLYP_631Gs.chk"
 Charge =  0 Multiplicity = 3

                         Standard orientation:
 ---------------------------------------------------------------------
 Center     Atomic      Atomic             Coordinates (Angstroms)
 Number     Number       Type             X           Y           Z
 ---------------------------------------------------------------------
      1          6           0       -1.451661   -0.431819   -0.000460
      2          6           0       -0.442700    0.699242    0.000510
      3          7           0        1.994465   -0.374037    0.000776
      4          1           0       -1.346139   -1.071515   -0.893118
      5          1           0       -1.347003   -1.072234    0.891767
      6          1           0       -2.490388   -0.041192   -0.000859
      7          1           0       -0.402421    1.311095   -0.912302
      8          1           0       -0.402485    1.309586    0.914348
      9          1           0        0.861718    0.047667    0.001015
     10          1           0        2.531629    0.530315   -0.006583
 ---------------------------------------------------------------------

 SCF Done:  E(UB-LYP) =  -134.941679519     A.U. after    1 cycles

 The electronic state is 3-A.
 Alpha  occ. eigenvalues --  -14.04646  -9.92627  -9.91529  -0.74048  -0.67275
 Alpha  occ. eigenvalues --   -0.54431  -0.40139  -0.39143  -0.34810  -0.33156
 Alpha  occ. eigenvalues --   -0.30681  -0.28067  -0.24127  -0.16513
 Alpha virt. eigenvalues --    0.06894   0.09137   0.11605   0.12196   0.14000
 Alpha virt. eigenvalues --    0.16487   0.20795   0.24631   0.45488   0.48787
 Alpha virt. eigenvalues --    0.51269   0.54462   0.56875   0.60658   0.65992

  Beta  occ. eigenvalues --  -14.02197  -9.91743  -9.91552  -0.68679  -0.65757
  Beta  occ. eigenvalues --   -0.53200  -0.38719  -0.38170  -0.33687  -0.32608
  Beta  occ. eigenvalues --   -0.30383  -0.24390
  Beta virt. eigenvalues --   -0.12744  -0.10366   0.07683   0.09870   0.12331
  Beta virt. eigenvalues --    0.12439   0.14303   0.16953   0.21497   0.26896
  Beta virt. eigenvalues --    0.46064   0.49585   0.51795   0.57247   0.59791

 Mulliken charges and spin densities:
               1          2
     1  C   -0.385112  -0.027517
     2  C   -0.382592   0.644613
     3  N   -0.487405   1.471583
     4  H    0.145041   0.006614
     5  H    0.145095   0.006574
     6  H    0.141804   0.041098
     7  H    0.142190  -0.017274
     8  H    0.142291  -0.017240
     9  H    0.275335  -0.066036
    10  H    0.263354  -0.042415
 Sum of Mulliken charges =   0.00000   2.00000

 Dipole moment (field-independent basis, Debye):
    X=             -0.9043    Y=              1.5588    Z=             -0.0092  Tot=              1.8021
 Quadrupole moment (field-independent basis, Debye-Ang):
   XX=            -21.6139   YY=            -21.8240   ZZ=            -20.6464
   XY=              3.8262   XZ=             -0.0243   YZ=              0.0015

  Exact polarizability:  55.881  -2.789  32.512  -0.019  -0.026  26.071
 Approx polarizability:  89.973 -12.567  51.571  -0.015  -0.053  39.111

 ******    1 imaginary frequencies (negative Signs) ******

                      1                      2                      3
                      A                      A                      A
 Frequencies --  -1139.1415                57.7156               136.8342
 Red. masses --      1.1497                 1.0808                 2.8369
 Frc consts  --      0.8790                 0.0021                 0.0313
 IR Inten    --    195.2884                62.8310                 4.1065

                      4                      5                      6
                      A                      A                      A
 Frequencies --    158.7217               452.4739               470.7270
 Red. masses --      1.1034                 1.0703                 1.8733
 Frc consts  --      0.0164                 0.1291                 0.2446
 IR Inten    --      0.9466                 3.4858                 8.5832

                      7                      8                      9
                      A                      A                      A
 Frequencies --    720.6700               816.9215               897.2210
 Red. masses --      1.4497                 1.0489                 1.1578
 Frc consts  --      0.4436                 0.4124                 0.5491
 IR Inten    --     11.1665                 7.5497                32.2050

                     10                     11                     12
                      A                      A                      A
 Frequencies --   1025.9778              1132.3906              1160.7698
 Red. masses --      3.1486                 1.0974                 1.4842
 Frc consts  --      1.9527                 0.8291                 1.1782
 IR Inten    --      0.7916                27.0381                10.1923

                     13                     14                     15
                      A                      A                      A
 Frequencies --   1209.8787              1393.0032              1450.0381
 Red. masses --      1.3376                 1.1954                 1.1075
 Frc consts  --      1.1536                 1.3667                 1.3720
 IR Inten    --      4.3336                 2.8154                 8.0351

                     16                     17                     18
                      A                      A                      A
 Frequencies --   1472.2044              1477.4230              1482.3775
 Red. masses --      1.0809                 1.0372                 1.0518
 Frc consts  --      1.3803                 1.3339                 1.3617
 IR Inten    --     59.8794                 4.8088                14.6710

                     19                     20                     21
                      A                      A                      A
 Frequencies --   2923.3239              2998.3318              3019.3854
 Red. masses --      1.0546                 1.0757                 1.0539
 Frc consts  --      5.3102                 5.6977                 5.6607
 IR Inten    --     25.1278                13.4462                29.7503

                     22                     23                     24
                      A                      A                      A
 Frequencies --   3033.1653              3094.2314              3165.5304
 Red. masses --      1.1024                 1.1118                 1.0724
 Frc consts  --      5.9756                 6.2714                 6.3316
 IR Inten    --     16.2417                37.4927                30.7641

 - Thermochemistry -
 -------------------
 Temperature   298.150 Kelvin.  Pressure   1.00000 Atm.
 Atom     1 has atomic number  6 and mass  12.00000

 Molecular mass:    45.05785 amu.
 Principal axes and moments of inertia in atomic units:
                           1         2         3
     Eigenvalues --    68.80950 371.55031 416.88499
           X            0.99927   0.03821  -0.00014
           Y           -0.03821   0.99927  -0.00015
           Z            0.00013   0.00015   1.00000
 This molecule is an asymmetric top.
 Rotational symmetry number  1.
 Rotational temperatures (Kelvin)      1.25875     0.23311     0.20776
 Rotational constants (GHZ):          26.22808     4.85733     4.32911
    1 imaginary frequencies ignored.
 Zero-point vibrational energy     201865.7 (Joules/Mol)
                                   48.24707 (Kcal/Mol)
 Warning -- explicit consideration of   5 degrees of freedom as
           vibrations may cause significant error
 Vibrational temperatures:     83.04   196.87   228.37   651.01   677.27
          (Kelvin)           1036.88  1175.37  1290.90  1476.15  1629.26
                             1670.09  1740.75  2004.22  2086.28  2118.17
                             2125.68  2132.81  4206.01  4313.93  4344.22
                             4364.05  4451.91  4554.49

 Zero-point correction=                           0.076887 (Hartree/Particle)
 Thermal correction to Energy=                    0.082695
 Thermal correction to Enthalpy=                  0.083639
 Thermal correction to Gibbs Free Energy=         0.047627
 Sum of electronic and zero-point Energies=           -134.864793
 Sum of electronic and thermal Energies=              -134.858985
 Sum of electronic and thermal Enthalpies=            -134.858040
 Sum of electronic and thermal Free Energies=         -134.894052

                     E (Thermal)             CV                S
                      KCal/Mol        Cal/Mol-Kelvin    Cal/Mol-Kelvin
 Total                   51.892             17.808             75.793
 Electronic               0.000              0.000              2.183
 Translational            0.889              2.981             37.342
 Rotational               0.889              2.981             23.881
 Vibrational             50.114             11.847             12.387
 Vibration     1          0.596              1.974              4.534
 Vibration     2          0.614              1.917              2.848
 Vibration     3          0.621              1.893              2.565
 Vibration     4          0.811              1.355              0.788
 Vibration     5          0.828              1.315              0.736

                           ! Non-Optimized Parameters !
 Normal termination of Gaussian 16 at Wed Oct  7 14:58:44 2020.
