 Gaussian 16, Revision A.03,

 ----------------------------------------------------------------------
 #P Opt(TS,MaxCyc=50,NoEigenTest,MaxStep=10,AddRedundant) BLYP/6-31G* 5
 D 7F Integral=UltraFineGrid SCF=(NoSymm,XQC,MaxCyc=120) IOp(1/33=1)
 ----------------------------------------------------------------------

 TstMul:  Mul=     3
 TstMul:  ICh=     0
 TstMul:  Mul=     3
 Symbolic Z-matrix:
 Charge =  0 Multiplicity = 3

 SCF Done:  E(UB-LYP) =  -535.828367505     A.U. after   18 cycles
 SCF Done:  E(UB-LYP) =  -535.828382722     A.U. after   11 cycles
 SCF Done:  E(UB-LYP) =  -535.828462023     A.U. after   11 cycles
 SCF Done:  E(UB-LYP) =  -535.827740352     A.U. after   14 cycles
 SCF Done:  E(UB-LYP) =  -535.826540416     A.U. after   15 cycles
 SCF Done:  E(UB-LYP) =  -535.825408410     A.U. after   15 cycles
 SCF Done:  E(UB-LYP) =  -535.824379404     A.U. after   15 cycles
 SCF Done:  E(UB-LYP) =  -535.823473534     A.U. after   15 cycles
 SCF Done:  E(UB-LYP) =  -535.822707942     A.U. after   16 cycles
 SCF Done:  E(UB-LYP) =  -535.822089879     A.U. after   15 cycles
 SCF Done:  E(UB-LYP) =  -535.820995009     A.U. after   20 cycles
 SCF Done:  E(UB-LYP) =  -535.820969916     A.U. after   18 cycles
 SCF Done:  E(UB-LYP) =  -535.820959029     A.U. after   17 cycles
 SCF Done:  E(UB-LYP) =  -535.820939060     A.U. after   19 cycles
 SCF Done:  E(UB-LYP) =  -535.820931370     A.U. after   19 cycles
 SCF Done:  E(UB-LYP) =  -535.820928653     A.U. after   18 cycles
 SCF Done:  E(UB-LYP) =  -535.820929265     A.U. after   12 cycles
 SCF Done:  E(UB-LYP) =  -535.820929204     A.U. after   12 cycles
 SCF Done:  E(UB-LYP) =  -535.820929194     A.U. after   11 cycles
 Optimization completed.
    -- Stationary point found.
 Normal termination of Gaussian 16 at Wed Oct  7 14:56:30 2020.
 Gaussian 16:  ES64L-G16RevA.03 25-Dec-2016

 ----------------------------------------------------------------------
 #P Freq BLYP/6-31G* 5D 7F Integral=UltraFineGrid SCF=(NoSymm,XQC,MaxCy
 c=120) IOp(1/33=1) Geom=Check Guess=Read
 ----------------------------------------------------------------------

 TstMul:  Mul=     3
 TstMul:  ICh=     0
 TstMul:  Mul=     3
 Structure from the checkpoint file:  "MN_91_RKT17_BH76_BLYP_631Gs.chk"
 Charge =  0 Multiplicity = 3

                         Standard orientation:
 ---------------------------------------------------------------------
 Center     Atomic      Atomic             Coordinates (Angstroms)
 Number     Number       Type             X           Y           Z
 ---------------------------------------------------------------------
      1          8           0        0.005923    2.080712   -0.000000
      2         17           0        0.005923   -0.998332   -0.000000
      3          1           0       -0.148083    0.325942    0.000000
 ---------------------------------------------------------------------

 SCF Done:  E(UB-LYP) =  -535.820929194     A.U. after    1 cycles

 The electronic state is 3-A".
 Alpha  occ. eigenvalues -- -100.73024 -18.96068  -9.17652  -7.00828  -6.99974
 Alpha  occ. eigenvalues --   -6.99944  -0.92921  -0.75677  -0.42731  -0.39989
 Alpha  occ. eigenvalues --   -0.39734  -0.32712  -0.28030  -0.27966
 Alpha virt. eigenvalues --    0.02816   0.35296   0.38484   0.40194   0.40247
 Alpha virt. eigenvalues --    0.69330   0.71797   0.73465   0.78288   0.78446
 Alpha virt. eigenvalues --    0.80868   0.80869   0.81329   1.06781   1.21613

  Beta  occ. eigenvalues -- -100.72962 -18.91864  -9.17597  -7.00800  -6.99864
  Beta  occ. eigenvalues --   -6.99850  -0.81550  -0.75229  -0.41989  -0.28889
  Beta  occ. eigenvalues --   -0.27726  -0.27708
  Beta virt. eigenvalues --   -0.25580  -0.25527   0.03439   0.35429   0.38690
  Beta virt. eigenvalues --    0.40502   0.40520   0.72534   0.78472   0.78472
  Beta virt. eigenvalues --    0.81369   0.81396   0.81528   0.81545   0.84595

 Mulliken charges and spin densities:
               1          2
     1  O    0.005267   1.916833
     2  Cl  -0.214927   0.101135
     3  H    0.209660  -0.017967
 Sum of Mulliken charges =   0.00000   2.00000

 Dipole moment (field-independent basis, Debye):
    X=             -0.1850    Y=              1.5295    Z=              0.0000  Tot=              1.5407
 Quadrupole moment (field-independent basis, Debye-Ang):
   XX=            -18.4866   YY=            -18.6915   ZZ=            -18.4672
   XY=             -0.4065   XZ=              0.0000   YZ=              0.0000

  Exact polarizability:   8.714   0.006  59.668  -0.000  -0.000   8.643
 Approx polarizability:  12.014   0.288 340.421  -0.000  -0.000  11.853

 ******    1 imaginary frequencies (negative Signs) ******

                      1                      2                      3
                     A'                     A'                     A'
 Frequencies --   -106.7670               219.2616              2304.0864
 Red. masses --      2.3069                 1.6510                 1.0427
 Frc consts  --      0.0155                 0.0468                 3.2615
 IR Inten    --     37.8168                31.7182                 1.6975

 - Thermochemistry -
 -------------------
 Temperature   298.150 Kelvin.  Pressure   1.00000 Atm.
 Atom     1 has atomic number  8 and mass  15.99491

 Molecular mass:    51.97159 amu.
 Principal axes and moments of inertia in atomic units:
                           1         2         3
     Eigenvalues --     0.08360 372.01417 372.09778
           X           -0.00052   1.00000   0.00000
           Y            1.00000   0.00052   0.00000
           Z            0.00000   0.00000   1.00000
 This molecule is an asymmetric top.
 Rotational symmetry number  1.
 Rotational temperatures (Kelvin)   1036.00533     0.23282     0.23277
 Rotational constants (GHZ):       21586.84732     4.85127     4.85018
    1 imaginary frequencies ignored.
 Zero-point vibrational energy      15093.0 (Joules/Mol)
                                    3.60731 (Kcal/Mol)
 Warning -- explicit consideration of   1 degrees of freedom as
           vibrations may cause significant error
 Vibrational temperatures:    315.47  3315.07
          (Kelvin)

 Zero-point correction=                           0.005749 (Hartree/Particle)
 Thermal correction to Energy=                    0.009112
 Thermal correction to Enthalpy=                  0.010057
 Thermal correction to Gibbs Free Energy=        -0.017983
 Sum of electronic and zero-point Energies=           -535.815181
 Sum of electronic and thermal Energies=              -535.811817
 Sum of electronic and thermal Enthalpies=            -535.810873
 Sum of electronic and thermal Free Energies=         -535.838913

                     E (Thermal)             CV                S
                      KCal/Mol        Cal/Mol-Kelvin    Cal/Mol-Kelvin
 Total                    5.718              7.777             59.015
 Electronic               0.000              0.000              2.183
 Translational            0.889              2.981             37.767
 Rotational               0.889              2.981             17.099
 Vibrational              3.941              1.815              1.966
 Vibration     1          0.647              1.812              1.965

 Optimization completed.
    -- Stationary point found.
 Normal termination of Gaussian 16 at Wed Oct  7 14:57:00 2020.
