 Gaussian 16, Revision A.03,

 ----------------------------------------------------------------------
 #P Opt(TS,MaxCyc=50,NoEigenTest,MaxStep=10,AddRedundant) BLYP/6-31G* 5
 D 7F Integral=UltraFineGrid SCF=(NoSymm,XQC,MaxCyc=120) IOp(1/33=1)
 ----------------------------------------------------------------------

 TstMul:  Mul=     3
 TstMul:  ICh=     0
 TstMul:  Mul=     3
 Symbolic Z-matrix:
 Charge =  0 Multiplicity = 3

 SCF Done:  E(UB-LYP) =  -95.6526476538     A.U. after   13 cycles
 SCF Done:  E(UB-LYP) =  -95.6529716306     A.U. after   12 cycles
 SCF Done:  E(UB-LYP) =  -95.6537747813     A.U. after   13 cycles
 SCF Done:  E(UB-LYP) =  -95.6532609219     A.U. after   12 cycles
 SCF Done:  E(UB-LYP) =  -95.6530509784     A.U. after   14 cycles
 SCF Done:  E(UB-LYP) =  -95.6529651533     A.U. after   14 cycles
 SCF Done:  E(UB-LYP) =  -95.6528465407     A.U. after   13 cycles
 SCF Done:  E(UB-LYP) =  -95.6527693202     A.U. after   14 cycles
 SCF Done:  E(UB-LYP) =  -95.6527670281     A.U. after   12 cycles
 SCF Done:  E(UB-LYP) =  -95.6527703596     A.U. after    9 cycles
 SCF Done:  E(UB-LYP) =  -95.6527848077     A.U. after   14 cycles
 SCF Done:  E(UB-LYP) =  -95.6528856653     A.U. after   12 cycles
 SCF Done:  E(UB-LYP) =  -95.6527858666     A.U. after   12 cycles
 SCF Done:  E(UB-LYP) =  -95.6527590031     A.U. after   12 cycles
 SCF Done:  E(UB-LYP) =  -95.6527660507     A.U. after   13 cycles
 SCF Done:  E(UB-LYP) =  -95.6528082829     A.U. after   14 cycles
 SCF Done:  E(UB-LYP) =  -95.6528212094     A.U. after   13 cycles
 SCF Done:  E(UB-LYP) =  -95.6528323349     A.U. after    9 cycles
 SCF Done:  E(UB-LYP) =  -95.6528379853     A.U. after   11 cycles
 Optimization completed.
    -- Stationary point found.

 1\1\GINC-NODE34\FTS\UBLYP\6-31G(d)\C1H5N1(3)\RPEVERATI\07-Oct-2020\0\\
 #P Opt(TS,MaxCyc=50,NoEigenTest,MaxStep=10,AddRedundant) BLYP/6-31G* 5
 D 7F Integral=UltraFineGrid SCF=(NoSymm,XQC,MaxCyc=120) IOp(1/33=1)\\T
 S search on BH76.\\0,3\C,-1.2447547217,-0.0111039037,0.0014104264\N,1.
 4375048546,0.1189578605,-0.0301414985\H,-1.4345409377,-0.5310114564,0.
 9464786488\H,-1.453824543,-0.5926395629,-0.9028856774\H,-1.568835847,1
 .0346280617,-0.0303968619\H,0.2718459143,0.1761814375,-0.0241855647\H,
 1.586203136,-0.9185580776,0.0397817626\\Version=ES64L-G16RevA.03\State

 Normal termination of Gaussian 16 at Wed Oct  7 14:54:58 2020.
 Gaussian 16:  ES64L-G16RevA.03 25-Dec-2016

 ----------------------------------------------------------------------
 #P Freq BLYP/6-31G* 5D 7F Integral=UltraFineGrid SCF=(NoSymm,XQC,MaxCy
 c=120) IOp(1/33=1) Geom=Check Guess=Read
 ----------------------------------------------------------------------

 TstMul:  Mul=     3
 TstMul:  ICh=     0
 TstMul:  Mul=     3
 Structure from the checkpoint file:  "MN_92_RKT18_BH76_BLYP_631Gs.chk"
 Charge =  0 Multiplicity = 3

                         Standard orientation:
 ---------------------------------------------------------------------
 Center     Atomic      Atomic             Coordinates (Angstroms)
 Number     Number       Type             X           Y           Z
 ---------------------------------------------------------------------
      1          6           0       -1.244475   -0.012784    0.000052
      2          7           0        1.437377    0.128980    0.000096
      3          1           0       -1.439742   -0.597256    0.905447
      4          1           0       -1.443710   -0.531403   -0.943868
      5          1           0       -1.572716    1.031459    0.037603
      6          1           0        0.271477    0.181381    0.000172
      7          1           0        1.589898   -0.910336   -0.000341
 ---------------------------------------------------------------------

 SCF Done:  E(UB-LYP) =  -95.6528379853     A.U. after    1 cycles

 The electronic state is 3-A.
 Alpha  occ. eigenvalues --  -14.05215  -9.92640  -0.74920  -0.61471  -0.40015
 Alpha  occ. eigenvalues --   -0.36355  -0.36232  -0.28830  -0.24756  -0.17985
 Alpha virt. eigenvalues --    0.06689   0.09698   0.13992   0.14137   0.23274
 Alpha virt. eigenvalues --    0.47280   0.47337   0.50814   0.63880   0.64989
 Alpha virt. eigenvalues --    0.67195   0.76914   0.83039   0.83117   0.83393

  Beta  occ. eigenvalues --  -14.02829  -9.91684  -0.69253  -0.59176  -0.37786
  Beta  occ. eigenvalues --   -0.35639  -0.35462  -0.24983
  Beta virt. eigenvalues --   -0.13401  -0.11394   0.07747   0.10730   0.14615
  Beta virt. eigenvalues --    0.14757   0.25636   0.48171   0.48803   0.55054
  Beta virt. eigenvalues --    0.67705   0.68435   0.71372   0.78182   0.83722

 Mulliken charges and spin densities:
               1          2
     1  C   -0.557516   0.740370
     2  N   -0.493274   1.429447
     3  H    0.160684  -0.022254
     4  H    0.161059  -0.022089
     5  H    0.167619  -0.020778
     6  H    0.294073  -0.063231
     7  H    0.267357  -0.041465
 Sum of Mulliken charges =  -0.00000   2.00000

 Dipole moment (field-independent basis, Debye):
    X=             -1.1553    Y=             -1.3366    Z=             -0.0010  Tot=              1.7667
 Quadrupole moment (field-independent basis, Debye-Ang):
   XX=            -16.7364   YY=            -13.8366   ZZ=            -14.1991
   XY=             -2.6640   XZ=             -0.0014   YZ=              0.0008

  Exact polarizability:  40.740  -0.825  20.880  -0.001   0.001  16.194
 Approx polarizability:  71.002   1.439  30.681   0.001   0.002  22.583

 ******    1 imaginary frequencies (negative Signs) ******

                      1                      2                      3
                      A                      A                      A
 Frequencies --   -747.9186                61.6500               351.7516
 Red. masses --      1.5254                 1.0495                 1.0578
 Frc consts  --      0.5027                 0.0024                 0.0771
 IR Inten    --    119.1532                52.1390                10.6096

                      4                      5                      6
                      A                      A                      A
 Frequencies --    397.6453               620.8533               786.0669
 Red. masses --      1.0783                 1.4094                 1.2793
 Frc consts  --      0.1005                 0.3201                 0.4657
 IR Inten    --      4.8246                17.9896                11.6975

                      7                      8                      9
                      A                      A                      A
 Frequencies --   1051.4795              1186.7496              1416.3231
 Red. masses --      1.0560                 1.3460                 1.0883
 Frc consts  --      0.6879                 1.1169                 1.2863
 IR Inten    --     51.2641                 0.1763                 4.8865

                     10                     11                     12
                      A                      A                      A
 Frequencies --   1417.7434              1526.0312              3025.4656
 Red. masses --      1.0847                 1.0519                 1.0160
 Frc consts  --      1.2845                 1.4433                 5.4793
 IR Inten    --      3.4004               144.6009                 0.2200

                     13                     14                     15
                      A                      A                      A
 Frequencies --   3164.9320              3166.0416              3182.9418
 Red. masses --      1.1123                 1.1122                 1.0722
 Frc consts  --      6.5646                 6.5685                 6.3998
 IR Inten    --     14.1030                 8.6748                29.3964

 - Thermochemistry -
 -------------------
 Temperature   298.150 Kelvin.  Pressure   1.00000 Atm.
 Atom     1 has atomic number  6 and mass  12.00000

 Molecular mass:    31.04220 amu.
 Principal axes and moments of inertia in atomic units:
                           1         2         3
     Eigenvalues --    16.03896 208.41952 212.13450
           X            0.99970  -0.02441  -0.00001
           Y            0.02441   0.99970  -0.00004
           Z            0.00001   0.00004   1.00000
 This molecule is an asymmetric top.
 Rotational symmetry number  1.
 Rotational temperatures (Kelvin)      5.40022     0.41557     0.40830
 Rotational constants (GHZ):         112.52235     8.65918     8.50753
    1 imaginary frequencies ignored.
 Zero-point vibrational energy     127735.3 (Joules/Mol)
                                   30.52947 (Kcal/Mol)
 Warning -- explicit consideration of   3 degrees of freedom as
           vibrations may cause significant error
 Vibrational temperatures:     88.70   506.09   572.12   893.27  1130.98
          (Kelvin)           1512.84  1707.47  2037.77  2039.82  2195.62
                             4352.97  4553.63  4555.23  4579.54

 Zero-point correction=                           0.048652 (Hartree/Particle)
 Thermal correction to Energy=                    0.053264
 Thermal correction to Enthalpy=                  0.054208
 Thermal correction to Gibbs Free Energy=         0.022405
 Sum of electronic and zero-point Energies=            -95.604186
 Sum of electronic and thermal Energies=               -95.599574
 Sum of electronic and thermal Enthalpies=             -95.598630
 Sum of electronic and thermal Free Energies=          -95.630433

                     E (Thermal)             CV                S
                      KCal/Mol        Cal/Mol-Kelvin    Cal/Mol-Kelvin
 Total                   33.423             13.449             66.934
 Electronic               0.000              0.000              2.183
 Translational            0.889              2.981             36.231
 Rotational               0.889              2.981             21.188
 Vibrational             31.646              7.488              7.331
 Vibration     1          0.597              1.973              4.404
 Vibration     2          0.728              1.572              1.158
 Vibration     3          0.764              1.475              0.971

                           ! Non-Optimized Parameters !
 Normal termination of Gaussian 16 at Wed Oct  7 14:55:32 2020.
