 Gaussian 16, Revision A.03,

 ----------------------------------------------------------------------
 #P Opt(TS,MaxCyc=50,NoEigenTest,MaxStep=10,AddRedundant) BLYP/6-31G* 5
 D 7F Integral=UltraFineGrid SCF=(NoSymm,XQC,MaxCyc=120) IOp(1/33=1)
 ----------------------------------------------------------------------

 TstMul:  Mul=     2
 TstMul:  ICh=     0
 TstMul:  Mul=     2
 Symbolic Z-matrix:
 Charge =  0 Multiplicity = 2

 SCF Done:  E(UB-LYP) =  -135.598910429     A.U. after   15 cycles
 SCF Done:  E(UB-LYP) =  -135.599978493     A.U. after   12 cycles
 SCF Done:  E(UB-LYP) =  -135.600349201     A.U. after   12 cycles
 SCF Done:  E(UB-LYP) =  -135.600636077     A.U. after   12 cycles
 SCF Done:  E(UB-LYP) =  -135.600707178     A.U. after   12 cycles
 SCF Done:  E(UB-LYP) =  -135.600724781     A.U. after   10 cycles
 SCF Done:  E(UB-LYP) =  -135.600659737     A.U. after   12 cycles
 SCF Done:  E(UB-LYP) =  -135.600659590     A.U. after   12 cycles
 SCF Done:  E(UB-LYP) =  -135.600660526     A.U. after    9 cycles
 SCF Done:  E(UB-LYP) =  -135.600661784     A.U. after   12 cycles
 SCF Done:  E(UB-LYP) =  -135.600664311     A.U. after    9 cycles
 SCF Done:  E(UB-LYP) =  -135.600664441     A.U. after    9 cycles
 SCF Done:  E(UB-LYP) =  -135.600664557     A.U. after    9 cycles
 SCF Done:  E(UB-LYP) =  -135.600664643     A.U. after    8 cycles
 SCF Done:  E(UB-LYP) =  -135.600664712     A.U. after    8 cycles
 SCF Done:  E(UB-LYP) =  -135.600664763     A.U. after    8 cycles
 SCF Done:  E(UB-LYP) =  -135.600664804     A.U. after    7 cycles
 SCF Done:  E(UB-LYP) =  -135.600664833     A.U. after    7 cycles
 SCF Done:  E(UB-LYP) =  -135.600664859     A.U. after    7 cycles
 Optimization completed.
    -- Stationary point found.

 1\1\GINC-NODE20\FTS\UBLYP\6-31G(d)\C2H8N1(2)\RPEVERATI\07-Oct-2020\0\\
 #P Opt(TS,MaxCyc=50,NoEigenTest,MaxStep=10,AddRedundant) BLYP/6-31G* 5
 D 7F Integral=UltraFineGrid SCF=(NoSymm,XQC,MaxCyc=120) IOp(1/33=1)\\T
 S search on BH76.\\0,2\C,-1.5309705533,-0.4498901599,0.0077576104\C,-0
 .5005103954,0.6708370311,-0.0135211503\N,1.9308444697,-0.3182410192,-0
 .0218303084\H,-1.4407375349,-1.0995006162,-0.8792281785\H,-1.420719129
 6,-1.0849272136,0.9031241336\H,-2.5626867136,-0.0446277227,0.016413258
 4\H,-0.51008188,1.28664926,-0.9262966049\H,-0.4917186518,1.3047008316,

 Normal termination of Gaussian 16 at Wed Oct  7 14:58:48 2020.
 Gaussian 16:  ES64L-G16RevA.03 25-Dec-2016

 ----------------------------------------------------------------------
 #P Freq BLYP/6-31G* 5D 7F Integral=UltraFineGrid SCF=(NoSymm,XQC,MaxCy
 c=120) IOp(1/33=1) Geom=Check Guess=Read
 ----------------------------------------------------------------------

 TstMul:  Mul=     2
 TstMul:  ICh=     0
 TstMul:  Mul=     2
 Structure from the checkpoint file:  "MN_94_RKT20_BH76_BLYP_631Gs.chk"
 Charge =  0 Multiplicity = 2

                         Standard orientation:
 ---------------------------------------------------------------------
 Center     Atomic      Atomic             Coordinates (Angstroms)
 Number     Number       Type             X           Y           Z
 ---------------------------------------------------------------------
      1          6           0       -1.544746   -0.425190   -0.004780
      2          6           0       -0.497195    0.679710    0.007975
      3          7           0        1.918777   -0.346122   -0.016062
      4          1           0       -1.460294   -1.052509   -0.908227
      5          1           0       -1.448405   -1.085227    0.873957
      6          1           0       -2.570179   -0.004459    0.010167
      7          1           0       -0.493081    1.319441   -0.888241
      8          1           0       -0.482937    1.289417    0.924661
      9          1           0        0.683844    0.062251   -0.015727
     10          1           0        2.321499    0.262951   -0.756954
     11          1           0        2.269758    0.103868    0.853628
 ---------------------------------------------------------------------

 SCF Done:  E(UB-LYP) =  -135.600664859     A.U. after    1 cycles

 The electronic state is 2-A.
 Alpha  occ. eigenvalues --  -14.00979  -9.91741  -9.90955  -0.74935  -0.66837
 Alpha  occ. eigenvalues --   -0.54125  -0.39311  -0.39210  -0.38073  -0.33318
 Alpha  occ. eigenvalues --   -0.32044  -0.29951  -0.23108  -0.16248
 Alpha virt. eigenvalues --    0.05818   0.09379   0.12008   0.12366   0.13787
 Alpha virt. eigenvalues --    0.14597   0.16771   0.20861   0.26414   0.46451
 Alpha virt. eigenvalues --    0.48981   0.51689   0.55880   0.56967   0.60669

  Beta  occ. eigenvalues --  -13.99944  -9.91021  -9.90964  -0.72612  -0.66006
  Beta  occ. eigenvalues --   -0.53188  -0.38716  -0.37698  -0.37627  -0.32321
  Beta  occ. eigenvalues --   -0.31537  -0.29717  -0.21262
  Beta virt. eigenvalues --   -0.10904   0.06374   0.09690   0.12334   0.12865
  Beta virt. eigenvalues --    0.14010   0.14862   0.17177   0.21444   0.27805
  Beta virt. eigenvalues --    0.47005   0.49181   0.52180   0.57110   0.58221

 Mulliken charges and spin densities:
               1          2
     1  C   -0.380792  -0.015866
     2  C   -0.404832   0.498760
     3  N   -0.711008   0.578589
     4  H    0.142315   0.004280
     5  H    0.141058   0.004460
     6  H    0.136687   0.032917
     7  H    0.136020  -0.012127
     8  H    0.135154  -0.012581
     9  H    0.264606  -0.048492
    10  H    0.270454  -0.014986
    11  H    0.270339  -0.014953
 Sum of Mulliken charges =  -0.00000   1.00000

 Dipole moment (field-independent basis, Debye):
    X=             -0.2789    Y=              1.6506    Z=              0.1671  Tot=              1.6823
 Quadrupole moment (field-independent basis, Debye-Ang):
   XX=            -20.6791   YY=            -23.2903   ZZ=            -20.2618
   XY=              3.5962   XZ=              0.3516   YZ=             -0.2387

  Exact polarizability:  59.597  -4.146  31.546  -0.033  -0.255  31.753
 Approx polarizability:  96.959 -15.653  50.048  -0.451  -0.304  48.795

 ******    1 imaginary frequencies (negative Signs) ******

                      1                      2                      3
                      A                      A                      A
 Frequencies --  -1394.3814                28.4632               150.3720
 Red. masses --      1.0807                 1.0835                 2.6884
 Frc consts  --      1.2380                 0.0005                 0.0358
 IR Inten    --    257.6729                45.6475                 4.8397

                      4                      5                      6
                      A                      A                      A
 Frequencies --    167.7357               430.3748               454.7582
 Red. masses --      1.0864                 1.0367                 2.3460
 Frc consts  --      0.0180                 0.1131                 0.2859
 IR Inten    --      0.2824                 1.8723                 0.9199

                      7                      8                      9
                      A                      A                      A
 Frequencies --    745.8461               762.2527               872.3502
 Red. masses --      1.1442                 1.3235                 1.0531
 Frc consts  --      0.3750                 0.4531                 0.4722
 IR Inten    --     11.7378                57.7547                 0.9119

                     10                     11                     12
                      A                      A                      A
 Frequencies --    918.6993              1016.9255              1174.2072
 Red. masses --      1.2339                 3.0950                 1.3975
 Frc consts  --      0.6136                 1.8858                 1.1352
 IR Inten    --     82.2085                 6.1617                18.4701

                     13                     14                     15
                      A                      A                      A
 Frequencies --   1213.1429              1351.8926              1393.9094
 Red. masses --      1.3884                 1.0831                 1.1912
 Frc consts  --      1.2039                 1.1662                 1.3637
 IR Inten    --      0.3775               103.1836                 0.1162

                     16                     17                     18
                      A                      A                      A
 Frequencies --   1456.4313              1478.0310              1485.1863
 Red. masses --      1.1274                 1.0350                 1.0516
 Frc consts  --      1.4090                 1.3322                 1.3666
 IR Inten    --      1.5789                 2.2797                 3.4759

                     19                     20                     21
                      A                      A                      A
 Frequencies --   1509.5597              1601.1936              2936.1696
 Red. masses --      1.0442                 1.0674                 1.0501
 Frc consts  --      1.4019                 1.6124                 5.3340
 IR Inten    --     11.9060                12.8290                26.2021

                     22                     23                     24
                      A                      A                      A
 Frequencies --   2999.2329              3009.4727              3031.9453
 Red. masses --      1.0690                 1.0668                 1.1024
 Frc consts  --      5.6658                 5.6925                 5.9707
 IR Inten    --      0.8898                48.3083                12.0108

                     25                     26                     27
                      A                      A                      A
 Frequencies --   3073.6695              3227.3955              3327.6181
 Red. masses --      1.1092                 1.0497                 1.0878
 Frc consts  --      6.1742                 6.4421                 7.0970
 IR Inten    --     45.5533                12.9840                10.8635

 - Thermochemistry -
 -------------------
 Temperature   298.150 Kelvin.  Pressure   1.00000 Atm.
 Atom     1 has atomic number  6 and mass  12.00000

 Molecular mass:    46.06567 amu.
 Principal axes and moments of inertia in atomic units:
                           1         2         3
     Eigenvalues --    70.29993 393.80514 431.43914
           X            0.99956   0.02976   0.00170
           Y           -0.02975   0.99953  -0.00722
           Z           -0.00192   0.00716   0.99997
 This molecule is an asymmetric top.
 Rotational symmetry number  1.
 Rotational temperatures (Kelvin)      1.23206     0.21994     0.20076
 Rotational constants (GHZ):          25.67202     4.58283     4.18307
    1 imaginary frequencies ignored.
 Zero-point vibrational energy     238157.6 (Joules/Mol)
                                   56.92102 (Kcal/Mol)
 Warning -- explicit consideration of   5 degrees of freedom as
           vibrations may cause significant error
 Vibrational temperatures:     40.95   216.35   241.33   619.21   654.30
          (Kelvin)           1073.11  1096.71  1255.12  1321.80  1463.13
                             1689.42  1745.44  1945.07  2005.52  2095.48
                             2126.56  2136.85  2171.92  2303.76  4224.49
                             4315.23  4329.96  4362.29  4422.32  4643.50
                             4787.70

 Zero-point correction=                           0.090709 (Hartree/Particle)
 Thermal correction to Energy=                    0.096625
 Thermal correction to Enthalpy=                  0.097569
 Thermal correction to Gibbs Free Energy=         0.061206
 Sum of electronic and zero-point Energies=           -135.509955
 Sum of electronic and thermal Energies=              -135.504040
 Sum of electronic and thermal Enthalpies=            -135.503095
 Sum of electronic and thermal Free Energies=         -135.539459

                     E (Thermal)             CV                S
                      KCal/Mol        Cal/Mol-Kelvin    Cal/Mol-Kelvin
 Total                   60.633             18.341             76.534
 Electronic               0.000              0.000              1.377
 Translational            0.889              2.981             37.408
 Rotational               0.889              2.981             23.994
 Vibrational             58.856             12.379             13.754
 Vibration     1          0.593              1.984              5.934
 Vibration     2          0.618              1.902              2.668
 Vibration     3          0.624              1.882              2.461
 Vibration     4          0.792              1.404              0.857
 Vibration     5          0.813              1.350              0.782

                           ! Non-Optimized Parameters !
 Normal termination of Gaussian 16 at Wed Oct  7 14:59:27 2020.
