 Gaussian 16, Revision A.03,

 ----------------------------------------------------------------------
 #P Opt(TS,MaxCyc=50,NoEigenTest,MaxStep=10,AddRedundant) BLYP/6-31G* 5
 D 7F Integral=UltraFineGrid SCF=(NoSymm,XQC,MaxCyc=120) IOp(1/33=1)
 ----------------------------------------------------------------------

 TstMul:  Mul=     1
 TstMul:  ICh=     0
 TstMul:  Mul=     1
 Symbolic Z-matrix:
 Charge =  0 Multiplicity = 1

 SCF Done:  E(RB-LYP) =  -195.130475571     A.U. after   14 cycles
 SCF Done:  E(RB-LYP) =  -195.132125974     A.U. after   12 cycles
 SCF Done:  E(RB-LYP) =  -195.132075549     A.U. after    9 cycles
 SCF Done:  E(RB-LYP) =  -195.131958589     A.U. after    9 cycles
 SCF Done:  E(RB-LYP) =  -195.131809178     A.U. after   11 cycles
 SCF Done:  E(RB-LYP) =  -195.131714669     A.U. after    9 cycles
 SCF Done:  E(RB-LYP) =  -195.131409409     A.U. after   13 cycles
 SCF Done:  E(RB-LYP) =  -195.131689940     A.U. after   13 cycles
 SCF Done:  E(RB-LYP) =  -195.132274658     A.U. after   13 cycles
 SCF Done:  E(RB-LYP) =  -195.132570371     A.U. after   12 cycles
 SCF Done:  E(RB-LYP) =  -195.132541107     A.U. after   12 cycles
 SCF Done:  E(RB-LYP) =  -195.132547983     A.U. after    9 cycles
 SCF Done:  E(RB-LYP) =  -195.132550992     A.U. after    9 cycles
 SCF Done:  E(RB-LYP) =  -195.132551227     A.U. after    8 cycles
 SCF Done:  E(RB-LYP) =  -195.132551011     A.U. after    8 cycles
 Optimization completed.
    -- Stationary point found.
 Normal termination of Gaussian 16 at Wed Oct  7 14:56:27 2020.
 Gaussian 16:  ES64L-G16RevA.03 25-Dec-2016

 ----------------------------------------------------------------------
 #P Freq BLYP/6-31G* 5D 7F Integral=UltraFineGrid SCF=(NoSymm,XQC,MaxCy
 c=120) IOp(1/33=1) Geom=Check Guess=Read
 ----------------------------------------------------------------------

 TstMul:  Mul=     1
 TstMul:  ICh=     0
 TstMul:  Mul=     1
 Structure from the checkpoint file:  "MN_96_RKT22_BH76_BLYP_631Gs.chk"
 Charge =  0 Multiplicity = 1

                         Standard orientation:
 ---------------------------------------------------------------------
 Center     Atomic      Atomic             Coordinates (Angstroms)
 Number     Number       Type             X           Y           Z
 ---------------------------------------------------------------------
      1          6           0       -1.319115   -0.913971   -0.023375
      2          6           0       -1.221633    0.512556   -0.011006
      3          6           0        0.000120    1.192833    0.150080
      4          6           0        1.221818    0.512388   -0.011180
      5          6           0        1.318953   -0.914100   -0.023142
      6          1           0        2.193766   -1.340407   -0.535328
      7          1           0        1.089677   -1.467854    0.896358
      8          1           0        2.061023    1.102637   -0.401459
      9          1           0        0.000173    2.286450    0.092850
     10          1           0       -2.060918    1.103000   -0.400820
     11          1           0       -2.194258   -1.339660   -0.535526
     12          1           0       -0.000125   -1.214339   -0.500360
     13          1           0       -1.090204   -1.468065    0.896017
 ---------------------------------------------------------------------

 SCF Done:  E(RB-LYP) =  -195.132551011     A.U. after    1 cycles

 The electronic state is 1-A.
 Alpha  occ. eigenvalues --   -9.92105  -9.92104  -9.91464  -9.91243  -9.91243
 Alpha  occ. eigenvalues --   -0.72809  -0.65084  -0.60771  -0.51605  -0.46091
 Alpha  occ. eigenvalues --   -0.42907  -0.36421  -0.35305  -0.35103  -0.32964
 Alpha  occ. eigenvalues --   -0.30822  -0.29806  -0.21666  -0.18061
 Alpha virt. eigenvalues --   -0.04347   0.00726   0.07305   0.10084   0.11684
 Alpha virt. eigenvalues --    0.14501   0.15592   0.16358   0.18671   0.20263
 Alpha virt. eigenvalues --    0.24999   0.26369   0.32268   0.38195   0.48113

 Mulliken charges:
               1
     1  C   -0.427920
     2  C   -0.047421
     3  C   -0.096496
     4  C   -0.047398
     5  C   -0.427913
     6  H    0.120135
     7  H    0.159904
     8  H    0.112064
     9  H    0.095800
    10  H    0.112063
    11  H    0.120123
    12  H    0.167170
    13  H    0.159890
 Sum of Mulliken charges =  -0.00000

 Dipole moment (field-independent basis, Debye):
    X=             -0.0000    Y=              0.0189    Z=             -0.1029  Tot=              0.1046
 Quadrupole moment (field-independent basis, Debye-Ang):
   XX=            -30.4583   YY=            -30.1700   ZZ=            -33.4724
   XY=             -0.0005   XZ=             -0.0010   YZ=             -1.2885

  Exact polarizability:  75.576   0.001  64.226  -0.001  -0.686  29.915
 Approx polarizability: 160.015   0.010 134.462  -0.000   5.018  49.495

 ******    1 imaginary frequencies (negative Signs) ******

                      1                      2                      3
                      A                      A                      A
 Frequencies --  -1448.5395               269.7685               454.7734
 Red. masses --      1.1831                 2.1106                 2.2506
 Frc consts  --      1.4626                 0.0905                 0.2742
 IR Inten    --     13.1862                 0.1587                 0.6367

                      4                      5                      6
                      A                      A                      A
 Frequencies --    495.8682               547.9660               597.7349
 Red. masses --      2.5159                 3.6088                 1.3278
 Frc consts  --      0.3645                 0.6384                 0.2795
 IR Inten    --      2.9335                 2.9923                24.7815

                      7                      8                      9
                      A                      A                      A
 Frequencies --    729.5694               771.1493               790.1711
 Red. masses --      1.9215                 1.2480                 1.2962
 Frc consts  --      0.6026                 0.4373                 0.4768
 IR Inten    --      7.2971                 3.7777                38.3428

                     10                     11                     12
                      A                      A                      A
 Frequencies --    947.8492               951.7837               977.2678
 Red. masses --      1.3890                 1.3196                 1.8238
 Frc consts  --      0.7352                 0.7043                 1.0262
 IR Inten    --      3.7679                 1.1713                10.1531

                     13                     14                     15
                      A                      A                      A
 Frequencies --    987.1140               993.4959              1079.0012
 Red. masses --      1.7279                 1.3683                 1.3366
 Frc consts  --      0.9920                 0.7957                 0.9168
 IR Inten    --     12.2360                 0.3957                 2.8717

                     16                     17                     18
                      A                      A                      A
 Frequencies --   1111.9144              1167.4192              1228.5062
 Red. masses --      1.5727                 1.1946                 1.5396
 Frc consts  --      1.1456                 0.9592                 1.3691
 IR Inten    --      1.7376                 6.1688                 6.3985

                     19                     20                     21
                      A                      A                      A
 Frequencies --   1247.5749              1404.9767              1413.7279
 Red. masses --      1.2373                 1.1186                 1.4386
 Frc consts  --      1.1346                 1.3010                 1.6941
 IR Inten    --     10.1027                 9.1165                 2.6738

                     22                     23                     24
                      A                      A                      A
 Frequencies --   1452.1426              1490.6094              1509.9896
 Red. masses --      1.0732                 2.1106                 2.0006
 Frc consts  --      1.3334                 2.7630                 2.6875
 IR Inten    --      3.3277                 1.0657                 4.5313

                     25                     26                     27
                      A                      A                      A
 Frequencies --   1510.8235              1568.9567              3024.4217
 Red. masses --      1.9253                 1.3096                 1.0564
 Frc consts  --      2.5893                 1.8993                 5.6933
 IR Inten    --      1.2069                 2.4726                32.2772

                     28                     29                     30
                      A                      A                      A
 Frequencies --   3025.3148              3059.1842              3062.3287
 Red. masses --      1.0563                 1.0874                 1.0924
 Frc consts  --      5.6961                 5.9959                 6.0358
 IR Inten    --     16.5909                 0.7671                 8.3608

                     31                     32                     33
                      A                      A                      A
 Frequencies --   3079.5880              3084.4073              3101.5396
 Red. masses --      1.1090                 1.1066                 1.0932
 Frc consts  --      6.1969                 6.2028                 6.1962
 IR Inten    --     37.9343                21.0968                32.5387

 - Thermochemistry -
 -------------------
 Temperature   298.150 Kelvin.  Pressure   1.00000 Atm.
 Atom     1 has atomic number  6 and mass  12.00000

 Molecular mass:    68.06260 amu.
 Principal axes and moments of inertia in atomic units:
                           1         2         3
     Eigenvalues --   227.06069 361.66460 567.02510
           X            1.00000  -0.00000  -0.00001
           Y            0.00000   0.99977  -0.02147
           Z            0.00001   0.02147   0.99977
 This molecule is an asymmetric top.
 Rotational symmetry number  1.
 Rotational temperatures (Kelvin)      0.38146     0.23949     0.15275
 Rotational constants (GHZ):           7.94828     4.99010     3.18282
    1 imaginary frequencies ignored.
 Zero-point vibrational energy     281941.5 (Joules/Mol)
                                   67.38564 (Kcal/Mol)
 Warning -- explicit consideration of   5 degrees of freedom as
           vibrations may cause significant error
 Vibrational temperatures:    388.14   654.32   713.44   788.40   860.01
          (Kelvin)           1049.69  1109.51  1136.88  1363.74  1369.40
                             1406.07  1420.24  1429.42  1552.44  1599.80
                             1679.66  1767.55  1794.98  2021.45  2034.04
                             2089.31  2144.65  2172.54  2173.74  2257.38
                             4351.47  4352.75  4401.48  4406.01  4430.84
                             4437.77  4462.42

 Zero-point correction=                           0.107386 (Hartree/Particle)
 Thermal correction to Energy=                    0.112130
 Thermal correction to Enthalpy=                  0.113074
 Thermal correction to Gibbs Free Energy=         0.080028
 Sum of electronic and zero-point Energies=           -195.025165
 Sum of electronic and thermal Energies=              -195.020421
 Sum of electronic and thermal Enthalpies=            -195.019477
 Sum of electronic and thermal Free Energies=         -195.052523

                     E (Thermal)             CV                S
                      KCal/Mol        Cal/Mol-Kelvin    Cal/Mol-Kelvin
 Total                   70.363             18.404             69.551
 Electronic               0.000              0.000              0.000
 Translational            0.889              2.981             38.571
 Rotational               0.889              2.981             25.346
 Vibrational             68.585             12.442              5.634
 Vibration     1          0.674              1.729              1.598
 Vibration     2          0.813              1.350              0.781
 Vibration     3          0.851              1.259              0.669
 Vibration     4          0.903              1.144              0.548
 Vibration     5          0.956              1.037              0.454

 Optimization completed.
    -- Stationary point found.
 Normal termination of Gaussian 16 at Wed Oct  7 14:57:42 2020.
