 Gaussian 16, Revision A.03,

 ----------------------------------------------------------------------
 #P Opt(TS,MaxCyc=50,NoEigenTest,MaxStep=10,AddRedundant) BLYP/6-31G* 5
 D 7F Integral=UltraFineGrid SCF=(NoSymm,XQC,MaxCyc=120) IOp(1/33=1)
 ----------------------------------------------------------------------

 TstMul:  Mul=     2
 TstMul:  ICh=     0
 TstMul:  Mul=     2
 Symbolic Z-matrix:
 Charge =  0 Multiplicity = 2

 SCF Done:  E(UB-LYP) =  -96.3119103612     A.U. after   13 cycles
 SCF Done:  E(UB-LYP) =  -96.3122018762     A.U. after   11 cycles
 SCF Done:  E(UB-LYP) =  -96.3131612098     A.U. after   13 cycles
 SCF Done:  E(UB-LYP) =  -96.3132846273     A.U. after   12 cycles
 SCF Done:  E(UB-LYP) =  -96.3133859699     A.U. after   12 cycles
 SCF Done:  E(UB-LYP) =  -96.3135073787     A.U. after   12 cycles
 SCF Done:  E(UB-LYP) =  -96.3137874838     A.U. after   12 cycles
 SCF Done:  E(UB-LYP) =  -96.3140092749     A.U. after   13 cycles
 SCF Done:  E(UB-LYP) =  -96.3136847519     A.U. after   13 cycles
 SCF Done:  E(UB-LYP) =  -96.3133416287     A.U. after   13 cycles
 SCF Done:  E(UB-LYP) =  -96.3131206371     A.U. after   12 cycles
 SCF Done:  E(UB-LYP) =  -96.3131216265     A.U. after    9 cycles
 SCF Done:  E(UB-LYP) =  -96.3131227413     A.U. after    9 cycles
 SCF Done:  E(UB-LYP) =  -96.3131250104     A.U. after   11 cycles
 SCF Done:  E(UB-LYP) =  -96.3131311263     A.U. after   11 cycles
 SCF Done:  E(UB-LYP) =  -96.3131377128     A.U. after   11 cycles
 SCF Done:  E(UB-LYP) =  -96.3131384101     A.U. after   10 cycles
 SCF Done:  E(UB-LYP) =  -96.3131384950     A.U. after    7 cycles
 SCF Done:  E(UB-LYP) =  -96.3131385527     A.U. after    8 cycles
 Optimization completed.
    -- Stationary point found.

 1\1\GINC-NODE26\FTS\UBLYP\6-31G(d)\C1H6N1(2)\RPEVERATI\07-Oct-2020\0\\
 #P Opt(TS,MaxCyc=50,NoEigenTest,MaxStep=10,AddRedundant) BLYP/6-31G* 5
 D 7F Integral=UltraFineGrid SCF=(NoSymm,XQC,MaxCyc=120) IOp(1/33=1)\\T
 S search on BH76.\\0,2\C,-1.2763077636,-0.0002070526,0.0090913921\N,1.
 3298080375,-0.0022726609,-0.1366126399\H,-1.6186189662,0.9197406626,-0
 .4822755964\H,-1.4529309644,-0.0052138898,1.0916499493\H,-1.6221619117
 ,-0.9138871245,-0.4914085924\H,0.0743034443,-0.0024862683,-0.216389644
 2\H,1.4952684272,0.8128793105,0.4867850776\H,1.4948623076,-0.808491301

 Normal termination of Gaussian 16 at Wed Oct  7 14:54:55 2020.
 Gaussian 16:  ES64L-G16RevA.03 25-Dec-2016

 ----------------------------------------------------------------------
 #P Freq BLYP/6-31G* 5D 7F Integral=UltraFineGrid SCF=(NoSymm,XQC,MaxCy
 c=120) IOp(1/33=1) Geom=Check Guess=Read
 ----------------------------------------------------------------------

 TstMul:  Mul=     2
 TstMul:  ICh=     0
 TstMul:  Mul=     2
 Structure from the checkpoint file:  "MN_95_RKT21_BH76_BLYP_631Gs.chk"
 Charge =  0 Multiplicity = 2

                         Standard orientation:
 ---------------------------------------------------------------------
 Center     Atomic      Atomic             Coordinates (Angstroms)
 Number     Number       Type             X           Y           Z
 ---------------------------------------------------------------------
      1          6           0       -1.277400   -0.000013    0.014206
      2          7           0        1.328208   -0.000023   -0.140326
      3          1           0       -1.621716    0.923233   -0.469515
      4          1           0       -1.450355   -0.012705    1.097294
      5          1           0       -1.624608   -0.910287   -0.491537
      6          1           0        0.072440   -0.000172   -0.215854
      7          1           0        1.495475    0.810789    0.488228
      8          1           0        1.495711   -0.810623    0.488432
 ---------------------------------------------------------------------

 SCF Done:  E(UB-LYP) =  -96.3131385527     A.U. after    1 cycles

 The electronic state is 2-A.
 Alpha  occ. eigenvalues --  -14.01546  -9.91396  -0.75709  -0.61102  -0.39722
 Alpha  occ. eigenvalues --   -0.38380  -0.35164  -0.35048  -0.23754  -0.17198
 Alpha virt. eigenvalues --    0.05730   0.10387   0.12680   0.14336   0.14682
 Alpha virt. eigenvalues --    0.25601   0.47230   0.48246   0.51791   0.65934
 Alpha virt. eigenvalues --    0.68562   0.68936   0.81770   0.82528   0.83377

  Beta  occ. eigenvalues --  -14.00540  -9.90625  -0.73429  -0.59408  -0.39050
  Beta  occ. eigenvalues --   -0.36360  -0.34502  -0.34467  -0.21835
  Beta virt. eigenvalues --   -0.11607   0.06334   0.11030   0.13044   0.14882
  Beta virt. eigenvalues --    0.15219   0.27003   0.47598   0.48960   0.55198
  Beta virt. eigenvalues --    0.67789   0.68739   0.70718   0.82301   0.83158

 Mulliken charges and spin densities:
               1          2
     1  C   -0.588263   0.562195
     2  N   -0.714349   0.554874
     3  H    0.158860  -0.012311
     4  H    0.149760  -0.017171
     5  H    0.159004  -0.012220
     6  H    0.285558  -0.047260
     7  H    0.274716  -0.014055
     8  H    0.274715  -0.014052
 Sum of Mulliken charges =  -0.00000   1.00000

 Dipole moment (field-independent basis, Debye):
    X=             -0.5281    Y=              0.0002    Z=              1.6175  Tot=              1.7015
 Quadrupole moment (field-independent basis, Debye-Ang):
   XX=            -16.2174   YY=            -13.7352   ZZ=            -15.5334
   XY=              0.0004   XZ=              2.9506   YZ=              0.0005

  Exact polarizability:  44.153  -0.000  22.070   0.760   0.001  19.564
 Approx polarizability:  78.026  -0.000  32.202  -1.811   0.001  28.548

 ******    1 imaginary frequencies (negative Signs) ******

                      1                      2                      3
                      A                      A                      A
 Frequencies --  -1408.4065                36.4946               382.3213
 Red. masses --      1.0731                 1.0267                 1.2437
 Frc consts  --      1.2542                 0.0008                 0.1071
 IR Inten    --    154.0481                31.6555                 8.3435

                      4                      5                      6
                      A                      A                      A
 Frequencies --    400.9400               548.4112               773.8241
 Red. masses --      1.0257                 2.3026                 1.1072
 Frc consts  --      0.0971                 0.4080                 0.3906
 IR Inten    --      2.4416                 3.5661                 6.1487

                      7                      8                      9
                      A                      A                      A
 Frequencies --    847.6759              1137.8742              1385.2556
 Red. masses --      1.2622                 1.1783                 1.1133
 Frc consts  --      0.5344                 0.8989                 1.2587
 IR Inten    --    101.0030                18.7548               136.6339

                     10                     11                     12
                      A                      A                      A
 Frequencies --   1425.3467              1432.5086              1520.4366
 Red. masses --      1.0941                 1.0583                 1.0319
 Frc consts  --      1.3096                 1.2796                 1.4055
 IR Inten    --      7.7911                 7.7152                12.2606

                     13                     14                     15
                      A                      A                      A
 Frequencies --   1612.8313              3010.0351              3132.3699
 Red. masses --      1.0611                 1.0202                 1.1092
 Frc consts  --      1.6263                 5.4462                 6.4121
 IR Inten    --     17.2378                 3.0546                16.1534

                     16                     17                     18
                      A                      A                      A
 Frequencies --   3135.7933              3238.5442              3337.3026
 Red. masses --      1.1093                 1.0498                 1.0878
 Frc consts  --      6.4268                 6.4870                 7.1382
 IR Inten    --     18.3301                12.5574                 8.4166

 - Thermochemistry -
 -------------------
 Temperature   298.150 Kelvin.  Pressure   1.00000 Atm.
 Atom     1 has atomic number  6 and mass  12.00000

 Molecular mass:    32.05002 amu.
 Principal axes and moments of inertia in atomic units:
                           1         2         3
     Eigenvalues --    19.44422 209.28808 211.40646
           X            0.99968   0.00000   0.02527
           Y           -0.00000   1.00000  -0.00002
           Z           -0.02527   0.00002   0.99968
 This molecule is an asymmetric top.
 Rotational symmetry number  1.
 Rotational temperatures (Kelvin)      4.45448     0.41385     0.40970
 Rotational constants (GHZ):          92.81634     8.62324     8.53683
    1 imaginary frequencies ignored.
 Zero-point vibrational energy     163637.0 (Joules/Mol)
                                   39.11018 (Kcal/Mol)
 Warning -- explicit consideration of   4 degrees of freedom as
           vibrations may cause significant error
 Vibrational temperatures:     52.51   550.08   576.86   789.04  1113.36
          (Kelvin)           1219.62  1637.15  1993.07  2050.76  2061.06
                             2187.57  2320.50  4330.77  4506.78  4511.71
                             4659.54  4801.63

 Zero-point correction=                           0.062326 (Hartree/Particle)
 Thermal correction to Energy=                    0.067050
 Thermal correction to Enthalpy=                  0.067995
 Thermal correction to Gibbs Free Energy=         0.035882
 Sum of electronic and zero-point Energies=            -96.250813
 Sum of electronic and thermal Energies=               -96.246088
 Sum of electronic and thermal Enthalpies=             -96.245144
 Sum of electronic and thermal Free Energies=          -96.277256

                     E (Thermal)             CV                S
                      KCal/Mol        Cal/Mol-Kelvin    Cal/Mol-Kelvin
 Total                   42.075             14.006             67.586
 Electronic               0.000              0.000              1.377
 Translational            0.889              2.981             36.326
 Rotational               0.889              2.981             21.381
 Vibrational             40.297              8.044              8.501
 Vibration     1          0.594              1.982              5.441
 Vibration     2          0.752              1.508              1.030
 Vibration     3          0.767              1.468              0.959
 Vibration     4          0.904              1.143              0.547

                           ! Non-Optimized Parameters !
 Normal termination of Gaussian 16 at Wed Oct  7 14:55:30 2020.
