 Gaussian 16, Revision A.03,
 Gaussian 16:  ES64L-G16RevA.03 25-Dec-2016

 ----------------------------------------------------------------------
 #P Opt(MaxCyc=100) HF/6-31G* 5D 7F Integral=UltraFineGrid SCF=(NoSymm,
 XQC,MaxCyc=120) IOp(1/33=1)
 ----------------------------------------------------------------------

 TstMul:  Mul=     1
 TstMul:  ICh=     0
 TstMul:  Mul=     1
 Symbolic Z-matrix:
 Charge =  0 Multiplicity = 1

 SCF Done:  E(RHF) =  -193.954817734     A.U. after   14 cycles
 SCF Done:  E(RHF) =  -193.955530216     A.U. after   11 cycles
 SCF Done:  E(RHF) =  -193.955562333     A.U. after   10 cycles
 SCF Done:  E(RHF) =  -193.955563014     A.U. after    7 cycles
 Optimization completed.
    -- Stationary point found.

                         Standard orientation:
 ---------------------------------------------------------------------
 Center     Atomic      Atomic             Coordinates (Angstroms)
 Number     Number       Type             X           Y           Z
 ---------------------------------------------------------------------
      1          6           0       -2.068415   -0.605900    0.000002
      2          6           0       -1.221453    0.635808    0.000049
      3          6           0        0.102411    0.727528    0.000033
      4          6           0        1.070343   -0.376216   -0.000036
      5          6           0        2.381828   -0.196231   -0.000043
      6          1           0       -2.715441   -0.622670    0.873414
      7          1           0       -2.715474   -0.622581   -0.873387
      8          1           0       -1.486684   -1.518049   -0.000056
      9          1           0       -1.778052    1.559208    0.000103
     10          1           0        0.536987    1.714063    0.000074
     11          1           0        0.686190   -1.380977   -0.000085
     12          1           0        3.064644   -1.026332   -0.000094
     13          1           0        2.819541    0.787397    0.000003
 ---------------------------------------------------------------------

 The electronic state is 1-A.
 Alpha  occ. eigenvalues --  -11.22791 -11.22781 -11.22170 -11.21686 -11.21631
 Alpha  occ. eigenvalues --   -1.09338  -1.02569  -0.93329  -0.80559  -0.72644
 Alpha  occ. eigenvalues --   -0.65599  -0.61410  -0.56928  -0.56732  -0.53366
 Alpha  occ. eigenvalues --   -0.52184  -0.47119  -0.42901  -0.31063
 Alpha virt. eigenvalues --    0.13839   0.24997   0.25666   0.26389   0.28041
 Alpha virt. eigenvalues --    0.31433   0.32813   0.33447   0.35504   0.39907
 Alpha virt. eigenvalues --    0.41705   0.50398   0.55526   0.63008   0.67325

 Mulliken charges:
               1
     1  C   -0.529039
     2  C   -0.175816
     3  C   -0.187864
     4  C   -0.140259
     5  C   -0.415726
     6  H    0.178672
     7  H    0.178672
     8  H    0.176824
     9  H    0.180661
    10  H    0.184416
    11  H    0.188975
    12  H    0.181938
    13  H    0.178545
 Sum of Mulliken charges =  -0.00000

 Dipole moment (field-independent basis, Debye):
    X=             -0.4066    Y=             -0.1131    Z=              0.0000  Tot=              0.4220
 Quadrupole moment (field-independent basis, Debye-Ang):
   XX=            -29.1311   YY=            -29.7241   ZZ=            -35.0033
   XY=              0.0376   XZ=             -0.0001   YZ=              0.0003

 Normal termination of Gaussian 16 at Wed Oct  7 12:36:18 2020.
