 Gaussian 16, Revision A.03,
 Gaussian 16:  ES64L-G16RevA.03 25-Dec-2016

 ----------------------------------------------------------------------
 #P Opt(MaxCyc=100) HF/6-31G* 5D 7F Integral=UltraFineGrid SCF=(NoSymm,
 XQC,MaxCyc=120) IOp(1/33=1)
 ----------------------------------------------------------------------

 TstMul:  Mul=     1
 TstMul:  ICh=     0
 TstMul:  Mul=     1
 Symbolic Z-matrix:
 Charge =  0 Multiplicity = 1

 SCF Done:  E(RHF) =  -78.0310119926     A.U. after    9 cycles
 SCF Done:  E(RHF) =  -78.0313426090     A.U. after    8 cycles
 SCF Done:  E(RHF) =  -78.0313607181     A.U. after    7 cycles
 Optimization completed.
    -- Stationary point found.

                         Standard orientation:
 ---------------------------------------------------------------------
 Center     Atomic      Atomic             Coordinates (Angstroms)
 Number     Number       Type             X           Y           Z
 ---------------------------------------------------------------------
      1          6           0        0.000000    0.000000    0.658746
      2          6           0        0.000000    0.000000   -0.658746
      3          1           0        0.000000    0.914456    1.225252
      4          1           0       -0.000000   -0.914456    1.225252
      5          1           0        0.000000    0.914456   -1.225252
      6          1           0       -0.000000   -0.914456   -1.225252
 ---------------------------------------------------------------------

 The electronic state is 1-AG.
 Alpha  occ. eigenvalues --  -11.22162 -11.21984  -1.03313  -0.78979  -0.64088
 Alpha  occ. eigenvalues --   -0.58623  -0.50231  -0.37424
 Alpha virt. eigenvalues --    0.18371   0.26676   0.29329   0.31122   0.39303
 Alpha virt. eigenvalues --    0.49535   0.66244   0.76794   0.77295   0.86230
 Alpha virt. eigenvalues --    0.89391   0.97009   1.11049   1.16403   1.21790

 Mulliken charges:
               1
     1  C   -0.358404
     2  C   -0.358404
     3  H    0.179202
     4  H    0.179202
     5  H    0.179202
     6  H    0.179202
 Sum of Mulliken charges =  -0.00000

 Dipole moment (field-independent basis, Debye):
    X=             -0.0000    Y=             -0.0000    Z=              0.0000  Tot=              0.0000
 Quadrupole moment (field-independent basis, Debye-Ang):
   XX=            -15.3872   YY=            -12.2358   ZZ=            -11.9831
   XY=              0.0000   XZ=             -0.0000   YZ=              0.0000

 Normal termination of Gaussian 16 at Wed Oct  7 12:34:41 2020.
