 Gaussian 16, Revision A.03,

 ----------------------------------------------------------------------
 #P Opt(TS,MaxCyc=50,NoEigenTest,MaxStep=10,AddRedundant) HF/6-31G* 5D
 7F Integral=UltraFineGrid SCF=(NoSymm,XQC,MaxCyc=120) IOp(1/33=1)
 ----------------------------------------------------------------------

 TstMul:  Mul=     2
 TstMul:  ICh=     0
 TstMul:  Mul=     2
 Symbolic Z-matrix:
 Charge =  0 Multiplicity = 2

 SCF Done:  E(UHF) =  -78.5246668474     A.U. after   16 cycles
 SCF Done:  E(UHF) =  -78.5249620518     A.U. after   13 cycles
 SCF Done:  E(UHF) =  -78.5249626084     A.U. after   12 cycles
 SCF Done:  E(UHF) =  -78.5249532808     A.U. after   12 cycles
 SCF Done:  E(UHF) =  -78.5249463363     A.U. after   12 cycles
 SCF Done:  E(UHF) =  -78.5249989297     A.U. after   13 cycles
 SCF Done:  E(UHF) =  -78.5249995215     A.U. after   13 cycles
 SCF Done:  E(UHF) =  -78.5250050735     A.U. after   12 cycles
 SCF Done:  E(UHF) =  -78.5250063213     A.U. after   11 cycles
 SCF Done:  E(UHF) =  -78.5250071856     A.U. after   11 cycles
 SCF Done:  E(UHF) =  -78.5250074011     A.U. after   11 cycles
 Optimization completed.
    -- Stationary point found.
 Normal termination of Gaussian 16 at Wed Oct  7 12:36:13 2020.
 Gaussian 16:  ES64L-G16RevA.03 25-Dec-2016

 ----------------------------------------------------------------------
 #P Freq HF/6-31G* 5D 7F Integral=UltraFineGrid SCF=(NoSymm,XQC,MaxCyc=
 120) IOp(1/33=1) Geom=Check Guess=Read
 ----------------------------------------------------------------------

 TstMul:  Mul=     2
 TstMul:  ICh=     0
 TstMul:  Mul=     2
 Structure from the checkpoint file:  "MN_13_c2h5ts_BH76_HF_631Gs.chk"
 Charge =  0 Multiplicity = 2

                         Standard orientation:
 ---------------------------------------------------------------------
 Center     Atomic      Atomic             Coordinates (Angstroms)
 Number     Number       Type             X           Y           Z
 ---------------------------------------------------------------------
      1          6           0       -0.574955    0.001156   -0.218891
      2          6           0        0.757523   -0.000233    0.042223
      3          1           0       -1.498634   -0.008070    1.560107
      4          1           0       -1.101972    0.916102   -0.419953
      5          1           0       -1.101935   -0.911709   -0.429308
      6          1           0        1.303429   -0.917375    0.170322
      7          1           0        1.303704    0.915515    0.178841
 ---------------------------------------------------------------------

 SCF Done:  E(UHF) =  -78.5250074011     A.U. after    1 cycles

 The electronic state is 2-A.
 Alpha  occ. eigenvalues --  -11.23038 -11.22616  -1.03445  -0.80262  -0.64306
 Alpha  occ. eigenvalues --   -0.58634  -0.51328  -0.48655  -0.36721
 Alpha virt. eigenvalues --    0.19717   0.26261   0.29242   0.30571   0.38670
 Alpha virt. eigenvalues --    0.48057   0.66682   0.75197   0.77009   0.84039
 Alpha virt. eigenvalues --    0.91450   1.00229   1.02220   1.11790   1.14429

  Beta  occ. eigenvalues --  -11.23912 -11.21425  -1.02779  -0.79371  -0.64109
  Beta  occ. eigenvalues --   -0.58215  -0.51126  -0.39414
  Beta virt. eigenvalues --    0.11934   0.20888   0.26539   0.29288   0.30901
  Beta virt. eigenvalues --    0.38738   0.48263   0.66947   0.75357   0.79894
  Beta virt. eigenvalues --    0.88343   0.92393   1.00347   1.11683   1.13739

 Mulliken charges and spin densities:
               1          2
     1  C   -0.382261  -0.736193
     2  C   -0.341744   0.829980
     3  H   -0.034830   0.927874
     4  H    0.197425   0.049731
     5  H    0.197428   0.049743
     6  H    0.181991  -0.060567
     7  H    0.181991  -0.060567
 Sum of Mulliken charges =  -0.00000   1.00000

 Dipole moment (field-independent basis, Debye):
    X=              0.2427    Y=              0.0023    Z=             -0.4468  Tot=              0.5085
 Quadrupole moment (field-independent basis, Debye-Ang):
   XX=            -14.1039   YY=            -13.4622   ZZ=            -16.9119
   XY=             -0.0071   XZ=              1.3946   YZ=              0.0169

  Exact polarizability:  31.071   0.006  19.565  -1.118   0.015  16.105
 Approx polarizability:  23.388   0.000  15.931   0.013   0.014  12.767

 ******    1 imaginary frequencies (negative Signs) ******

                      1                      2                      3
                      A                      A                      A
 Frequencies --   -655.2905               413.3024               445.3217
 Red. masses --      1.1767                 1.1934                 1.0428
 Frc consts  --      0.2977                 0.1201                 0.1218
 IR Inten    --     32.2646                 1.4968                 0.0617
 Raman Activ --     82.3511                16.8410                23.0699

                      4                      5                      6
                      A                      A                      A
 Frequencies --    881.3258               929.0498              1025.5839
 Red. masses --      1.0427                 1.3723                 1.1353
 Frc consts  --      0.4772                 0.6979                 0.7036
 IR Inten    --      0.3021                39.6763                50.6392
 Raman Activ --      0.0330                 0.9733                 4.0637

                      7                      8                      9
                      A                      A                      A
 Frequencies --   1037.8593              1321.1176              1340.4794
 Red. masses --      1.0119                 2.2019                 1.4910
 Frc consts  --      0.6422                 2.2642                 1.5785
 IR Inten    --      0.3792                 0.4900                 0.0026
 Raman Activ --      0.8113                 3.4482                 1.2978

                     10                     11                     12
                      A                      A                      A
 Frequencies --   1601.2478              1694.5129              3324.9804
 Red. masses --      1.1127                 1.4176                 1.0484
 Frc consts  --      1.6810                 2.3982                 6.8287
 IR Inten    --      3.7718                 0.1118                19.9058
 Raman Activ --      0.2369                22.6407                10.3474

                     13                     14                     15
                      A                      A                      A
 Frequencies --   3337.8105              3405.3447              3430.4990
 Red. masses --      1.0615                 1.1176                 1.1183
 Frc consts  --      6.9679                 7.6358                 7.7539
 IR Inten    --      1.0743                 0.9361                28.4707
 Raman Activ --    192.4247               112.9340                 2.5460

 - Thermochemistry -
 -------------------
 Temperature   298.150 Kelvin.  Pressure   1.00000 Atm.
 Atom     1 has atomic number  6 and mass  12.00000

 Molecular mass:    29.03913 amu.
 Principal axes and moments of inertia in atomic units:
                           1         2         3
     Eigenvalues --    24.10884  79.93569  79.94557
           X            0.99803   0.02607  -0.05706
           Y           -0.00034   0.91181   0.41061
           Z            0.06274  -0.40979   0.91002
 This molecule is an asymmetric top.
 Rotational symmetry number  1.
 Rotational temperatures (Kelvin)      3.59262     1.08355     1.08341
 Rotational constants (GHZ):          74.85808    22.57742    22.57462
    1 imaginary frequencies ignored.
 Zero-point vibrational energy     144679.0 (Joules/Mol)
                                   34.57910 (Kcal/Mol)
 Warning -- explicit consideration of   2 degrees of freedom as
           vibrations may cause significant error
 Vibrational temperatures:    594.65   640.72  1268.03  1336.70  1475.59
          (Kelvin)           1493.25  1900.79  1928.65  2303.84  2438.03
                             4783.91  4802.36  4899.53  4935.72

 Zero-point correction=                           0.055105 (Hartree/Particle)
 Thermal correction to Energy=                    0.058699
 Thermal correction to Enthalpy=                  0.059643
 Thermal correction to Gibbs Free Energy=         0.031465
 Sum of electronic and zero-point Energies=            -78.469902
 Sum of electronic and thermal Energies=               -78.466308
 Sum of electronic and thermal Enthalpies=             -78.465364
 Sum of electronic and thermal Free Energies=          -78.493543

                     E (Thermal)             CV                S
                      KCal/Mol        Cal/Mol-Kelvin    Cal/Mol-Kelvin
 Total                   36.834             10.807             59.307
 Electronic               0.000              0.000              1.377
 Translational            0.889              2.981             36.032
 Rotational               0.889              2.981             19.672
 Vibrational             35.057              4.845              2.225
 Vibration     1          0.777              1.441              0.915
 Vibration     2          0.805              1.371              0.810

 Optimization completed.
    -- Stationary point found.
 Normal termination of Gaussian 16 at Wed Oct  7 12:36:41 2020.
