 Gaussian 16, Revision A.03,
 Gaussian 16:  ES64L-G16RevA.03 25-Dec-2016

 ----------------------------------------------------------------------
 #P Opt(MaxCyc=100) HF/6-31G* 5D 7F Integral=UltraFineGrid SCF=(NoSymm,
 XQC,MaxCyc=120) IOp(1/33=1)
 ----------------------------------------------------------------------

 TstMul:  Mul=     1
 TstMul:  ICh=     0
 TstMul:  Mul=     1
 Symbolic Z-matrix:
 Charge =  0 Multiplicity = 1

 SCF Done:  E(RHF) =  -499.091102480     A.U. after   10 cycles
 SCF Done:  E(RHF) =  -499.091181883     A.U. after    8 cycles
 SCF Done:  E(RHF) =  -499.091183725     A.U. after    8 cycles
 Optimization completed.
    -- Stationary point found.

                         Standard orientation:
 ---------------------------------------------------------------------
 Center     Atomic      Atomic             Coordinates (Angstroms)
 Number     Number       Type             X           Y           Z
 ---------------------------------------------------------------------
      1          6           0        0.000000    0.000000   -1.127303
      2         17           0        0.000000    0.000000    0.657007
      3          1           0        0.000000    1.022539   -1.468432
      4          1           0        0.885545   -0.511269   -1.468432
      5          1           0       -0.885545   -0.511269   -1.468432
 ---------------------------------------------------------------------

 The electronic state is 1-A1.
 Alpha  occ. eigenvalues -- -104.80513 -11.28568 -10.54462  -8.01319  -8.00980
 Alpha  occ. eigenvalues --   -8.00980  -1.12956  -0.91933  -0.62306  -0.62306
 Alpha  occ. eigenvalues --   -0.54575  -0.43476  -0.43476
 Alpha virt. eigenvalues --    0.19478   0.25784   0.29241   0.29241   0.59968
 Alpha virt. eigenvalues --    0.62923   0.65255   0.65255   0.72364   0.72364
 Alpha virt. eigenvalues --    0.78536   1.11101   1.11101   1.17495   1.17582

 Mulliken charges:
               1
     1  C   -0.551011
     2  Cl  -0.106968
     3  H    0.219326
     4  H    0.219326
     5  H    0.219326
 Sum of Mulliken charges =  -0.00000

 Dipole moment (field-independent basis, Debye):
    X=              0.0000    Y=             -0.0000    Z=             -2.2445  Tot=              2.2445
 Quadrupole moment (field-independent basis, Debye-Ang):
   XX=            -19.9934   YY=            -19.9934   ZZ=            -18.2387
   XY=             -0.0000   XZ=             -0.0000   YZ=              0.0000

 Normal termination of Gaussian 16 at Wed Oct  7 12:35:13 2020.
