 Gaussian 16, Revision A.03,

 ----------------------------------------------------------------------
 #P Opt(TS,MaxCyc=50,NoEigenTest,MaxStep=10,AddRedundant) HF/6-31G* 5D
 7F Integral=UltraFineGrid SCF=(NoSymm,XQC,MaxCyc=120) IOp(1/33=1)
 ----------------------------------------------------------------------

 TstMul:  Mul=     2
 TstMul:  ICh=     0
 TstMul:  Mul=     2
 Symbolic Z-matrix:
 Charge =  0 Multiplicity = 2

 SCF Done:  E(UHF) =  -117.574636708     A.U. after   17 cycles
 SCF Done:  E(UHF) =  -117.575582233     A.U. after   14 cycles
 SCF Done:  E(UHF) =  -117.575185912     A.U. after   14 cycles
 SCF Done:  E(UHF) =  -117.575040114     A.U. after   14 cycles
 SCF Done:  E(UHF) =  -117.575078332     A.U. after   12 cycles
 SCF Done:  E(UHF) =  -117.575064719     A.U. after   13 cycles
 SCF Done:  E(UHF) =  -117.575125153     A.U. after   13 cycles
 SCF Done:  E(UHF) =  -117.575173870     A.U. after   12 cycles
 SCF Done:  E(UHF) =  -117.575195452     A.U. after   13 cycles
 SCF Done:  E(UHF) =  -117.575197450     A.U. after   11 cycles
 SCF Done:  E(UHF) =  -117.575198113     A.U. after   11 cycles
 Optimization completed.
    -- Stationary point found.
 Normal termination of Gaussian 16 at Wed Oct  7 12:37:29 2020.
 Gaussian 16:  ES64L-G16RevA.03 25-Dec-2016

 ----------------------------------------------------------------------
 #P Freq HF/6-31G* 5D 7F Integral=UltraFineGrid SCF=(NoSymm,XQC,MaxCyc=
 120) IOp(1/33=1) Geom=Check Guess=Read
 ----------------------------------------------------------------------

 TstMul:  Mul=     2
 TstMul:  ICh=     0
 TstMul:  Mul=     2
 Structure from the checkpoint file:  "MN_17_c3h7ts_BH76_HF_631Gs.chk"
 Charge =  0 Multiplicity = 2

                         Standard orientation:
 ---------------------------------------------------------------------
 Center     Atomic      Atomic             Coordinates (Angstroms)
 Number     Number       Type             X           Y           Z
 ---------------------------------------------------------------------
      1          6           0       -0.458249    0.650931   -0.000182
      2          6           0       -1.390198   -0.369351    0.000069
      3          1           0       -0.255444    1.187119   -0.909605
      4          1           0       -0.257197    1.188977    0.908549
      5          1           0       -1.727868   -0.817995    0.917058
      6          1           0       -1.725830   -0.820339   -0.916525
      7          6           0        1.603321   -0.240991    0.000244
      8          1           0        2.213099    0.646995   -0.008394
      9          1           0        1.607991   -0.820253   -0.906391
     10          1           0        1.616010   -0.808035    0.914526
 ---------------------------------------------------------------------

 SCF Done:  E(UHF) =  -117.575198113     A.U. after    1 cycles

 The electronic state is 2-A.
 Alpha  occ. eigenvalues --  -11.22083 -11.21845 -11.21619  -1.02371  -0.93629
 Alpha  occ. eigenvalues --   -0.79193  -0.63242  -0.57874  -0.56302  -0.55374
 Alpha  occ. eigenvalues --   -0.50235  -0.43846  -0.32559
 Alpha virt. eigenvalues --    0.22645   0.24511   0.28423   0.30007   0.32353
 Alpha virt. eigenvalues --    0.33187   0.33442   0.39080   0.48655   0.65634
 Alpha virt. eigenvalues --    0.71470   0.73646   0.77051   0.80714   0.81182

  Beta  occ. eigenvalues --  -11.23160 -11.19924 -11.19777  -1.01371  -0.86358
  Beta  occ. eigenvalues --   -0.77925  -0.62959  -0.57121  -0.54897  -0.54282
  Beta  occ. eigenvalues --   -0.49991  -0.38334
  Beta virt. eigenvalues --    0.14932   0.23830   0.25984   0.29997   0.30083
  Beta virt. eigenvalues --    0.32495   0.34356   0.34685   0.39207   0.48987
  Beta virt. eigenvalues --    0.66699   0.71900   0.77053   0.80920   0.81212

 Mulliken charges and spin densities:
               1          2
     1  C   -0.354522  -0.786427
     2  C   -0.350953   0.977927
     3  H    0.186234   0.055177
     4  H    0.186199   0.055146
     5  H    0.172091  -0.072880
     6  H    0.172065  -0.072877
     7  C   -0.520553   1.041844
     8  H    0.166457  -0.062681
     9  H    0.171530  -0.067612
    10  H    0.171451  -0.067616
 Sum of Mulliken charges =  -0.00000   1.00000

 Dipole moment (field-independent basis, Debye):
    X=              0.1918    Y=              0.0539    Z=             -0.0005  Tot=              0.1992
 Quadrupole moment (field-independent basis, Debye-Ang):
   XX=            -22.2360   YY=            -20.7267   ZZ=            -19.6838
   XY=              1.2838   XZ=             -0.0024   YZ=              0.0018

  Exact polarizability:  40.205   5.651  29.729  -0.002   0.003  30.033
 Approx polarizability:  27.948   4.696  25.007  -0.000   0.004  25.508

 ******    1 imaginary frequencies (negative Signs) ******

                      1                      2                      3
                      A                      A                      A
 Frequencies --   -480.4479               109.8890               247.2130
 Red. masses --      9.7829                 1.0858                 2.4918
 Frc consts  --      1.3305                 0.0077                 0.0897
 IR Inten    --      0.6849                 0.0080                 0.0453
 Raman Activ --     66.7325                 0.2087                 7.3230

                      4                      5                      6
                      A                      A                      A
 Frequencies --    390.6020               585.6278               601.5424
 Red. masses --      1.0602                 1.1378                 1.1063
 Frc consts  --      0.0953                 0.2299                 0.2359
 IR Inten    --      0.3205                 3.2870                 1.7605
 Raman Activ --      6.5362                13.6339                16.7211

                      7                      8                      9
                      A                      A                      A
 Frequencies --    797.3766               860.5510               907.1585
 Red. masses --      1.3859                 1.0521                 1.0832
 Frc consts  --      0.5192                 0.4590                 0.5252
 IR Inten    --     34.4279                 0.3120                31.3018
 Raman Activ --     13.0287                 0.0363                30.3590

                     10                     11                     12
                      A                      A                      A
 Frequencies --   1016.9167              1051.2243              1280.3078
 Red. masses --      1.0333                 1.2300                 2.2509
 Frc consts  --      0.6296                 0.8009                 2.1739
 IR Inten    --      0.4057                17.5270                 0.3897
 Raman Activ --      2.2823                 1.3390                 3.0431

                     13                     14                     15
                      A                      A                      A
 Frequencies --   1340.0725              1569.5219              1573.2875
 Red. masses --      1.4546                 1.0894                 1.0892
 Frc consts  --      1.5390                 1.5811                 1.5884
 IR Inten    --      0.0670                 0.7199                 0.5851
 Raman Activ --      1.5153                 9.7265                 7.7170

                     16                     17                     18
                      A                      A                      A
 Frequencies --   1597.5881              1676.1204              3257.6062
 Red. masses --      1.1134                 1.3313                 1.0150
 Frc consts  --      1.6743                 2.2037                 6.3462
 IR Inten    --      1.2515                 0.0861                 4.0593
 Raman Activ --      1.0804                20.4761               105.1835

                     19                     20                     21
                      A                      A                      A
 Frequencies --   3317.1228              3329.1664              3395.1803
 Red. masses --      1.0485                 1.0608                 1.1172
 Frc consts  --      6.7977                 6.9274                 7.5877
 IR Inten    --     25.8552                 2.3303                 0.4962
 Raman Activ --     11.5354               178.1932               110.2408

                     22                     23                     24
                      A                      A                      A
 Frequencies --   3399.9482              3409.5883              3420.7213
 Red. masses --      1.1144                 1.1151                 1.1178
 Frc consts  --      7.5896                 7.6376                 7.7062
 IR Inten    --     21.8513                12.3920                44.3610
 Raman Activ --     59.0617                40.1116                 5.6174

 - Thermochemistry -
 -------------------
 Temperature   298.150 Kelvin.  Pressure   1.00000 Atm.
 Atom     1 has atomic number  6 and mass  12.00000

 Molecular mass:    43.05478 amu.
 Principal axes and moments of inertia in atomic units:
                           1         2         3
     Eigenvalues --    65.65905 278.09678 307.82454
           X            0.99986   0.01700  -0.00003
           Y           -0.01700   0.99986   0.00014
           Z            0.00003  -0.00014   1.00000
 This molecule is an asymmetric top.
 Rotational symmetry number  1.
 Rotational temperatures (Kelvin)      1.31915     0.31145     0.28137
 Rotational constants (GHZ):          27.48656     6.48962     5.86289
    1 imaginary frequencies ignored.
 Zero-point vibrational energy     234075.3 (Joules/Mol)
                                   55.94534 (Kcal/Mol)
 Warning -- explicit consideration of   5 degrees of freedom as
           vibrations may cause significant error
 Vibrational temperatures:    158.11   355.68   561.99   842.59   865.49
          (Kelvin)           1147.25  1238.14  1305.20  1463.12  1512.48
                             1842.08  1928.07  2258.19  2263.61  2298.57
                             2411.56  4686.97  4772.60  4789.93  4884.91
                             4891.77  4905.64  4921.66

 Zero-point correction=                           0.089155 (Hartree/Particle)
 Thermal correction to Energy=                    0.094133
 Thermal correction to Enthalpy=                  0.095077
 Thermal correction to Gibbs Free Energy=         0.062043
 Sum of electronic and zero-point Energies=           -117.486044
 Sum of electronic and thermal Energies=              -117.481065
 Sum of electronic and thermal Enthalpies=            -117.480121
 Sum of electronic and thermal Free Energies=         -117.513155

                     E (Thermal)             CV                S
                      KCal/Mol        Cal/Mol-Kelvin    Cal/Mol-Kelvin
 Total                   59.069             16.134             69.525
 Electronic               0.000              0.000              1.377
 Translational            0.889              2.981             37.206
 Rotational               0.889              2.981             23.245
 Vibrational             57.292             10.172              7.696
 Vibration     1          0.606              1.941              3.271
 Vibration     2          0.661              1.767              1.750
 Vibration     3          0.758              1.490              0.998
 Vibration     4          0.943              1.062              0.475
 Vibration     5          0.960              1.029              0.447

                           ! Non-Optimized Parameters !
 Normal termination of Gaussian 16 at Wed Oct  7 12:38:06 2020.
