 Gaussian 16, Revision A.03,
 Gaussian 16:  ES64L-G16RevA.03 25-Dec-2016

 ----------------------------------------------------------------------
 #P Opt(MaxCyc=100) HF/6-31G* 5D 7F Integral=UltraFineGrid SCF=(NoSymm,
 XQC,MaxCyc=120) IOp(1/33=1)
 ----------------------------------------------------------------------

 TstMul:  Mul=     2
 TstMul:  ICh=     0
 TstMul:  Mul=     2
 Symbolic Z-matrix:
 Charge =  0 Multiplicity = 2

 SCF Done:  E(UHF) =  -117.630590681     A.U. after   15 cycles
 SCF Done:  E(UHF) =  -117.630814151     A.U. after   13 cycles
 SCF Done:  E(UHF) =  -117.630828500     A.U. after   12 cycles
 SCF Done:  E(UHF) =  -117.630830408     A.U. after   11 cycles
 Optimization completed.
    -- Stationary point found.

                         Standard orientation:
 ---------------------------------------------------------------------
 Center     Atomic      Atomic             Coordinates (Angstroms)
 Number     Number       Type             X           Y           Z
 ---------------------------------------------------------------------
      1          6           0        1.208043   -0.288472    0.000064
      2          6           0       -0.061501    0.577448   -0.000064
      3          6           0       -1.326741   -0.230176   -0.000018
      4          1           0        1.243701   -0.927188    0.877287
      5          1           0        1.243742   -0.927384   -0.877014
      6          1           0        2.100067    0.331153    0.000015
      7          1           0       -0.044988    1.227236   -0.871240
      8          1           0       -0.045045    1.227427    0.870968
      9          1           0       -1.708301   -0.641735    0.918030
     10          1           0       -1.707980   -0.642309   -0.917943
 ---------------------------------------------------------------------

 The electronic state is 2-A.
 Alpha  occ. eigenvalues --  -11.22113 -11.21660 -11.20838  -1.05937  -0.92882
 Alpha  occ. eigenvalues --   -0.80196  -0.63483  -0.59089  -0.55141  -0.53257
 Alpha  occ. eigenvalues --   -0.49292  -0.47672  -0.35079
 Alpha virt. eigenvalues --    0.24398   0.28504   0.29676   0.30699   0.33145
 Alpha virt. eigenvalues --    0.33418   0.36826   0.40171   0.44610   0.71397
 Alpha virt. eigenvalues --    0.73446   0.74146   0.75868   0.80491   0.81022

  Beta  occ. eigenvalues --  -11.21979 -11.20585 -11.19600  -1.03846  -0.88524
  Beta  occ. eigenvalues --   -0.77138  -0.62752  -0.58122  -0.54326  -0.50761
  Beta  occ. eigenvalues --   -0.48390  -0.47405
  Beta virt. eigenvalues --    0.15881   0.25226   0.29950   0.30492   0.31129
  Beta virt. eigenvalues --    0.33569   0.33834   0.37618   0.41102   0.45806
  Beta virt. eigenvalues --    0.72152   0.73673   0.76053   0.79681   0.81475

 Mulliken charges and spin densities:
               1          2
     1  C   -0.483605   0.051470
     2  C   -0.332713  -0.159327
     3  C   -0.344974   1.265183
     4  H    0.162615  -0.003174
     5  H    0.162613  -0.003175
     6  H    0.162743   0.008946
     7  H    0.167807   0.016130
     8  H    0.167806   0.016112
     9  H    0.168856  -0.096083
    10  H    0.168851  -0.096082
 Sum of Mulliken charges =  -0.00000   1.00000

 Dipole moment (field-independent basis, Debye):
    X=              0.1949    Y=             -0.0746    Z=              0.0001  Tot=              0.2087
 Quadrupole moment (field-independent basis, Debye-Ang):
   XX=            -22.0097   YY=            -21.3522   ZZ=            -20.2150
   XY=              0.8077   XZ=             -0.0004   YZ=              0.0004

 Normal termination of Gaussian 16 at Wed Oct  7 12:36:21 2020.
