 Gaussian 16, Revision A.03,
 Gaussian 16:  ES64L-G16RevA.03 25-Dec-2016

 ----------------------------------------------------------------------
 #P Opt(MaxCyc=100) HF/6-31G* 5D 7F Integral=UltraFineGrid SCF=(NoSymm,
 XQC,MaxCyc=120) IOp(1/33=1)
 ----------------------------------------------------------------------

 TstMul:  Mul=     2
 TstMul:  ICh=     0
 TstMul:  Mul=     2
 Symbolic Z-matrix:
 Charge =  0 Multiplicity = 2

 SCF Done:  E(UHF) =  -78.5965446127     A.U. after   14 cycles
 SCF Done:  E(UHF) =  -78.5966991990     A.U. after   12 cycles
 SCF Done:  E(UHF) =  -78.5967133976     A.U. after   12 cycles
 SCF Done:  E(UHF) =  -78.5967152907     A.U. after   11 cycles
 Optimization completed.
    -- Stationary point found.

                         Standard orientation:
 ---------------------------------------------------------------------
 Center     Atomic      Atomic             Coordinates (Angstroms)
 Number     Number       Type             X           Y           Z
 ---------------------------------------------------------------------
      1          6           0       -0.016089   -0.698791   -0.000000
      2          6           0       -0.016089    0.799343    0.000000
      3          1           0        0.996995   -1.102777   -0.000000
      4          1           0       -0.517911   -1.093479    0.877966
      5          1           0       -0.517911   -1.093479   -0.877966
      6          1           0        0.115948    1.343210   -0.918019
      7          1           0        0.115948    1.343210    0.918019
 ---------------------------------------------------------------------

 The electronic state is 2-A'.
 Alpha  occ. eigenvalues --  -11.22306 -11.21113  -1.02710  -0.84151  -0.61653
 Alpha  occ. eigenvalues --   -0.57722  -0.53641  -0.50470  -0.35161
 Alpha virt. eigenvalues --    0.25619   0.28569   0.30345   0.33122   0.36579
 Alpha virt. eigenvalues --    0.42468   0.71005   0.73291   0.75831   0.81508
 Alpha virt. eigenvalues --    0.85444   0.95076   1.04639   1.15363   1.15757

  Beta  occ. eigenvalues --  -11.21437 -11.19787  -0.99054  -0.78680  -0.60526
  Beta  occ. eigenvalues --   -0.54680  -0.52410  -0.49900
  Beta virt. eigenvalues --    0.16554   0.26139   0.30599   0.30619   0.34087
  Beta virt. eigenvalues --    0.37381   0.43751   0.71644   0.73617   0.80913
  Beta virt. eigenvalues --    0.88518   0.91872   0.95977   1.07459   1.15947

 Mulliken charges and spin densities:
               1          2
     1  C   -0.509385  -0.165882
     2  C   -0.345257   1.261828
     3  H    0.170467   0.062005
     4  H    0.172226   0.017744
     5  H    0.172226   0.017744
     6  H    0.169862  -0.096719
     7  H    0.169862  -0.096719
 Sum of Mulliken charges =  -0.00000   1.00000

 Dipole moment (field-independent basis, Debye):
    X=              0.1755    Y=             -0.1219    Z=              0.0000  Tot=              0.2137
 Quadrupole moment (field-independent basis, Debye-Ang):
   XX=            -15.0430   YY=            -14.2939   ZZ=            -13.6400
   XY=              0.2941   XZ=             -0.0000   YZ=             -0.0000

 Normal termination of Gaussian 16 at Wed Oct  7 12:35:03 2020.
