 Gaussian 16, Revision A.03,
 Gaussian 16:  ES64L-G16RevA.03 25-Dec-2016

 ----------------------------------------------------------------------
 #P Opt(MaxCyc=100) HF/6-31G* 5D 7F Integral=UltraFineGrid SCF=(NoSymm,
 XQC,MaxCyc=120) IOp(1/33=1)
 ----------------------------------------------------------------------

 TstMul:  Mul=     2
 TstMul:  ICh=     0
 TstMul:  Mul=     2
 Symbolic Z-matrix:
 Charge =  0 Multiplicity = 2

 SCF Done:  E(UHF) =  -78.5965338141     A.U. after   14 cycles
 SCF Done:  E(UHF) =  -78.5966982415     A.U. after   12 cycles
 SCF Done:  E(UHF) =  -78.5967131318     A.U. after   12 cycles
 SCF Done:  E(UHF) =  -78.5967150610     A.U. after   11 cycles
 Optimization completed.
    -- Stationary point found.

                         Standard orientation:
 ---------------------------------------------------------------------
 Center     Atomic      Atomic             Coordinates (Angstroms)
 Number     Number       Type             X           Y           Z
 ---------------------------------------------------------------------
      1          6           0        0.798635    0.000009   -0.037522
      2          6           0       -0.698995    0.000090    0.002737
      3          1           0       -1.106721    0.883106   -0.479283
      4          1           0        1.345527   -0.918256    0.079458
      5          1           0       -1.075580   -0.010542    1.026249
      6          1           0       -1.107239   -0.872734   -0.497290
      7          1           0        1.346174    0.917832    0.079578
 ---------------------------------------------------------------------

 The electronic state is 2-A.
 Alpha  occ. eigenvalues --  -11.22306 -11.21112  -1.02709  -0.84151  -0.61654
 Alpha  occ. eigenvalues --   -0.57722  -0.53639  -0.50471  -0.35160
 Alpha virt. eigenvalues --    0.25619   0.28568   0.30346   0.33122   0.36582
 Alpha virt. eigenvalues --    0.42467   0.71006   0.73291   0.75831   0.81508
 Alpha virt. eigenvalues --    0.85439   0.95083   1.04638   1.15365   1.15758

  Beta  occ. eigenvalues --  -11.21437 -11.19787  -0.99053  -0.78680  -0.60527
  Beta  occ. eigenvalues --   -0.54681  -0.52409  -0.49902
  Beta virt. eigenvalues --    0.16555   0.26139   0.30576   0.30642   0.34087
  Beta virt. eigenvalues --    0.37383   0.43749   0.71645   0.73617   0.80913
  Beta virt. eigenvalues --    0.88513   0.91872   0.95984   1.07457   1.15949

 Mulliken charges and spin densities:
               1          2
     1  C   -0.345299   1.261882
     2  C   -0.509380  -0.165893
     3  H    0.172207   0.017334
     4  H    0.169799  -0.096717
     5  H    0.170473   0.061982
     6  H    0.172244   0.018165
     7  H    0.169956  -0.096753
 Sum of Mulliken charges =   0.00000   1.00000

 Dipole moment (field-independent basis, Debye):
    X=             -0.1171    Y=              0.0002    Z=              0.1783  Tot=              0.2133
 Quadrupole moment (field-independent basis, Debye-Ang):
   XX=            -14.2786   YY=            -13.6396   ZZ=            -15.0583
   XY=              0.0005   XZ=              0.2729   YZ=              0.0002

 Normal termination of Gaussian 16 at Wed Oct  7 12:35:07 2020.
