 Gaussian 16, Revision A.03,
 Gaussian 16:  ES64L-G16RevA.03 25-Dec-2016

 ----------------------------------------------------------------------
 #P Opt(MaxCyc=100) HF/6-31G* 5D 7F Integral=UltraFineGrid SCF=(NoSymm,
 XQC,MaxCyc=120) IOp(1/33=1)
 ----------------------------------------------------------------------

 TstMul:  Mul=     1
 TstMul:  ICh=     0
 TstMul:  Mul=     1
 Symbolic Z-matrix:
 Charge =  0 Multiplicity = 1

 SCF Done:  E(RHF) =  -79.2281718201     A.U. after    9 cycles
 SCF Done:  E(RHF) =  -79.2282549795     A.U. after    7 cycles
 Optimization completed.
    -- Stationary point found.

                         Standard orientation:
 ---------------------------------------------------------------------
 Center     Atomic      Atomic             Coordinates (Angstroms)
 Number     Number       Type             X           Y           Z
 ---------------------------------------------------------------------
      1          6           0        0.763266    0.000000    0.000000
      2          6           0       -0.763266   -0.000000    0.000000
      3          1           0       -1.156490   -1.002608   -0.134522
      4          1           0        1.156490   -0.385516   -0.935252
      5          1           0       -1.156490    0.617803   -0.801023
      6          1           0       -1.156490    0.384805    0.935545
      7          1           0        1.156490    1.002710    0.133759
      8          1           0        1.156490   -0.617194    0.801492
 ---------------------------------------------------------------------

 The electronic state is 1-A.
 Alpha  occ. eigenvalues --  -11.20643 -11.20585  -1.01904  -0.84385  -0.59802
 Alpha  occ. eigenvalues --   -0.59802  -0.50962  -0.48793  -0.48793
 Alpha virt. eigenvalues --    0.24316   0.30286   0.31804   0.31804   0.33920
 Alpha virt. eigenvalues --    0.33920   0.41335   0.70755   0.73860   0.73860
 Alpha virt. eigenvalues --    0.84705   0.84705   0.94437   1.15964   1.15964

 Mulliken charges:
               1
     1  C   -0.488175
     2  C   -0.488175
     3  H    0.162725
     4  H    0.162725
     5  H    0.162725
     6  H    0.162725
     7  H    0.162725
     8  H    0.162725
 Sum of Mulliken charges =  -0.00000

 Dipole moment (field-independent basis, Debye):
    X=              0.0000    Y=             -0.0000    Z=             -0.0000  Tot=              0.0000
 Quadrupole moment (field-independent basis, Debye-Ang):
   XX=            -15.5338   YY=            -14.9214   ZZ=            -14.9214
   XY=              0.0000   XZ=              0.0000   YZ=              0.0000

 Normal termination of Gaussian 16 at Wed Oct  7 12:34:51 2020.
