 Gaussian 16, Revision A.03,
 Gaussian 16:  ES64L-G16RevA.03 25-Dec-2016

 ----------------------------------------------------------------------
 #P Opt(MaxCyc=100) HF/6-31G* 5D 7F Integral=UltraFineGrid SCF=(NoSymm,
 XQC,MaxCyc=120) IOp(1/33=1)
 ----------------------------------------------------------------------

 TstMul:  Mul=     1
 TstMul:  ICh=     0
 TstMul:  Mul=     1
 Symbolic Z-matrix:
 Charge =  0 Multiplicity = 1

 SCF Done:  E(RHF) =  -40.1948023585     A.U. after    8 cycles
 SCF Done:  E(RHF) =  -40.1948403411     A.U. after    7 cycles
 Optimization completed.
    -- Stationary point found.

                         Standard orientation:
 ---------------------------------------------------------------------
 Center     Atomic      Atomic             Coordinates (Angstroms)
 Number     Number       Type             X           Y           Z
 ---------------------------------------------------------------------
      1          6           0        0.000000    0.000000    0.000000
      2          1           0        0.625477    0.625477    0.625477
      3          1           0       -0.625477   -0.625477    0.625477
      4          1           0        0.625477   -0.625477   -0.625477
      5          1           0       -0.625477    0.625477   -0.625477
 ---------------------------------------------------------------------

 The electronic state is 1-A1.
 Alpha  occ. eigenvalues --  -11.20060  -0.94477  -0.54631  -0.54631  -0.54631
 Alpha virt. eigenvalues --    0.25728   0.32787   0.32787   0.32787   0.72810
 Alpha virt. eigenvalues --    0.72810   0.72810   1.18477   1.18477   1.18477
 Alpha virt. eigenvalues --    1.25509   1.33025   1.94061   1.94061   2.59211

 Mulliken charges:
               1
     1  C   -0.678009
     2  H    0.169502
     3  H    0.169502
     4  H    0.169502
     5  H    0.169502
 Sum of Mulliken charges =  -0.00000

 Dipole moment (field-independent basis, Debye):
    X=             -0.0000    Y=             -0.0000    Z=             -0.0000  Tot=              0.0000
 Quadrupole moment (field-independent basis, Debye-Ang):
   XX=             -8.3744   YY=             -8.3744   ZZ=             -8.3744
   XY=             -0.0000   XZ=             -0.0000   YZ=             -0.0000

 Normal termination of Gaussian 16 at Wed Oct  7 12:35:43 2020.
