 Gaussian 16, Revision A.03,
 Gaussian 16:  ES64L-G16RevA.03 25-Dec-2016

 ----------------------------------------------------------------------
 #P Opt(MaxCyc=100) HF/6-31G* 5D 7F Integral=UltraFineGrid SCF=(NoSymm,
 XQC,MaxCyc=120) IOp(1/33=1)
 ----------------------------------------------------------------------

 TstMul:  Mul=     1
 TstMul:  ICh=     0
 TstMul:  Mul=     1
 Symbolic Z-matrix:
 Charge =  0 Multiplicity = 1

 SCF Done:  E(RHF) =  -558.816439592     A.U. after   10 cycles
 SCF Done:  E(RHF) =  -558.816624047     A.U. after    9 cycles
 SCF Done:  E(RHF) =  -558.816630969     A.U. after    8 cycles
 Optimization completed.
    -- Stationary point found.

                         Standard orientation:
 ---------------------------------------------------------------------
 Center     Atomic      Atomic             Coordinates (Angstroms)
 Number     Number       Type             X           Y           Z
 ---------------------------------------------------------------------
      1          9           0        0.000000    0.000000   -1.054966
      2         17           0        0.000000    0.000000    0.558512
 ---------------------------------------------------------------------

 The electronic state is 1-SG.
 Alpha  occ. eigenvalues -- -104.91785 -26.35132 -10.64784  -8.11743  -8.11167
 Alpha  occ. eigenvalues --   -8.11167  -1.63578  -1.10038  -0.71903  -0.71903
 Alpha  occ. eigenvalues --   -0.69314  -0.48603  -0.48603
 Alpha virt. eigenvalues --    0.08242   0.49957   0.59195   0.59613   0.59613
 Alpha virt. eigenvalues --    1.01448   1.01448   1.08789   1.08789   1.22755
 Alpha virt. eigenvalues --    1.55858   1.55858   1.57165   2.04434   2.10885

 Mulliken charges:
               1
     1  F   -0.388509
     2  Cl   0.388509
 Sum of Mulliken charges =  -0.00000

 Dipole moment (field-independent basis, Debye):
    X=              0.0000    Y=              0.0000    Z=              1.2169  Tot=              1.2169
 Quadrupole moment (field-independent basis, Debye-Ang):
   XX=            -17.2098   YY=            -17.2098   ZZ=            -15.7731
   XY=              0.0000   XZ=              0.0000   YZ=              0.0000

 Normal termination of Gaussian 16 at Wed Oct  7 12:35:53 2020.
