 Gaussian 16, Revision A.03,
 Gaussian 16:  ES64L-G16RevA.03 25-Dec-2016

 ----------------------------------------------------------------------
 #P Opt(MaxCyc=100) HF/6-31G* 5D 7F Integral=UltraFineGrid SCF=(NoSymm,
 XQC,MaxCyc=120) IOp(1/33=1)
 ----------------------------------------------------------------------

 TstMul:  Mul=     2
 TstMul:  ICh=     0
 TstMul:  Mul=     2
 Symbolic Z-matrix:
 Charge =  0 Multiplicity = 2

 SCF Done:  E(UHF) =  -39.5586975692     A.U. after   11 cycles
 SCF Done:  E(UHF) =  -39.5587463475     A.U. after    9 cycles
 Optimization completed.
    -- Stationary point found.

                         Standard orientation:
 ---------------------------------------------------------------------
 Center     Atomic      Atomic             Coordinates (Angstroms)
 Number     Number       Type             X           Y           Z
 ---------------------------------------------------------------------
      1          6           0        0.000000    0.000000    0.000000
      2          1           0        0.000000    1.072003    0.000000
      3          1           0        0.928382   -0.536002    0.000000
      4          1           0       -0.928382   -0.536002    0.000000
 ---------------------------------------------------------------------

 The electronic state is 2-A2".
 Alpha  occ. eigenvalues --  -11.22476  -0.94767  -0.57952  -0.57952  -0.38330
 Alpha virt. eigenvalues --    0.25609   0.33188   0.33188   0.73718   0.73718
 Alpha virt. eigenvalues --    0.74674   0.89912   1.20992   1.20992   1.21605
 Alpha virt. eigenvalues --    1.92356   1.92356   2.33158   2.53228   2.53228
  Beta  occ. eigenvalues --  -11.20022  -0.85416  -0.56480  -0.56480
  Beta virt. eigenvalues --    0.15717   0.28154   0.34081   0.34081   0.74849
  Beta virt. eigenvalues --    0.74849   0.89542   0.94649   1.21905   1.21905
  Beta virt. eigenvalues --    1.25245   2.02277   2.02277   2.41950   2.54827

 Mulliken charges and spin densities:
               1          2
     1  C   -0.535598   1.293075
     2  H    0.178533  -0.097692
     3  H    0.178533  -0.097692
     4  H    0.178533  -0.097692
 Sum of Mulliken charges =  -0.00000   1.00000

 Dipole moment (field-independent basis, Debye):
    X=             -0.0000    Y=              0.0000    Z=              0.0000  Tot=              0.0000
 Quadrupole moment (field-independent basis, Debye-Ang):
   XX=             -7.1133   YY=             -7.1133   ZZ=             -8.7117
   XY=             -0.0000   XZ=             -0.0000   YZ=              0.0000

 Normal termination of Gaussian 16 at Wed Oct  7 12:35:27 2020.
