 Gaussian 16, Revision A.03,
 Gaussian 16:  ES64L-G16RevA.03 25-Dec-2016

 ----------------------------------------------------------------------
 #P Opt(MaxCyc=100) HF/6-31G* 5D 7F Integral=UltraFineGrid SCF=(NoSymm,
 XQC,MaxCyc=120) IOp(1/33=1)
 ----------------------------------------------------------------------

 TstMul:  Mul=     1
 TstMul:  ICh=    -1
 TstMul:  Mul=     1
 Symbolic Z-matrix:
 Charge = -1 Multiplicity = 1

 SCF Done:  E(RHF) =  -958.631840931     A.U. after   11 cycles
 SCF Done:  E(RHF) =  -958.632046434     A.U. after    8 cycles
 SCF Done:  E(RHF) =  -958.632088057     A.U. after    8 cycles
 SCF Done:  E(RHF) =  -958.632116982     A.U. after    8 cycles
 SCF Done:  E(RHF) =  -958.632120276     A.U. after    7 cycles
 SCF Done:  E(RHF) =  -958.632122090     A.U. after    7 cycles
 SCF Done:  E(RHF) =  -958.632122575     A.U. after    7 cycles
 Optimization completed.
    -- Stationary point found.

                         Standard orientation:
 ---------------------------------------------------------------------
 Center     Atomic      Atomic             Coordinates (Angstroms)
 Number     Number       Type             X           Y           Z
 ---------------------------------------------------------------------
      1         17           0        0.000000    0.000000   -2.419056
      2          6           0        0.000000    0.000000   -0.590136
      3          1           0       -0.000000    1.020604   -0.259303
      4          1           0       -0.883869   -0.510302   -0.259303
      5          1           0        0.883869   -0.510302   -0.259303
      6         17           0        0.000000    0.000000    2.673098
 ---------------------------------------------------------------------

 The electronic state is 1-A1.
 Alpha  occ. eigenvalues -- -104.67595-104.48721 -11.14116 -10.41569 -10.22057
 Alpha  occ. eigenvalues --   -7.88410  -7.88120  -7.88120  -7.68795  -7.68787
 Alpha  occ. eigenvalues --   -7.68787  -0.98859  -0.77919  -0.72930  -0.47608
 Alpha  occ. eigenvalues --   -0.47608  -0.40228  -0.31043  -0.31043  -0.14962
 Alpha  occ. eigenvalues --   -0.14920  -0.14920
 Alpha virt. eigenvalues --    0.33109   0.40423   0.44616   0.44616   0.71317
 Alpha virt. eigenvalues --    0.74157   0.77027   0.77027   0.81859   0.85220
 Alpha virt. eigenvalues --    0.85220   0.90425   0.92775   0.92775   1.17553

 Mulliken charges:
               1
     1  Cl  -0.242127
     2  C   -0.487811
     3  H    0.234890
     4  H    0.234890
     5  H    0.234890
     6  Cl  -0.974731
 Sum of Mulliken charges =  -1.00000

 Dipole moment (field-independent basis, Debye):
    X=             -0.0000    Y=             -0.0000    Z=             -8.8491  Tot=              8.8491
 Quadrupole moment (field-independent basis, Debye-Ang):
   XX=            -35.8173   YY=            -35.8173   ZZ=            -79.0813
   XY=             -0.0000   XZ=              0.0000   YZ=              0.0000

 Normal termination of Gaussian 16 at Wed Oct  7 12:37:05 2020.
