 Gaussian 16, Revision A.03,

 ----------------------------------------------------------------------
 #P Opt(TS,MaxCyc=150,NoEigenTest,MaxStep=10,AddRedundant) HF/6-31G* 5D
  7F Integral=UltraFineGrid SCF=(NoSymm,XQC,MaxCyc=120) IOp(1/33=1)
 ----------------------------------------------------------------------

 TstMul:  Mul=     2
 TstMul:  ICh=     0
 TstMul:  Mul=     2
 Symbolic Z-matrix:
 Charge =  0 Multiplicity = 2

 SCF Done:  E(UHF) =  -598.356161093     A.U. after   20 cycles
 SCF Done:  E(UHF) =  -598.357883752     A.U. after   18 cycles
 SCF Done:  E(UHF) =  -598.357823457     A.U. after   17 cycles
 SCF Done:  E(UHF) =  -598.358442033     A.U. after   17 cycles
 SCF Done:  E(UHF) =  -598.359357291     A.U. after   18 cycles
 SCF Done:  E(UHF) =  -598.360910991     A.U. after   19 cycles
 SCF Done:  E(UHF) =  -598.359336458     A.U. after   19 cycles
 SCF Done:  E(UHF) =  -598.359665056     A.U. after   18 cycles
 SCF Done:  E(UHF) =  -598.359916828     A.U. after   18 cycles
 SCF Done:  E(UHF) =  -598.360048594     A.U. after   18 cycles
 SCF Done:  E(UHF) =  -598.360037740     A.U. after   18 cycles
 SCF Done:  E(UHF) =  -598.360038609     A.U. after   17 cycles
 SCF Done:  E(UHF) =  -598.360039310     A.U. after   17 cycles
 SCF Done:  E(UHF) =  -598.360039760     A.U. after   17 cycles
 SCF Done:  E(UHF) =  -598.360040291     A.U. after   17 cycles
 SCF Done:  E(UHF) =  -598.360040746     A.U. after   16 cycles
 SCF Done:  E(UHF) =  -598.360041121     A.U. after   17 cycles
 SCF Done:  E(UHF) =  -598.360041222     A.U. after   16 cycles
 SCF Done:  E(UHF) =  -598.360041252     A.U. after   16 cycles
 Optimization completed.
    -- Stationary point found.
 Normal termination of Gaussian 16 at Wed Oct  7 12:41:12 2020.
 Gaussian 16:  ES64L-G16RevA.03 25-Dec-2016

 ----------------------------------------------------------------------
 #P Freq HF/6-31G* 5D 7F Integral=UltraFineGrid SCF=(NoSymm,XQC,MaxCyc=
 120) IOp(1/33=1) Geom=Check Guess=Read
 ----------------------------------------------------------------------

 TstMul:  Mul=     2
 TstMul:  ICh=     0
 TstMul:  Mul=     2
 Structure from the checkpoint file:  "MN_21_ch3fclts_BH76_HF_631Gs.chk"
 Charge =  0 Multiplicity = 2

                         Standard orientation:
 ---------------------------------------------------------------------
 Center     Atomic      Atomic             Coordinates (Angstroms)
 Number     Number       Type             X           Y           Z
 ---------------------------------------------------------------------
      1         17           0        1.625226   -0.000198   -0.000243
      2          9           0       -0.233324    0.000830    0.001042
      3          6           0       -2.813340   -0.000396   -0.000503
      4          1           0       -2.882707   -0.895184    0.586765
      5          1           0       -2.887106    0.955525    0.480251
      6          1           0       -2.879072   -0.062063   -1.069244
 ---------------------------------------------------------------------

 SCF Done:  E(UHF) =  -598.360041252     A.U. after    1 cycles

 The electronic state is 2-A.
 Alpha  occ. eigenvalues -- -104.88751 -26.35185 -11.23113 -10.62156  -8.10395
 Alpha  occ. eigenvalues --   -8.08340  -8.08340  -1.53094  -1.11922  -0.95071
 Alpha  occ. eigenvalues --   -0.68373  -0.68373  -0.58976  -0.58219  -0.58218
 Alpha  occ. eigenvalues --   -0.49350  -0.49350  -0.38075
 Alpha virt. eigenvalues --    0.07156   0.25506   0.32969   0.32970   0.51548
 Alpha virt. eigenvalues --    0.56857   0.61245   0.61245   0.73294   0.73294
 Alpha virt. eigenvalues --    0.77195   0.89639   1.01940   1.01940   1.10743

  Beta  occ. eigenvalues -- -104.87962 -26.38388 -11.20737 -10.61405  -8.07945
  Beta  occ. eigenvalues --   -8.07945  -8.06906  -1.64187  -1.05836  -0.86170
  Beta  occ. eigenvalues --   -0.75319  -0.71252  -0.71252  -0.56789  -0.56789
  Beta  occ. eigenvalues --   -0.48251  -0.48251
  Beta virt. eigenvalues --    0.01493   0.16414   0.27880   0.33889   0.33889
  Beta virt. eigenvalues --    0.53405   0.61742   0.61742   0.62356   0.74367
  Beta virt. eigenvalues --    0.74367   0.90055   0.93303   1.08192   1.08192

 Mulliken charges and spin densities:
               1          2
     1  Cl   0.170290   0.669035
     2  F   -0.188739  -0.642295
     3  C   -0.534246   1.249948
     4  H    0.184233  -0.092229
     5  H    0.184200  -0.092230
     6  H    0.184261  -0.092229
 Sum of Mulliken charges =   0.00000   1.00000

 Dipole moment (field-independent basis, Debye):
    X=              0.1418    Y=             -0.0009    Z=             -0.0011  Tot=              0.1418
 Quadrupole moment (field-independent basis, Debye-Ang):
   XX=            -21.0677   YY=            -24.5899   ZZ=            -24.5897
   XY=             -0.0040   XZ=             -0.0053   YZ=             -0.0000

  Exact polarizability:  39.140  -0.021  18.174  -0.028   0.000  18.173
 Approx polarizability:  24.206  -0.016  15.238  -0.022  -0.000  15.238

 ******    1 imaginary frequencies (negative Signs) ******

                      1                      2                      3
                      A                      A                      A
 Frequencies --   -504.4722                71.4140                74.1363
 Red. masses --     21.2073                 5.3933                 6.8670
 Frc consts  --      3.1799                 0.0162                 0.0222
 IR Inten    --    122.4434                 3.0318                 0.8984
 Raman Activ --      3.4992                21.5730                 2.7461

                      4                      5                      6
                      A                      A                      A
 Frequencies --     74.1874               212.7305               213.3839
 Red. masses --      6.8942                 1.0897                 1.0890
 Frc consts  --      0.0224                 0.0291                 0.0292
 IR Inten    --      0.8977                 0.2655                 0.2672
 Raman Activ --      2.7382                 9.7555                 9.7684

                      7                      8                      9
                      A                      A                      A
 Frequencies --    512.7575              1545.1643              1545.1753
 Red. masses --      1.1935                 1.1005                 1.1005
 Frc consts  --      0.1849                 1.5481                 1.5481
 IR Inten    --    110.3806                 0.7258                 0.7230
 Raman Activ --      9.2085                 4.7322                 4.7157

                     10                     11                     12
                      A                      A                      A
 Frequencies --   3285.3393              3461.5904              3461.6543
 Red. masses --      1.0085                 1.1186                 1.1186
 Frc consts  --      6.4135                 7.8974                 7.8977
 IR Inten    --      0.0503                 9.4301                 9.4167
 Raman Activ --    112.6639                40.5011                40.3271

 - Thermochemistry -
 -------------------
 Temperature   298.150 Kelvin.  Pressure   1.00000 Atm.
 Atom     1 has atomic number 17 and mass  34.96885

 Molecular mass:    68.99073 amu.
 Principal axes and moments of inertia in atomic units:
                           1         2         3
     Eigenvalues --    12.36797 763.53700 763.53709
           X            1.00000   0.00001   0.00000
           Y           -0.00001   0.82918  -0.55898
           Z           -0.00001   0.55898   0.82918
 This molecule is an asymmetric top.
 Rotational symmetry number  1.
 Rotational temperatures (Kelvin)      7.00309     0.11344     0.11344
 Rotational constants (GHZ):         145.92062     2.36366     2.36366
    1 imaginary frequencies ignored.
 Zero-point vibrational energy      86475.3 (Joules/Mol)
                                   20.66808 (Kcal/Mol)
 Warning -- explicit consideration of   6 degrees of freedom as
           vibrations may cause significant error
 Vibrational temperatures:    102.75   106.67   106.74   306.07   307.01
          (Kelvin)            737.74  2223.15  2223.16  4726.87  4980.46
                             4980.55

 Zero-point correction=                           0.032937 (Hartree/Particle)
 Thermal correction to Energy=                    0.039435
 Thermal correction to Enthalpy=                  0.040379
 Thermal correction to Gibbs Free Energy=         0.002199
 Sum of electronic and zero-point Energies=           -598.327105
 Sum of electronic and thermal Energies=              -598.320607
 Sum of electronic and thermal Enthalpies=            -598.319662
 Sum of electronic and thermal Free Energies=         -598.357842

                     E (Thermal)             CV                S
                      KCal/Mol        Cal/Mol-Kelvin    Cal/Mol-Kelvin
 Total                   24.746             16.853             80.356
 Electronic               0.000              0.000              1.377
 Translational            0.889              2.981             38.612
 Rotational               0.889              2.981             23.493
 Vibrational             22.968             10.892             16.875
 Vibration     1          0.598              1.968              4.114
 Vibration     2          0.599              1.966              4.040
 Vibration     3          0.599              1.966              4.039
 Vibration     4          0.644              1.822              2.020
 Vibration     5          0.644              1.821              2.015
 Vibration     6          0.868              1.222              0.627

                           ! Non-Optimized Parameters !
 Normal termination of Gaussian 16 at Wed Oct  7 12:41:40 2020.
