 Gaussian 16, Revision A.03,
 Gaussian 16:  ES64L-G16RevA.03 25-Dec-2016

 ----------------------------------------------------------------------
 #P Opt(MaxCyc=100) HF/6-31G* 5D 7F Integral=UltraFineGrid SCF=(NoSymm,
 XQC,MaxCyc=120) IOp(1/33=1)
 ----------------------------------------------------------------------

 TstMul:  Mul=     1
 TstMul:  ICh=     0
 TstMul:  Mul=     1
 Symbolic Z-matrix:
 Charge =  0 Multiplicity = 1

 SCF Done:  E(RHF) =  -139.032762942     A.U. after   10 cycles
 SCF Done:  E(RHF) =  -139.033046546     A.U. after    8 cycles
 SCF Done:  E(RHF) =  -139.033063064     A.U. after    8 cycles
 SCF Done:  E(RHF) =  -139.033063983     A.U. after    7 cycles
 Optimization completed.
    -- Stationary point found.

                         Standard orientation:
 ---------------------------------------------------------------------
 Center     Atomic      Atomic             Coordinates (Angstroms)
 Number     Number       Type             X           Y           Z
 ---------------------------------------------------------------------
      1          6           0        0.000000    0.000000   -0.623452
      2          9           0        0.000000    0.000000    0.741134
      3          1           0        0.000000    1.022437   -0.976498
      4          1           0        0.885457   -0.511219   -0.976498
      5          1           0       -0.885457   -0.511219   -0.976498
 ---------------------------------------------------------------------

 The electronic state is 1-A1.
 Alpha  occ. eigenvalues --  -26.26530 -11.29668  -1.58114  -0.95299  -0.69152
 Alpha  occ. eigenvalues --   -0.69152  -0.67015  -0.52244  -0.52244
 Alpha virt. eigenvalues --    0.25080   0.31980   0.31980   0.32057   0.74015
 Alpha virt. eigenvalues --    0.74015   0.78869   1.12120   1.12120   1.15199
 Alpha virt. eigenvalues --    1.21117   1.55768   1.57694   1.57694   1.80212

 Mulliken charges:
               1
     1  C   -0.026222
     2  F   -0.442902
     3  H    0.156374
     4  H    0.156374
     5  H    0.156374
 Sum of Mulliken charges =  -0.00000

 Dipole moment (field-independent basis, Debye):
    X=              0.0000    Y=              0.0000    Z=             -1.9900  Tot=              1.9900
 Quadrupole moment (field-independent basis, Debye-Ang):
   XX=            -11.6926   YY=            -11.6926   ZZ=            -12.1240
   XY=             -0.0000   XZ=              0.0000   YZ=              0.0000

 Normal termination of Gaussian 16 at Wed Oct  7 12:35:29 2020.
