 Gaussian 16, Revision A.03,
 Gaussian 16:  ES64L-G16RevA.03 25-Dec-2016

 ----------------------------------------------------------------------
 #P Opt(MaxCyc=100) HF/6-31G* 5D 7F Integral=UltraFineGrid SCF=(NoSymm,
 XQC,MaxCyc=120) IOp(1/33=1)
 ----------------------------------------------------------------------

 TstMul:  Mul=     1
 TstMul:  ICh=     0
 TstMul:  Mul=     1
 Symbolic Z-matrix:
 Charge =  0 Multiplicity = 1

 SCF Done:  E(RHF) =  -115.033819521     A.U. after   11 cycles
 SCF Done:  E(RHF) =  -115.034214736     A.U. after    9 cycles
 SCF Done:  E(RHF) =  -115.034235970     A.U. after    9 cycles
 SCF Done:  E(RHF) =  -115.034237324     A.U. after    8 cycles
 Optimization completed.
    -- Stationary point found.

                         Standard orientation:
 ---------------------------------------------------------------------
 Center     Atomic      Atomic             Coordinates (Angstroms)
 Number     Number       Type             X           Y           Z
 ---------------------------------------------------------------------
      1          6           0       -0.046107    0.653982    0.000000
      2          8           0       -0.046107   -0.745012    0.000000
      3          1           0       -1.078997    0.972876    0.000000
      4          1           0        0.846297   -1.060669    0.000000
      5          1           0        0.439099    1.061998    0.883541
      6          1           0        0.439099    1.061998   -0.883541
 ---------------------------------------------------------------------

 The electronic state is 1-A'.
 Alpha  occ. eigenvalues --  -20.55076 -11.26317  -1.36032  -0.92682  -0.69371
 Alpha  occ. eigenvalues --   -0.62088  -0.59550  -0.49724  -0.44310
 Alpha virt. eigenvalues --    0.22867   0.28189   0.32391   0.33070   0.38813
 Alpha virt. eigenvalues --    0.76330   0.77464   0.80001   1.05591   1.13022
 Alpha virt. eigenvalues --    1.17203   1.21420   1.24184   1.25396   1.28564

 Mulliken charges:
               1
     1  C   -0.149941
     2  O   -0.761754
     3  H    0.175597
     4  H    0.449507
     5  H    0.143296
     6  H    0.143296
 Sum of Mulliken charges =  -0.00000

 Dipole moment (field-independent basis, Debye):
    X=              1.5365    Y=              1.0443    Z=             -0.0000  Tot=              1.8578
 Quadrupole moment (field-independent basis, Debye-Ang):
   XX=            -11.5846   YY=            -13.0324   ZZ=            -13.6416
   XY=             -2.2443   XZ=              0.0000   YZ=              0.0000

 Normal termination of Gaussian 16 at Wed Oct  7 12:35:48 2020.
