 Gaussian 16, Revision A.03,

 ----------------------------------------------------------------------
 #P Opt(TS,MaxCyc=50,NoEigenTest,MaxStep=10,AddRedundant) HF/6-31G* 5D
 7F Integral=UltraFineGrid SCF=(NoSymm,XQC,MaxCyc=120) IOp(1/33=1)
 ----------------------------------------------------------------------

 TstMul:  Mul=     1
 TstMul:  ICh=    -1
 TstMul:  Mul=     1
 Symbolic Z-matrix:
 Charge = -1 Multiplicity = 1

 SCF Done:  E(RHF) =  -958.609461061     A.U. after   11 cycles
 SCF Done:  E(RHF) =  -958.610155032     A.U. after   10 cycles
 SCF Done:  E(RHF) =  -958.610409628     A.U. after   10 cycles
 SCF Done:  E(RHF) =  -958.610544582     A.U. after   10 cycles
 SCF Done:  E(RHF) =  -958.610501635     A.U. after    9 cycles
 SCF Done:  E(RHF) =  -958.610503174     A.U. after    8 cycles
 Optimization completed.
    -- Stationary point found.

 1\1\GINC-NODE13\FTS\RHF\6-31G(d)\C1H3Cl2(1-)\RPEVERATI\07-Oct-2020\0\\
 #P Opt(TS,MaxCyc=50,NoEigenTest,MaxStep=10,AddRedundant) HF/6-31G* 5D
 7F Integral=UltraFineGrid SCF=(NoSymm,XQC,MaxCyc=120) IOp(1/33=1)\\TS
 search on BH76.\\-1,1\Cl,0.0003948307,0.0204350962,2.3832274081\C,0.00
 03027296,0.0002945493,0.0000651848\H,0.7553501109,-0.7453074324,0.0061
 721348\H,-1.0229406786,-0.2808160486,0.0022842757\H,0.2684877798,1.026
 9581783,-0.0087871398\Cl,0.000203067,-0.019865786,-2.3831815496\\Versi
 on=ES64L-G16RevA.03\State=1-A\HF=-958.6105032\RMSD=4.436e-09\RMSF=3.57

 Normal termination of Gaussian 16 at Wed Oct  7 12:36:28 2020.
 Gaussian 16:  ES64L-G16RevA.03 25-Dec-2016

 ----------------------------------------------------------------------
 #P Freq HF/6-31G* 5D 7F Integral=UltraFineGrid SCF=(NoSymm,XQC,MaxCyc=
 120) IOp(1/33=1) Geom=Check Guess=Read
 ----------------------------------------------------------------------

 TstMul:  Mul=     1
 TstMul:  ICh=    -1
 TstMul:  Mul=     1
 Structure from the checkpoint file:  "MN_28_clch3clts_BH76_HF_631Gs.chk"
 Charge = -1 Multiplicity = 1

                         Standard orientation:
 ---------------------------------------------------------------------
 Center     Atomic      Atomic             Coordinates (Angstroms)
 Number     Number       Type             X           Y           Z
 ---------------------------------------------------------------------
      1         17           0        2.383293    0.000001   -0.000001
      2          6           0        0.000046   -0.000009    0.000001
      3          1           0       -0.000121    0.533169    0.917485
      4          1           0       -0.000153    0.528005   -0.920464
      5          1           0       -0.000115   -1.061155    0.002983
      6         17           0       -2.383286    0.000001    0.000000
 ---------------------------------------------------------------------

 SCF Done:  E(RHF) =  -958.610503174     A.U. after    1 cycles

 The electronic state is 1-A.
 Alpha  occ. eigenvalues -- -104.56483-104.56479 -11.17990 -10.30072 -10.30068
 Alpha  occ. eigenvalues --   -7.76842  -7.76838  -7.76726  -7.76726  -7.76722
 Alpha  occ. eigenvalues --   -7.76722  -0.86651  -0.81677  -0.76687  -0.49373
 Alpha  occ. eigenvalues --   -0.49372  -0.28195  -0.22739  -0.22739  -0.22045
 Alpha  occ. eigenvalues --   -0.22045  -0.19275
 Alpha virt. eigenvalues --    0.28091   0.38152   0.45066   0.45066   0.76317
 Alpha virt. eigenvalues --    0.77408   0.81424   0.81425   0.84067   0.84067
 Alpha virt. eigenvalues --    0.89685   0.91620   0.91620   0.95597   1.13458

 Mulliken charges:
               1
     1  Cl  -0.746134
     2  C   -0.299116
     3  H    0.263838
     4  H    0.263838
     5  H    0.263840
     6  Cl  -0.746267
 Sum of Mulliken charges =  -1.00000

 Dipole moment (field-independent basis, Debye):
    X=              0.0013    Y=             -0.0000    Z=              0.0000  Tot=              0.0013
 Quadrupole moment (field-independent basis, Debye-Ang):
   XX=            -78.5771   YY=            -35.8059   ZZ=            -35.8060
   XY=             -0.0000   XZ=              0.0000   YZ=             -0.0000

  Exact polarizability:  81.370  -0.000  21.223   0.000   0.000  21.223
 Approx polarizability:  55.005  -0.000  19.186   0.000   0.000  19.186

 ******    1 imaginary frequencies (negative Signs) ******

                      1                      2                      3
                      A                      A                      A
 Frequencies --   -412.8141               204.1387               204.1388
 Red. masses --     12.5615                 4.3630                 4.3630
 Frc consts  --      1.2612                 0.1071                 0.1071
 IR Inten    --   1315.7355                27.8951                27.8952
 Raman Activ --      0.0000                 0.0032                 0.0032

                      4                      5                      6
                      A                      A                      A
 Frequencies --    214.3378              1007.2490              1007.2638
 Red. masses --     34.9615                 1.0120                 1.0120
 Frc consts  --      0.9463                 0.6049                 0.6050
 IR Inten    --      0.0000                 0.0000                 0.0000
 Raman Activ --      5.7374                 7.9246                 7.9247

                      7                      8                      9
                      A                      A                      A
 Frequencies --   1224.1612              1548.5540              1548.5949
 Red. masses --      1.0483                 1.1020                 1.1020
 Frc consts  --      0.9256                 1.5570                 1.5571
 IR Inten    --    278.1167                 5.0841                 5.0839
 Raman Activ --      0.0001                 2.7038                 2.7045

                     10                     11                     12
                      A                      A                      A
 Frequencies --   3423.3851              3636.6234              3636.6892
 Red. masses --      1.0078                 1.1247                 1.1247
 Frc consts  --      6.9590                 8.7633                 8.7636
 IR Inten    --      0.0000                 5.7033                 5.7056
 Raman Activ --     94.6346                20.6361                20.6333

 - Thermochemistry -
 -------------------
 Temperature   298.150 Kelvin.  Pressure   1.00000 Atm.
 Atom     1 has atomic number 17 and mass  34.96885

 Molecular mass:    84.96118 amu.
 Principal axes and moments of inertia in atomic units:
                           1         2         3
     Eigenvalues --    12.157991424.688091424.68832
           X            1.00000  -0.00000   0.00000
           Y            0.00000   1.00000   0.00000
           Z           -0.00000  -0.00000   1.00000
 This molecule is an asymmetric top.
 Rotational symmetry number  1.
 Rotational temperatures (Kelvin)      7.12403     0.06080     0.06079
 Rotational constants (GHZ):         148.44070     1.26676     1.26676
    1 imaginary frequencies ignored.
 Zero-point vibrational energy     105601.2 (Joules/Mol)
                                   25.23928 (Kcal/Mol)
 Warning -- explicit consideration of   3 degrees of freedom as
           vibrations may cause significant error
 Vibrational temperatures:    293.71   293.71   308.38  1449.21  1449.23
          (Kelvin)           1761.29  2228.02  2228.08  4925.49  5232.29
                             5232.38

 Zero-point correction=                           0.040221 (Hartree/Particle)
 Thermal correction to Energy=                    0.044796
 Thermal correction to Enthalpy=                  0.045740
 Thermal correction to Gibbs Free Energy=         0.012299
 Sum of electronic and zero-point Energies=           -958.570282
 Sum of electronic and thermal Energies=              -958.565707
 Sum of electronic and thermal Enthalpies=            -958.564763
 Sum of electronic and thermal Free Energies=         -958.598204

                     E (Thermal)             CV                S
                      KCal/Mol        Cal/Mol-Kelvin    Cal/Mol-Kelvin
 Total                   28.110             12.503             70.383
 Electronic               0.000              0.000              0.000
 Translational            0.889              2.981             39.232
 Rotational               0.889              2.981             24.715
 Vibrational             26.332              6.542              6.436
 Vibration     1          0.640              1.834              2.095
 Vibration     2          0.640              1.834              2.095
 Vibration     3          0.644              1.819              2.006

 Optimization completed.
    -- Stationary point found.
 Normal termination of Gaussian 16 at Wed Oct  7 12:36:57 2020.
