 Gaussian 16, Revision A.03,
 Gaussian 16:  ES64L-G16RevA.03 25-Dec-2016

 ----------------------------------------------------------------------
 #P HF/6-31G* 5D 7F Integral=UltraFineGrid SCF=(NoSymm,XQC,MaxCyc=120)
 IOp(1/33=1) Stable=Opt
 ----------------------------------------------------------------------

 TstMul:  Mul=     2
 TstMul:  ICh=     0
 TstMul:  Mul=     2
 Symbolic Z-matrix:
 Charge =  0 Multiplicity = 2

                         Standard orientation:
 ---------------------------------------------------------------------
 Center     Atomic      Atomic             Coordinates (Angstroms)
 Number     Number       Type             X           Y           Z
 ---------------------------------------------------------------------
      1         17           0        0.000000    0.000000    0.000000
 ---------------------------------------------------------------------

 SCF Done:  E(UHF) =  -459.446508752     A.U. after    9 cycles

 Unable to determine electronic state:  an orbital has unidentified symmetry.
 Alpha  occ. eigenvalues -- -104.87193 -10.60773  -8.09454  -8.06893  -8.06893
 Alpha  occ. eigenvalues --   -1.13336  -0.57594  -0.50142  -0.50142
 Alpha virt. eigenvalues --    0.50038   0.56758   0.60902   0.60902   1.04672
 Alpha virt. eigenvalues --    1.06278   1.06278   1.11776   1.11776
  Beta  occ. eigenvalues -- -104.86052 -10.59636  -8.06297  -8.06297  -8.04621
  Beta  occ. eigenvalues --   -1.01123  -0.47614  -0.47614
  Beta virt. eigenvalues --   -0.03765   0.52464   0.61786   0.61786   0.66235
  Beta virt. eigenvalues --    1.12782   1.12782   1.16048   1.16048   1.17342

 Mulliken charges and spin densities:
               1          2
     1  Cl  -0.000000   1.000000
 Sum of Mulliken charges =  -0.00000   1.00000

 Dipole moment (field-independent basis, Debye):
    X=              0.0000    Y=             -0.0000    Z=             -0.0000  Tot=              0.0000
 Quadrupole moment (field-independent basis, Debye-Ang):
   XX=            -13.0743   YY=            -13.0740   ZZ=            -10.7684
   XY=              0.0000   XZ=             -0.0000   YZ=              0.0281

 Normal termination of Gaussian 16 at Wed Oct  7 12:35:37 2020.
