 Gaussian 16, Revision A.03,

 ----------------------------------------------------------------------
 #P Opt(TS,MaxCyc=50,NoEigenTest,MaxStep=10,AddRedundant) HF/6-31G* 5D
 7F Integral=UltraFineGrid SCF=(NoSymm,XQC,MaxCyc=120) IOp(1/33=1)
 ----------------------------------------------------------------------

 TstMul:  Mul=     1
 TstMul:  ICh=    -1
 TstMul:  Mul=     1
 Symbolic Z-matrix:
 Charge = -1 Multiplicity = 1

 SCF Done:  E(RHF) =  -238.389906542     A.U. after   11 cycles
 SCF Done:  E(RHF) =  -238.390201174     A.U. after   10 cycles
 SCF Done:  E(RHF) =  -238.390370418     A.U. after   10 cycles
 SCF Done:  E(RHF) =  -238.390307621     A.U. after    9 cycles
 SCF Done:  E(RHF) =  -238.390308753     A.U. after    8 cycles
 Optimization completed.
    -- Stationary point found.
 Normal termination of Gaussian 16 at Wed Oct  7 12:36:54 2020.
 Gaussian 16:  ES64L-G16RevA.03 25-Dec-2016

 ----------------------------------------------------------------------
 #P Freq HF/6-31G* 5D 7F Integral=UltraFineGrid SCF=(NoSymm,XQC,MaxCyc=
 120) IOp(1/33=1) Geom=Check Guess=Read
 ----------------------------------------------------------------------

 TstMul:  Mul=     1
 TstMul:  ICh=    -1
 TstMul:  Mul=     1
 Structure from the checkpoint file:  "MN_39_fch3fts_BH76_HF_631Gs.chk"
 Charge = -1 Multiplicity = 1

                         Standard orientation:
 ---------------------------------------------------------------------
 Center     Atomic      Atomic             Coordinates (Angstroms)
 Number     Number       Type             X           Y           Z
 ---------------------------------------------------------------------
      1          9           0        1.798274    0.000013    0.000007
      2          6           0       -0.000097   -0.000023   -0.000017
      3          1           0        0.000040   -0.458678    0.957850
      4          1           0        0.000050    1.058840   -0.081756
      5          1           0        0.000032   -0.600267   -0.876128
      6          9           0       -1.798223    0.000014    0.000008
 ---------------------------------------------------------------------

 SCF Done:  E(RHF) =  -238.390308753     A.U. after    1 cycles

 The electronic state is 1-A.
 Alpha  occ. eigenvalues --  -25.88827 -25.88815 -11.09065  -1.16797  -1.16186
 Alpha  occ. eigenvalues --   -0.71576  -0.41536  -0.41535  -0.31419  -0.26353
 Alpha  occ. eigenvalues --   -0.26353  -0.23760  -0.23760  -0.19028
 Alpha virt. eigenvalues --    0.45511   0.51219   0.51661   0.51662   0.95932
 Alpha virt. eigenvalues --    0.95933   1.08130   1.30605   1.39271   1.39273
 Alpha virt. eigenvalues --    1.56310   1.73951   1.73951   1.90828   1.90828

 Mulliken charges:
               1
     1  F   -0.767814
     2  C    0.052330
     3  H    0.161053
     4  H    0.161057
     5  H    0.161050
     6  F   -0.767676
 Sum of Mulliken charges =  -1.00000

 Dipole moment (field-independent basis, Debye):
    X=             -0.0019    Y=             -0.0001    Z=             -0.0001  Tot=              0.0019
 Quadrupole moment (field-independent basis, Debye-Ang):
   XX=            -40.4328   YY=            -17.3310   ZZ=            -17.3311
   XY=              0.0000   XZ=              0.0000   YZ=              0.0000

  Exact polarizability:  24.322   0.000  13.599   0.000  -0.000  13.599
 Approx polarizability:  18.056   0.000  11.583   0.000  -0.000  11.583

 ******    1 imaginary frequencies (negative Signs) ******

                      1                      2                      3
                      A                      A                      A
 Frequencies --   -657.2803               374.7947               374.8063
 Red. masses --     11.9149                 4.4071                 4.4072
 Frc consts  --      3.0328                 0.3647                 0.3648
 IR Inten    --   1063.4826                32.9470                32.9471
 Raman Activ --      0.0000                 0.0075                 0.0075

                      4                      5                      6
                      A                      A                      A
 Frequencies --    394.5141              1214.2214              1214.2570
 Red. masses --     18.9851                 1.0211                 1.0211
 Frc consts  --      1.7410                 0.8869                 0.8870
 IR Inten    --      0.0000                 0.0000                 0.0000
 Raman Activ --      5.1360                10.7048                10.7047

                      7                      8                      9
                      A                      A                      A
 Frequencies --   1370.6631              1531.7250              1531.7531
 Red. masses --      1.0740                 1.1178                 1.1178
 Frc consts  --      1.1888                 1.5452                 1.5452
 IR Inten    --     10.0038                 0.6855                 0.6854
 Raman Activ --      0.0000                 3.9925                 3.9931

                     10                     11                     12
                      A                      A                      A
 Frequencies --   3372.9580              3569.3927              3569.4287
 Red. masses --      1.0079                 1.1290                 1.1290
 Frc consts  --      6.7557                 8.4746                 8.4747
 IR Inten    --      0.0000                37.8649                37.8635
 Raman Activ --    120.9194                34.1084                34.1071

 - Thermochemistry -
 -------------------
 Temperature   298.150 Kelvin.  Pressure   1.00000 Atm.
 Atom     1 has atomic number  9 and mass  18.99840

 Molecular mass:    53.02028 amu.
 Principal axes and moments of inertia in atomic units:
                           1         2         3
     Eigenvalues --    12.17764 444.86614 444.86646
           X            1.00000   0.00000   0.00000
           Y           -0.00000   1.00000  -0.00005
           Z           -0.00000   0.00005   1.00000
 This molecule is an asymmetric top.
 Rotational symmetry number  1.
 Rotational temperatures (Kelvin)      7.11254     0.19470     0.19470
 Rotational constants (GHZ):         148.20121     4.05682     4.05682
    1 imaginary frequencies ignored.
 Zero-point vibrational energy     110765.3 (Joules/Mol)
                                   26.47354 (Kcal/Mol)
 Warning -- explicit consideration of   3 degrees of freedom as
           vibrations may cause significant error
 Vibrational temperatures:    539.25   539.26   567.62  1746.99  1747.04
          (Kelvin)           1972.08  2203.81  2203.85  4852.93  5135.56
                             5135.61

 Zero-point correction=                           0.042188 (Hartree/Particle)
 Thermal correction to Energy=                    0.046054
 Thermal correction to Enthalpy=                  0.046998
 Thermal correction to Gibbs Free Energy=         0.016849
 Sum of electronic and zero-point Energies=           -238.348120
 Sum of electronic and thermal Energies=              -238.344255
 Sum of electronic and thermal Enthalpies=            -238.343311
 Sum of electronic and thermal Free Energies=         -238.373459

                     E (Thermal)             CV                S
                      KCal/Mol        Cal/Mol-Kelvin    Cal/Mol-Kelvin
 Total                   28.899             11.134             63.453
 Electronic               0.000              0.000              0.000
 Translational            0.889              2.981             37.827
 Rotational               0.889              2.981             22.404
 Vibrational             27.122              5.172              3.222
 Vibration     1          0.746              1.524              1.060
 Vibration     2          0.746              1.524              1.060
 Vibration     3          0.761              1.482              0.983

 Optimization completed.
    -- Stationary point found.

 1\1\GINC-NODE33\Freq\RHF\6-31G(d)\C1H3F2(1-)\RPEVERATI\07-Oct-2020\0\\
 #P Freq HF/6-31G* 5D 7F Integral=UltraFineGrid SCF=(NoSymm,XQC,MaxCyc=
 120) IOp(1/33=1) Geom=Check Guess=Read\\TS search on BH76.\\-1,1\F,1.7
 983532306,-0.0003508718,-0.000039291\C,-0.000017739,-0.0003048663,-0.0
 000419287\H,0.0001138931,-0.3026462369,1.0180268171\H,0.0001759789,1.0
 325354239,-0.2472524683\H,0.000069776,-0.7308370954,-0.7708767492\F,-1
 .7981441021,-0.0001799987,-0.0000067911\\Version=ES64L-G16RevA.03\Stat
 e=1-A\HF=-238.3903088\RMSD=9.696e-10\RMSF=3.078e-05\ZeroPoint=0.042188

 Normal termination of Gaussian 16 at Wed Oct  7 12:37:20 2020.
