 Gaussian 16, Revision A.03,
 Gaussian 16:  ES64L-G16RevA.03 25-Dec-2016

 ----------------------------------------------------------------------
 #P Opt(MaxCyc=100) HF/6-31G* 5D 7F Integral=UltraFineGrid SCF=(NoSymm,
 XQC,MaxCyc=120) IOp(1/33=1)
 ----------------------------------------------------------------------

 TstMul:  Mul=     1
 TstMul:  ICh=    -1
 TstMul:  Mul=     1
 Symbolic Z-matrix:
 Charge = -1 Multiplicity = 1

 SCF Done:  E(RHF) =  -238.416567436     A.U. after   11 cycles
 SCF Done:  E(RHF) =  -238.417013980     A.U. after    9 cycles
 SCF Done:  E(RHF) =  -238.417111719     A.U. after    8 cycles
 SCF Done:  E(RHF) =  -238.417191014     A.U. after    9 cycles
 SCF Done:  E(RHF) =  -238.417201942     A.U. after    8 cycles
 SCF Done:  E(RHF) =  -238.417203325     A.U. after    8 cycles
 Optimization completed.
    -- Stationary point found.

                         Standard orientation:
 ---------------------------------------------------------------------
 Center     Atomic      Atomic             Coordinates (Angstroms)
 Number     Number       Type             X           Y           Z
 ---------------------------------------------------------------------
      1          9           0        0.000000    0.000000   -1.809908
      2          6           0        0.000000    0.000000   -0.398836
      3          1           0       -0.000000    1.015047   -0.050893
      4          1           0       -0.879056   -0.507523   -0.050893
      5          1           0        0.879056   -0.507523   -0.050893
      6          9           0        0.000000    0.000000    2.092763
 ---------------------------------------------------------------------

 The electronic state is 1-A1.
 Alpha  occ. eigenvalues --  -26.07669 -25.75852 -11.08864  -1.38354  -1.02721
 Alpha  occ. eigenvalues --   -0.74711  -0.49371  -0.49371  -0.46716  -0.33125
 Alpha  occ. eigenvalues --   -0.33125  -0.13549  -0.13549  -0.13111
 Alpha virt. eigenvalues --    0.44988   0.52479   0.52479   0.55590   0.93352
 Alpha virt. eigenvalues --    0.93352   1.00881   1.33646   1.33646   1.38901
 Alpha virt. eigenvalues --    1.44095   1.73520   1.74725   1.74725   1.95037

 Mulliken charges:
               1
     1  F   -0.529364
     2  C   -0.026143
     3  H    0.157943
     4  H    0.157943
     5  H    0.157943
     6  F   -0.918322
 Sum of Mulliken charges =  -1.00000

 Dipole moment (field-independent basis, Debye):
    X=             -0.0000    Y=             -0.0000    Z=             -6.2404  Tot=              6.2404
 Quadrupole moment (field-independent basis, Debye-Ang):
   XX=            -17.5458   YY=            -17.5458   ZZ=            -43.3926
   XY=             -0.0000   XZ=             -0.0000   YZ=              0.0000

 1\1\GINC-NODE56\FOpt\RHF\6-31G(d)\C1H3F2(1-)\RPEVERATI\07-Oct-2020\0\\
 #P Opt(MaxCyc=100) HF/6-31G* 5D 7F Integral=UltraFineGrid SCF=(NoSymm,
 XQC,MaxCyc=120) IOp(1/33=1)\\TS search on BH76.\\-1,1\F,0.,0.,-1.76512
 84544\C,0.,0.,-0.3540564346\H,-0.5075234434,0.8790563901,-0.0061128521
 \H,-0.5075234434,-0.8790563901,-0.0061128521\H,1.0150468869,0.,-0.0061
 128521\F,0.,0.,2.1375427791\\Version=ES64L-G16RevA.03\State=1-A1\HF=-2
 38.4172033\RMSD=3.723e-09\RMSF=1.614e-05\Dipole=0.,0.,-2.4551736\Quadr
 upole=6.4054719,6.4054719,-12.8109439,0.,0.,0.\PG=C03V [C3(F1C1F1),3SG

 Normal termination of Gaussian 16 at Wed Oct  7 12:37:25 2020.
