 Gaussian 16, Revision A.03,
 Gaussian 16:  ES64L-G16RevA.03 25-Dec-2016

 ----------------------------------------------------------------------
 #P Opt(MaxCyc=100) HF/6-31G* 5D 7F Integral=UltraFineGrid SCF=(NoSymm,
 XQC,MaxCyc=120) IOp(1/33=1)
 ----------------------------------------------------------------------

 TstMul:  Mul=     1
 TstMul:  ICh=     0
 TstMul:  Mul=     1
 Symbolic Z-matrix:
 Charge =  0 Multiplicity = 1

 SCF Done:  E(RHF) =  -198.671413958     A.U. after    8 cycles
 SCF Done:  E(RHF) =  -198.673461168     A.U. after    8 cycles
 SCF Done:  E(RHF) =  -198.673461679     A.U. after    6 cycles
 Optimization completed.
    -- Stationary point found.

                         Standard orientation:
 ---------------------------------------------------------------------
 Center     Atomic      Atomic             Coordinates (Angstroms)
 Number     Number       Type             X           Y           Z
 ---------------------------------------------------------------------
      1          9           0        0.000000    0.000000    0.673608
      2          9           0        0.000000    0.000000   -0.673608
 ---------------------------------------------------------------------

 The electronic state is 1-SGG.
 Alpha  occ. eigenvalues --  -26.42048 -26.42022  -1.79334  -1.47140  -0.81717
 Alpha  occ. eigenvalues --   -0.81717  -0.76691  -0.64376  -0.64376
 Alpha virt. eigenvalues --    0.16436   1.36176   1.36744   1.36744   1.51304
 Alpha virt. eigenvalues --    1.53911   1.53911   1.54191   1.80862   1.80862
 Alpha virt. eigenvalues --    1.94552   1.94552   2.08823   2.23879   2.23879

 Mulliken charges:
               1
     1  F   -0.000000
     2  F   -0.000000
 Sum of Mulliken charges =  -0.00000

 Dipole moment (field-independent basis, Debye):
    X=              0.0000    Y=              0.0000    Z=              0.0000  Tot=              0.0000
 Quadrupole moment (field-independent basis, Debye-Ang):
   XX=             -9.2704   YY=             -9.2704   ZZ=             -8.5672
   XY=              0.0000   XZ=              0.0000   YZ=              0.0000

 Normal termination of Gaussian 16 at Wed Oct  7 12:36:09 2020.
