 Gaussian 16, Revision A.03,
 Gaussian 16:  ES64L-G16RevA.03 25-Dec-2016

 ----------------------------------------------------------------------
 #P Opt(MaxCyc=100) HF/6-31G* 5D 7F Integral=UltraFineGrid SCF=(NoSymm,
 XQC,MaxCyc=120) IOp(1/33=1)
 ----------------------------------------------------------------------

 TstMul:  Mul=     1
 TstMul:  ICh=    -1
 TstMul:  Mul=     1
 Symbolic Z-matrix:
 Charge = -1 Multiplicity = 1

 SCF Done:  E(RHF) =  -598.571348372     A.U. after   11 cycles
 SCF Done:  E(RHF) =  -598.571716713     A.U. after    8 cycles
 SCF Done:  E(RHF) =  -598.571779668     A.U. after    8 cycles
 SCF Done:  E(RHF) =  -598.571855066     A.U. after    8 cycles
 SCF Done:  E(RHF) =  -598.571860634     A.U. after    8 cycles
 SCF Done:  E(RHF) =  -598.571863589     A.U. after    7 cycles
 Optimization completed.
    -- Stationary point found.

                         Standard orientation:
 ---------------------------------------------------------------------
 Center     Atomic      Atomic             Coordinates (Angstroms)
 Number     Number       Type             X           Y           Z
 ---------------------------------------------------------------------
      1          9           0        0.000000    0.000000   -2.690411
      2          6           0        0.000000    0.000000   -1.301450
      3          1           0       -0.000000    1.018333   -0.949615
      4          1           0       -0.881902   -0.509167   -0.949615
      5          1           0        0.881902   -0.509167   -0.949615
      6         17           0        0.000000    0.000000    2.051249
 ---------------------------------------------------------------------

 The electronic state is 1-A1.
 Alpha  occ. eigenvalues -- -104.48157 -26.12507 -11.13981 -10.21485  -7.68223
 Alpha  occ. eigenvalues --   -7.68217  -7.68217  -1.43557  -0.79970  -0.72391
 Alpha  occ. eigenvalues --   -0.54416  -0.54416  -0.52024  -0.37644  -0.37644
 Alpha  occ. eigenvalues --   -0.14446  -0.14347  -0.14347
 Alpha virt. eigenvalues --    0.40563   0.47757   0.47757   0.48278   0.81929
 Alpha virt. eigenvalues --    0.87896   0.87896   0.90841   0.93097   0.93097
 Alpha virt. eigenvalues --    1.04141   1.28627   1.28627   1.37327   1.37997

 Mulliken charges:
               1
     1  F   -0.494923
     2  C   -0.030145
     3  H    0.168646
     4  H    0.168646
     5  H    0.168646
     6  Cl  -0.980872
 Sum of Mulliken charges =  -1.00000

 Dipole moment (field-independent basis, Debye):
    X=             -0.0000    Y=             -0.0000    Z=             -6.9212  Tot=              6.9212
 Quadrupole moment (field-independent basis, Debye-Ang):
   XX=            -27.4019   YY=            -27.4019   ZZ=            -57.4825
   XY=             -0.0000   XZ=              0.0000   YZ=              0.0000

 Normal termination of Gaussian 16 at Wed Oct  7 12:37:09 2020.
