 Gaussian 16, Revision A.03,
 Gaussian 16:  ES64L-G16RevA.03 25-Dec-2016

 ----------------------------------------------------------------------
 #P Opt(MaxCyc=100) HF/6-31G* 5D 7F Integral=UltraFineGrid SCF=(NoSymm,
 XQC,MaxCyc=120) IOp(1/33=1)
 ----------------------------------------------------------------------

 TstMul:  Mul=     1
 TstMul:  ICh=     0
 TstMul:  Mul=     1
 Symbolic Z-matrix:
 Charge =  0 Multiplicity = 1

 SCF Done:  E(RHF) =  -112.736659817     A.U. after    9 cycles
 SCF Done:  E(RHF) =  -112.737339934     A.U. after    8 cycles
 SCF Done:  E(RHF) =  -112.737340285     A.U. after    7 cycles
 Optimization completed.
    -- Stationary point found.

                         Standard orientation:
 ---------------------------------------------------------------------
 Center     Atomic      Atomic             Coordinates (Angstroms)
 Number     Number       Type             X           Y           Z
 ---------------------------------------------------------------------
      1          8           0        0.000000    0.000000    0.477272
      2          6           0        0.000000    0.000000   -0.636363
 ---------------------------------------------------------------------

 The electronic state is 1-SG.
 Alpha  occ. eigenvalues --  -20.67199 -11.35698  -1.52937  -0.79776  -0.63924
 Alpha  occ. eigenvalues --   -0.63924  -0.54570
 Alpha virt. eigenvalues --    0.16819   0.16819   0.41132   0.73337   0.73337
 Alpha virt. eigenvalues --    0.77397   1.01894   1.14406   1.20695   1.20695
 Alpha virt. eigenvalues --    1.74462   1.74462   1.78053   1.85725   1.85725

 Mulliken charges:
               1
     1  O   -0.277655
     2  C    0.277655
 Sum of Mulliken charges =   0.00000

 Dipole moment (field-independent basis, Debye):
    X=              0.0000    Y=              0.0000    Z=             -0.2624  Tot=              0.2624
 Quadrupole moment (field-independent basis, Debye-Ang):
   XX=             -9.8819   YY=             -9.8819   ZZ=            -12.0650
   XY=              0.0000   XZ=              0.0000   YZ=              0.0000

 Normal termination of Gaussian 16 at Wed Oct  7 12:36:15 2020.
