 Gaussian 16, Revision A.03,
 Gaussian 16:  ES64L-G16RevA.03 25-Dec-2016

 ----------------------------------------------------------------------
 #P Opt(MaxCyc=100) HF/6-31G* 5D 7F Integral=UltraFineGrid SCF=(NoSymm,
 XQC,MaxCyc=120) IOp(1/33=1)
 ----------------------------------------------------------------------

 TstMul:  Mul=     1
 TstMul:  ICh=    -1
 TstMul:  Mul=     1
 Symbolic Z-matrix:
 Charge = -1 Multiplicity = 1

 SCF Done:  E(RHF) =  -598.479933296     A.U. after   12 cycles
 SCF Done:  E(RHF) =  -598.480474004     A.U. after   10 cycles
 SCF Done:  E(RHF) =  -598.480942714     A.U. after   10 cycles
 SCF Done:  E(RHF) =  -598.481526619     A.U. after   11 cycles
 SCF Done:  E(RHF) =  -598.482659042     A.U. after   11 cycles
 SCF Done:  E(RHF) =  -598.501413910     A.U. after   12 cycles
 SCF Done:  E(RHF) =  -598.540189167     A.U. after   12 cycles
 SCF Done:  E(RHF) =  -598.563032745     A.U. after   11 cycles
 SCF Done:  E(RHF) =  -598.567398339     A.U. after   11 cycles
 SCF Done:  E(RHF) =  -598.569690026     A.U. after    9 cycles
 SCF Done:  E(RHF) =  -598.571255648     A.U. after    9 cycles
 SCF Done:  E(RHF) =  -598.571782464     A.U. after    9 cycles
 SCF Done:  E(RHF) =  -598.571859933     A.U. after    9 cycles
 SCF Done:  E(RHF) =  -598.571862826     A.U. after    7 cycles
 Optimization completed.
    -- Stationary point found.

                         Standard orientation:
 ---------------------------------------------------------------------
 Center     Atomic      Atomic             Coordinates (Angstroms)
 Number     Number       Type             X           Y           Z
 ---------------------------------------------------------------------
      1         17           0        0.000000    0.000000    2.051386
      2          6           0        0.000000    0.000000   -1.301373
      3          1           0        0.000000    1.017882   -0.950223
      4          1           0        0.881511   -0.508941   -0.950223
      5          1           0       -0.881511   -0.508941   -0.950223
      6          9           0        0.000000    0.000000   -2.690517
 ---------------------------------------------------------------------

 The electronic state is 1-A1.
 Alpha  occ. eigenvalues -- -104.48158 -26.12495 -11.13961 -10.21486  -7.68224
 Alpha  occ. eigenvalues --   -7.68217  -7.68217  -1.43543  -0.79990  -0.72392
 Alpha  occ. eigenvalues --   -0.54417  -0.54417  -0.52014  -0.37661  -0.37661
 Alpha  occ. eigenvalues --   -0.14447  -0.14348  -0.14348
 Alpha virt. eigenvalues --    0.40568   0.47768   0.47768   0.48275   0.81927
 Alpha virt. eigenvalues --    0.87876   0.87876   0.90837   0.93093   0.93093
 Alpha virt. eigenvalues --    1.04152   1.28684   1.28684   1.37358   1.38015

 Mulliken charges:
               1
     1  Cl  -0.980882
     2  C   -0.029947
     3  H    0.168676
     4  H    0.168676
     5  H    0.168676
     6  F   -0.495200
 Sum of Mulliken charges =  -1.00000

 Dipole moment (field-independent basis, Debye):
    X=             -0.0000    Y=             -0.0000    Z=             -6.9205  Tot=              6.9205
 Quadrupole moment (field-independent basis, Debye-Ang):
   XX=            -27.3995   YY=            -27.3995   ZZ=            -57.4900
   XY=             -0.0000   XZ=             -0.0000   YZ=              0.0000

 Normal termination of Gaussian 16 at Wed Oct  7 12:38:33 2020.
