 Gaussian 16, Revision A.03,
 Gaussian 16:  ES64L-G16RevA.03 25-Dec-2016

 ----------------------------------------------------------------------
 #P Opt(MaxCyc=100) HF/6-31G* 5D 7F Integral=UltraFineGrid SCF=(NoSymm,
 XQC,MaxCyc=120) IOp(1/33=1)
 ----------------------------------------------------------------------

 TstMul:  Mul=     1
 TstMul:  ICh=     0
 TstMul:  Mul=     1
 Symbolic Z-matrix:
 Charge =  0 Multiplicity = 1

 SCF Done:  E(RHF) =  -398.665569846     A.U. after   10 cycles
 SCF Done:  E(RHF) =  -398.665752912     A.U. after    8 cycles
 SCF Done:  E(RHF) =  -398.665761787     A.U. after    8 cycles
 Optimization completed.
    -- Stationary point found.

                         Standard orientation:
 ---------------------------------------------------------------------
 Center     Atomic      Atomic             Coordinates (Angstroms)
 Number     Number       Type             X           Y           Z
 ---------------------------------------------------------------------
      1         16           0        0.000000    0.000000    0.100171
      2          1           0       -0.000000    0.972614   -0.801364
      3          1           0       -0.000000   -0.972614   -0.801364
 ---------------------------------------------------------------------

 The electronic state is 1-A1.
 Alpha  occ. eigenvalues --  -91.94252  -8.96292  -6.64502  -6.64373  -6.64086
 Alpha  occ. eigenvalues --   -0.98861  -0.60212  -0.49804  -0.38384
 Alpha virt. eigenvalues --    0.17269   0.21064   0.48118   0.48474   0.51617
 Alpha virt. eigenvalues --    0.53625   0.89797   0.98702   1.00925   1.02221
 Alpha virt. eigenvalues --    1.02861   1.32931   1.53858

 Mulliken charges:
               1
     1  S   -0.224894
     2  H    0.112447
     3  H    0.112447
 Sum of Mulliken charges =   0.00000

 Dipole moment (field-independent basis, Debye):
    X=             -0.0000    Y=              0.0000    Z=             -1.4093  Tot=              1.4093
 Quadrupole moment (field-independent basis, Debye-Ang):
   XX=            -16.7787   YY=            -12.2716   ZZ=            -13.8643
   XY=              0.0000   XZ=              0.0000   YZ=             -0.0000

 Normal termination of Gaussian 16 at Wed Oct  7 12:36:44 2020.
