 Gaussian 16, Revision A.03,

 ----------------------------------------------------------------------
 #P Opt(TS,MaxCyc=50,NoEigenTest,MaxStep=10,AddRedundant) HF/6-31G* 5D
 7F Integral=UltraFineGrid SCF=(NoSymm,XQC,MaxCyc=120) IOp(1/33=1)
 ----------------------------------------------------------------------

 TstMul:  Mul=     1
 TstMul:  ICh=     0
 TstMul:  Mul=     1
 Symbolic Z-matrix:
 Charge =  0 Multiplicity = 1

 SCF Done:  E(RHF) =  -92.7917419688     A.U. after   13 cycles
 SCF Done:  E(RHF) =  -92.7917397106     A.U. after   12 cycles
 SCF Done:  E(RHF) =  -92.7914187330     A.U. after   12 cycles
 SCF Done:  E(RHF) =  -92.7914187748     A.U. after   11 cycles
 Optimization completed.
    -- Stationary point found.
 Normal termination of Gaussian 16 at Wed Oct  7 12:37:05 2020.
 Gaussian 16:  ES64L-G16RevA.03 25-Dec-2016

 ----------------------------------------------------------------------
 #P Freq HF/6-31G* 5D 7F Integral=UltraFineGrid SCF=(NoSymm,XQC,MaxCyc=
 120) IOp(1/33=1) Geom=Check Guess=Read
 ----------------------------------------------------------------------

 TstMul:  Mul=     1
 TstMul:  ICh=     0
 TstMul:  Mul=     1
 Structure from the checkpoint file:  "MN_49_hcnts_BH76_HF_631Gs.chk"
 Charge =  0 Multiplicity = 1

                         Standard orientation:
 ---------------------------------------------------------------------
 Center     Atomic      Atomic             Coordinates (Angstroms)
 Number     Number       Type             X           Y           Z
 ---------------------------------------------------------------------
      1          6           0        0.080562    0.602435    0.000000
      2          7           0        0.080562   -0.566590    0.000000
      3          1           0       -1.047307    0.351524    0.000000
 ---------------------------------------------------------------------

 SCF Done:  E(RHF) =  -92.7914187748     A.U. after    1 cycles

 The electronic state is 1-A'.
 Alpha  occ. eigenvalues --  -15.65591 -11.28456  -1.30684  -0.71079  -0.61786
 Alpha  occ. eigenvalues --   -0.52990  -0.48887
 Alpha virt. eigenvalues --    0.10868   0.18942   0.23787   0.46021   0.72931
 Alpha virt. eigenvalues --    0.74979   0.78275   0.89152   0.98835   0.99831
 Alpha virt. eigenvalues --    1.02405   1.14816   1.51770   1.74040   1.78906

 Mulliken charges:
               1
     1  C   -0.053072
     2  N   -0.240128
     3  H    0.293200
 Sum of Mulliken charges =   0.00000

 Dipole moment (field-independent basis, Debye):
    X=             -1.4201    Y=              0.2666    Z=              0.0000  Tot=              1.4449
 Quadrupole moment (field-independent basis, Debye-Ang):
   XX=             -9.5969   YY=            -14.2235   ZZ=            -11.9445
   XY=             -0.6426   XZ=              0.0000   YZ=              0.0000

  Exact polarizability:  12.502  -0.126  17.780  -0.000   0.000   8.403
 Approx polarizability:  12.095   0.137  19.465  -0.000   0.000   7.827

 ******    1 imaginary frequencies (negative Signs) ******

                      1                      2                      3
                     A'                     A'                     A'
 Frequencies --  -1225.8481              2238.8009              2854.4565
 Red. masses --      1.1707                12.1304                 1.0648
 Frc consts  --      1.0365                35.8225                 5.1115
 IR Inten    --     76.3843                 7.7671               126.8903
 Raman Activ --      8.1073                20.9903                46.4195

 - Thermochemistry -
 -------------------
 Temperature   298.150 Kelvin.  Pressure   1.00000 Atm.
 Atom     1 has atomic number  6 and mass  12.00000

 Molecular mass:    27.01090 amu.
 Principal axes and moments of inertia in atomic units:
                           1         2         3
     Eigenvalues --     4.32842  32.11308  36.44150
           X           -0.05333   0.99858   0.00000
           Y            0.99858   0.05333   0.00000
           Z            0.00000   0.00000   1.00000
 This molecule is an asymmetric top.
 Rotational symmetry number  1.
 Rotational temperatures (Kelvin)     20.01054     2.69715     2.37679
 Rotational constants (GHZ):         416.95193    56.19956    49.52434
    1 imaginary frequencies ignored.
 Zero-point vibrational energy      30464.4 (Joules/Mol)
                                    7.28118 (Kcal/Mol)
 Vibrational temperatures:   3221.14  4106.93
          (Kelvin)

 Zero-point correction=                           0.011603 (Hartree/Particle)
 Thermal correction to Energy=                    0.014436
 Thermal correction to Enthalpy=                  0.015380
 Thermal correction to Gibbs Free Energy=        -0.009372
 Sum of electronic and zero-point Energies=            -92.779815
 Sum of electronic and thermal Energies=               -92.776983
 Sum of electronic and thermal Enthalpies=             -92.776039
 Sum of electronic and thermal Free Energies=          -92.800791

                     E (Thermal)             CV                S
                      KCal/Mol        Cal/Mol-Kelvin    Cal/Mol-Kelvin
 Total                    9.059              5.967             52.095
 Electronic               0.000              0.000              0.000
 Translational            0.889              2.981             35.816
 Rotational               0.889              2.981             16.278
 Vibrational              7.281              0.005              0.001

 Optimization completed.
    -- Stationary point found.
 Normal termination of Gaussian 16 at Wed Oct  7 12:37:30 2020.
