 Gaussian 16, Revision A.03,

 ----------------------------------------------------------------------
 #P Opt(TS,MaxCyc=50,NoEigenTest,MaxStep=10,AddRedundant) HF/6-31G* 5D
 7F Integral=UltraFineGrid SCF=(NoSymm,XQC,MaxCyc=120) IOp(1/33=1)
 ----------------------------------------------------------------------

 TstMul:  Mul=     2
 TstMul:  ICh=     0
 TstMul:  Mul=     2
 Symbolic Z-matrix:
 Charge =  0 Multiplicity = 2

 SCF Done:  E(UHF) =  -460.502596533     A.U. after   11 cycles
 SCF Done:  E(UHF) =  -460.503082415     A.U. after   10 cycles
 SCF Done:  E(UHF) =  -460.503159699     A.U. after   10 cycles
 SCF Done:  E(UHF) =  -460.503160852     A.U. after    8 cycles
 Optimization completed.
    -- Stationary point found.
 Normal termination of Gaussian 16 at Wed Oct  7 12:37:03 2020.
 Gaussian 16:  ES64L-G16RevA.03 25-Dec-2016

 ----------------------------------------------------------------------
 #P Freq HF/6-31G* 5D 7F Integral=UltraFineGrid SCF=(NoSymm,XQC,MaxCyc=
 120) IOp(1/33=1) Geom=Check Guess=Read
 ----------------------------------------------------------------------

 TstMul:  Mul=     2
 TstMul:  ICh=     0
 TstMul:  Mul=     2
 Structure from the checkpoint file:  "MN_45_hclhts_BH76_HF_631Gs.chk"
 Charge =  0 Multiplicity = 2

                         Standard orientation:
 ---------------------------------------------------------------------
 Center     Atomic      Atomic             Coordinates (Angstroms)
 Number     Number       Type             X           Y           Z
 ---------------------------------------------------------------------
      1          1           0        0.000000    0.000000    1.523939
      2         17           0        0.000000    0.000000    0.000000
      3          1           0        0.000000    0.000000   -1.523939
 ---------------------------------------------------------------------

 SCF Done:  E(UHF) =  -460.503160852     A.U. after    1 cycles

 The electronic state is 2-SGG.
 Alpha  occ. eigenvalues -- -104.85083 -10.58905  -8.05283  -8.05283  -8.05019
 Alpha  occ. eigenvalues --   -1.11634  -0.69641  -0.49135  -0.49135  -0.39160
 Alpha virt. eigenvalues --    0.14397   0.58079   0.60854   0.60854   0.82732
 Alpha virt. eigenvalues --    0.83066   0.91687   1.11777   1.11777   1.12625
 Alpha virt. eigenvalues --    1.12625   1.36369
  Beta  occ. eigenvalues -- -104.85213 -10.58813  -8.06512  -8.05198  -8.05198
  Beta  occ. eigenvalues --   -1.11369  -0.62260  -0.48159  -0.48159
  Beta virt. eigenvalues --    0.05799   0.24223   0.57444   0.61713   0.61713
  Beta virt. eigenvalues --    0.81648   0.90446   1.05063   1.09025   1.09025
  Beta virt. eigenvalues --    1.13657   1.13657   1.40997

 Mulliken charges and spin densities:
               1          2
     1  H    0.124750   0.676629
     2  Cl  -0.249501  -0.353257
     3  H    0.124750   0.676629
 Sum of Mulliken charges =  -0.00000   1.00000

 Dipole moment (field-independent basis, Debye):
    X=              0.0000    Y=              0.0000    Z=              0.0000  Tot=              0.0000
 Quadrupole moment (field-independent basis, Debye-Ang):
   XX=            -15.3966   YY=            -15.3966   ZZ=            -12.1091
   XY=             -0.0000   XZ=             -0.0000   YZ=              0.0000

  Exact polarizability:   6.040   0.000   6.040  -0.000  -0.000  39.326
 Approx polarizability:   5.390   0.000   5.390  -0.000  -0.000  27.481

 ******    1 imaginary frequencies (negative Signs) ******

                      1                      2                      3
                     SGU                    PIU                    PIU
 Frequencies --  -2198.8646               504.3775               504.3775
 Red. masses --      1.0641                 1.0641                 1.0641
 Frc consts  --      3.0314                 0.1595                 0.1595
 IR Inten    --   2439.2230                32.8090                32.8090
 Raman Activ --      0.0000                 0.0000                 0.0000

                      4
                     SGG
 Frequencies --   1621.3303
 Red. masses --      1.0078
 Frc consts  --      1.5609
 IR Inten    --      0.0000
 Raman Activ --     94.1264

 - Thermochemistry -
 -------------------
 Temperature   298.150 Kelvin.  Pressure   1.00000 Atm.
 Atom     1 has atomic number  1 and mass   1.00783

 Molecular mass:    36.98450 amu.
 Principal axes and moments of inertia in atomic units:
                           1         2         3
     Eigenvalues --     0.00000  16.71660  16.71660
           X           -0.00000   0.70711   0.70711
           Y           -0.00000   0.70711  -0.70711
           Z            1.00000   0.00000   0.00000
 This molecule is a prolate symmetric top.
 Rotational symmetry number  2.
 Rotational temperature (Kelvin)      5.18131
 Rotational constant (GHZ):         107.961009
    1 imaginary frequencies ignored.
 Zero-point vibrational energy      15731.4 (Joules/Mol)
                                    3.75990 (Kcal/Mol)
 Warning -- explicit consideration of   2 degrees of freedom as
           vibrations may cause significant error
 Vibrational temperatures:    725.69   725.69  2332.73
          (Kelvin)

 Zero-point correction=                           0.005992 (Hartree/Particle)
 Thermal correction to Energy=                    0.008797
 Thermal correction to Enthalpy=                  0.009741
 Thermal correction to Gibbs Free Energy=        -0.013110
 Sum of electronic and zero-point Energies=           -460.497169
 Sum of electronic and thermal Energies=              -460.494364
 Sum of electronic and thermal Enthalpies=            -460.493420
 Sum of electronic and thermal Free Energies=         -460.516271

                     E (Thermal)             CV                S
                      KCal/Mol        Cal/Mol-Kelvin    Cal/Mol-Kelvin
 Total                    5.520              7.497             48.095
 Electronic               0.000              0.000              1.377
 Translational            0.889              2.981             36.753
 Rotational               0.592              1.987              8.663
 Vibrational              4.039              2.529              1.302
 Vibration     1          0.860              1.240              0.647
 Vibration     2          0.860              1.240              0.647

 Optimization completed.
    -- Stationary point found.
 Normal termination of Gaussian 16 at Wed Oct  7 12:37:31 2020.
