 Gaussian 16, Revision A.03,
 Gaussian 16:  ES64L-G16RevA.03 25-Dec-2016

 ----------------------------------------------------------------------
 #P Opt(MaxCyc=100) HF/6-31G* 5D 7F Integral=UltraFineGrid SCF=(NoSymm,
 XQC,MaxCyc=120) IOp(1/33=1)
 ----------------------------------------------------------------------

 TstMul:  Mul=     1
 TstMul:  ICh=     0
 TstMul:  Mul=     1
 Symbolic Z-matrix:
 Charge =  0 Multiplicity = 1

 SCF Done:  E(RHF) =  -92.8733628977     A.U. after   10 cycles
 SCF Done:  E(RHF) =  -92.8745217419     A.U. after    9 cycles
 SCF Done:  E(RHF) =  -92.8745388417     A.U. after    8 cycles
 Optimization completed.
    -- Stationary point found.

                         Standard orientation:
 ---------------------------------------------------------------------
 Center     Atomic      Atomic             Coordinates (Angstroms)
 Number     Number       Type             X           Y           Z
 ---------------------------------------------------------------------
      1          6           0        0.000000    0.000000   -0.490672
      2          7           0        0.000000    0.000000    0.641872
      3          1           0        0.000000    0.000000   -1.549070
 ---------------------------------------------------------------------

 The electronic state is 1-SG.
 Alpha  occ. eigenvalues --  -15.59795 -11.28603  -1.24273  -0.80870  -0.57354
 Alpha  occ. eigenvalues --   -0.49700  -0.49700
 Alpha virt. eigenvalues --    0.20436   0.20436   0.23365   0.42385   0.73717
 Alpha virt. eigenvalues --    0.73717   0.84427   0.91278   1.04163   1.04163
 Alpha virt. eigenvalues --    1.06243   1.46780   1.73364   1.76915   1.76915

 Mulliken charges:
               1
     1  C    0.027114
     2  N   -0.339763
     3  H    0.312650
 Sum of Mulliken charges =  -0.00000

 Dipole moment (field-independent basis, Debye):
    X=              0.0000    Y=              0.0000    Z=             -3.2065  Tot=              3.2065
 Quadrupole moment (field-independent basis, Debye-Ang):
   XX=            -11.5626   YY=            -11.5626   ZZ=             -9.5341
   XY=              0.0000   XZ=              0.0000   YZ=             -0.0000

 Normal termination of Gaussian 16 at Wed Oct  7 12:36:51 2020.
