 Gaussian 16, Revision A.03,
 Gaussian 16:  ES64L-G16RevA.03 25-Dec-2016

 ----------------------------------------------------------------------
 #P HF/6-31G* 5D 7F Integral=UltraFineGrid SCF=(NoSymm,XQC,MaxCyc=120)
 IOp(1/33=1) Stable=Opt
 ----------------------------------------------------------------------

 TstMul:  Mul=     2
 TstMul:  ICh=     0
 TstMul:  Mul=     2
 Symbolic Z-matrix:
 Charge =  0 Multiplicity = 2

                         Standard orientation:
 ---------------------------------------------------------------------
 Center     Atomic      Atomic             Coordinates (Angstroms)
 Number     Number       Type             X           Y           Z
 ---------------------------------------------------------------------
      1          9           0        0.000000    0.000000    0.000000
 ---------------------------------------------------------------------

 SCF Done:  E(UHF) =  -99.3634120219     A.U. after    8 cycles

 Unable to determine electronic state:  an orbital has unidentified symmetry.
 Alpha  occ. eigenvalues --  -26.39756  -1.65547  -0.82496  -0.71708  -0.71708
 Alpha virt. eigenvalues --    1.36359   1.43204   1.43204   1.56566   2.03885
 Alpha virt. eigenvalues --    2.05565   2.05565   2.10981   2.10981
  Beta  occ. eigenvalues --  -26.34901  -1.46391  -0.66546  -0.66546
  Beta virt. eigenvalues --    0.09170   1.45741   1.45741   1.58723   1.62257
  Beta virt. eigenvalues --    2.11646   2.11646   2.14436   2.14436   2.15578

 Mulliken charges and spin densities:
               1          2
     1  F   -0.000000   1.000000
 Sum of Mulliken charges =  -0.00000   1.00000

 Dipole moment (field-independent basis, Debye):
    X=              0.0000    Y=              0.0000    Z=              0.0000  Tot=              0.0000
 Quadrupole moment (field-independent basis, Debye-Ang):
   XX=             -4.7256   YY=             -4.7256   ZZ=             -3.8723
   XY=              0.0000   XZ=             -0.0000   YZ=              0.0030

 1\1\GINC-NODE22\Stability\UHF\6-31G(d)\F1(2)\RPEVERATI\07-Oct-2020\0\\
 #P HF/6-31G* 5D 7F Integral=UltraFineGrid SCF=(NoSymm,XQC,MaxCyc=120)
 IOp(1/33=1) Stable=Opt\\TS search on BH76.\\0,2\F,0,0.,0.,0.\\Version=
 ES64L-G16RevA.03\HF=-99.363412\S2=0.752626\S2-1=0.\S2A=0.750003\RMSD=6
 .240e-09\Dipole=0.,0.,0.\Quadrupole=0.4229431,-0.2114675,-0.2114756,0.
 0022578,0.,0.\PG=OH [O(F1)]\\@

 Normal termination of Gaussian 16 at Wed Oct  7 12:36:04 2020.
