 Gaussian 16, Revision A.03,
 Gaussian 16:  ES64L-G16RevA.03 25-Dec-2016

 ----------------------------------------------------------------------
 #P Opt(MaxCyc=100) HF/6-31G* 5D 7F Integral=UltraFineGrid SCF=(NoSymm,
 XQC,MaxCyc=120) IOp(1/33=1)
 ----------------------------------------------------------------------

 TstMul:  Mul=     1
 TstMul:  ICh=     0
 TstMul:  Mul=     1
 Symbolic Z-matrix:
 Charge =  0 Multiplicity = 1

 SCF Done:  E(RHF) =  -76.0091429957     A.U. after   10 cycles
 SCF Done:  E(RHF) =  -76.0093406678     A.U. after    9 cycles
 SCF Done:  E(RHF) =  -76.0093412986     A.U. after    7 cycles
 Optimization completed.
    -- Stationary point found.

                         Standard orientation:
 ---------------------------------------------------------------------
 Center     Atomic      Atomic             Coordinates (Angstroms)
 Number     Number       Type             X           Y           Z
 ---------------------------------------------------------------------
      1          8           0       -0.000000   -0.000000    0.114565
      2          1           0        0.000000    0.754861   -0.458258
      3          1           0       -0.000000   -0.754861   -0.458258
 ---------------------------------------------------------------------

 The electronic state is 1-A1.
 Alpha  occ. eigenvalues --  -20.55224  -1.34545  -0.71415  -0.57049  -0.49785
 Alpha virt. eigenvalues --    0.21705   0.30716   1.03193   1.16855   1.16874
 Alpha virt. eigenvalues --    1.19635   1.38546   1.65972   2.02125   2.03027
 Alpha virt. eigenvalues --    2.06718   2.64339   2.96519

 Mulliken charges:
               1
     1  O   -0.900341
     2  H    0.450170
     3  H    0.450170
 Sum of Mulliken charges =  -0.00000

 Dipole moment (field-independent basis, Debye):
    X=             -0.0000    Y=             -0.0000    Z=             -2.1904  Tot=              2.1904
 Quadrupole moment (field-independent basis, Debye-Ang):
   XX=             -7.2144   YY=             -4.0875   ZZ=             -5.9922
   XY=              0.0000   XZ=              0.0000   YZ=             -0.0000

 Normal termination of Gaussian 16 at Wed Oct  7 12:36:44 2020.
