 Gaussian 16, Revision A.03,
 Gaussian 16:  ES64L-G16RevA.03 25-Dec-2016

 ----------------------------------------------------------------------
 #P Opt(MaxCyc=100) HF/6-31G* 5D 7F Integral=UltraFineGrid SCF=(NoSymm,
 XQC,MaxCyc=120) IOp(1/33=1)
 ----------------------------------------------------------------------

 TstMul:  Mul=     1
 TstMul:  ICh=     0
 TstMul:  Mul=     1
 Symbolic Z-matrix:
 Charge =  0 Multiplicity = 1

 SCF Done:  E(RHF) =  -460.058274243     A.U. after    9 cycles
 SCF Done:  E(RHF) =  -460.058317382     A.U. after    8 cycles
 SCF Done:  E(RHF) =  -460.058318114     A.U. after    7 cycles
 Optimization completed.
    -- Stationary point found.

                         Standard orientation:
 ---------------------------------------------------------------------
 Center     Atomic      Atomic             Coordinates (Angstroms)
 Number     Number       Type             X           Y           Z
 ---------------------------------------------------------------------
      1         17           0        0.000000    0.000000    0.070349
      2          1           0        0.000000    0.000000   -1.195938
 ---------------------------------------------------------------------

 The electronic state is 1-SG.
 Alpha  occ. eigenvalues -- -104.82838 -10.56929  -8.03837  -8.03411  -8.03411
 Alpha  occ. eigenvalues --   -1.12120  -0.62847  -0.47544  -0.47544
 Alpha virt. eigenvalues --    0.16954   0.55335   0.58391   0.62355   0.62355
 Alpha virt. eigenvalues --    0.92192   1.11418   1.11418   1.14118   1.14118
 Alpha virt. eigenvalues --    1.51907

 Mulliken charges:
               1
     1  Cl  -0.244659
     2  H    0.244659
 Sum of Mulliken charges =  -0.00000

 Dipole moment (field-independent basis, Debye):
    X=              0.0000    Y=             -0.0000    Z=             -1.5007  Tot=              1.5007
 Quadrupole moment (field-independent basis, Debye-Ang):
   XX=            -14.0378   YY=            -14.0378   ZZ=            -10.4365
   XY=             -0.0000   XZ=              0.0000   YZ=             -0.0000

 Normal termination of Gaussian 16 at Wed Oct  7 12:36:45 2020.
