 Gaussian 16, Revision A.03,

 ----------------------------------------------------------------------
 #P Opt(TS,MaxCyc=50,NoEigenTest,MaxStep=10,AddRedundant) HF/6-31G* 5D
 7F Integral=UltraFineGrid SCF=(NoSymm,XQC,MaxCyc=120) IOp(1/33=1)
 ----------------------------------------------------------------------

 TstMul:  Mul=     2
 TstMul:  ICh=     0
 TstMul:  Mul=     2
 Symbolic Z-matrix:
 Charge =  0 Multiplicity = 2

 SCF Done:  E(UHF) =  -139.449509393     A.U. after   16 cycles
 SCF Done:  E(UHF) =  -139.451781137     A.U. after   14 cycles
 SCF Done:  E(UHF) =  -139.450196550     A.U. after   14 cycles
 SCF Done:  E(UHF) =  -139.450203476     A.U. after   15 cycles
 SCF Done:  E(UHF) =  -139.450389172     A.U. after   14 cycles
 SCF Done:  E(UHF) =  -139.450487092     A.U. after   15 cycles
 SCF Done:  E(UHF) =  -139.450493339     A.U. after   13 cycles
 SCF Done:  E(UHF) =  -139.450493823     A.U. after   12 cycles
 Optimization completed.
    -- Stationary point found.
 Normal termination of Gaussian 16 at Wed Oct  7 12:38:02 2020.
 Gaussian 16:  ES64L-G16RevA.03 25-Dec-2016

 ----------------------------------------------------------------------
 #P Freq HF/6-31G* 5D 7F Integral=UltraFineGrid SCF=(NoSymm,XQC,MaxCyc=
 120) IOp(1/33=1) Geom=Check Guess=Read
 ----------------------------------------------------------------------

 TstMul:  Mul=     2
 TstMul:  ICh=     0
 TstMul:  Mul=     2
 Structure from the checkpoint file:  "MN_53_hfch3ts_BH76_HF_631Gs.chk"
 Charge =  0 Multiplicity = 2

                         Standard orientation:
 ---------------------------------------------------------------------
 Center     Atomic      Atomic             Coordinates (Angstroms)
 Number     Number       Type             X           Y           Z
 ---------------------------------------------------------------------
      1          1           0       -0.000087    2.083051    0.000000
      2          9           0        0.000020    0.799235    0.000000
      3          6           0        0.000020   -0.954767    0.000000
      4          1           0        1.048628   -1.182871    0.000000
      5          1           0       -0.524423   -1.182349    0.908173
      6          1           0       -0.524423   -1.182349   -0.908173
 ---------------------------------------------------------------------

 SCF Done:  E(UHF) =  -139.450493823     A.U. after    1 cycles

 The electronic state is 2-A'.
 Alpha  occ. eigenvalues --  -26.28502 -11.27117  -1.51455  -0.96617  -0.64595
 Alpha  occ. eigenvalues --   -0.64595  -0.62303  -0.57000  -0.56998  -0.29919
 Alpha virt. eigenvalues --    0.17798   0.25194   0.31677   0.31678   0.70216
 Alpha virt. eigenvalues --    0.73484   0.73486   0.91069   1.09270   1.16617
 Alpha virt. eigenvalues --    1.16618   1.23672   1.51175   1.51181   1.83293

  Beta  occ. eigenvalues --  -26.29811 -11.25385  -1.55378  -0.91691  -0.68555
  Beta  occ. eigenvalues --   -0.64788  -0.64788  -0.56682  -0.56680
  Beta virt. eigenvalues --    0.15032   0.24877   0.26281   0.32584   0.32585
  Beta virt. eigenvalues --    0.74143   0.74145   0.78941   1.02676   1.10964
  Beta virt. eigenvalues --    1.17817   1.17818   1.25764   1.51928   1.51934

 Mulliken charges and spin densities:
               1          2
     1  H    0.113360   0.753656
     2  F   -0.360954  -0.382816
     3  C   -0.322757   0.773346
     4  H    0.190111  -0.048058
     5  H    0.190120  -0.048064
     6  H    0.190120  -0.048064
 Sum of Mulliken charges =  -0.00000   1.00000

 Dipole moment (field-independent basis, Debye):
    X=             -0.0001    Y=             -1.4789    Z=              0.0000  Tot=              1.4789
 Quadrupole moment (field-independent basis, Debye-Ang):
   XX=            -12.8926   YY=            -12.0181   ZZ=            -12.8927
   XY=             -0.0004   XZ=             -0.0000   YZ=             -0.0000

  Exact polarizability:  12.524  -0.004  67.604  -0.000  -0.000  12.524
 Approx polarizability:  10.245  -0.003  28.094  -0.000  -0.000  10.245

 ******    1 imaginary frequencies (negative Signs) ******

                      1                      2                      3
                     A'                     A'                     A"
 Frequencies --  -2248.9566               463.1662               463.1810
 Red. masses --      1.4403                 1.1189                 1.1189
 Frc consts  --      4.2920                 0.1414                 0.1414
 IR Inten    --   8083.7799                10.7287                10.7275
 Raman Activ --    111.5928               137.7237               137.7033

                      4                      5                      6
                     A'                     A'                     A"
 Frequencies --    712.7590               816.4484               816.5917
 Red. masses --      2.4047                 1.1567                 1.1566
 Frc consts  --      0.7198                 0.4543                 0.4544
 IR Inten    --     73.9633                 0.0021                 0.0021
 Raman Activ --     82.5542                 5.8444                 5.8517

                      7                      8                      9
                     A'                     A"                     A'
 Frequencies --   1234.8920              1588.9340              1588.9914
 Red. masses --      1.1808                 1.0880                 1.0880
 Frc consts  --      1.0609                 1.6184                 1.6185
 IR Inten    --      1.4295                 1.3552                 1.3539
 Raman Activ --    126.7397                14.0392                14.0399

                     10                     11                     12
                     A'                     A"                     A'
 Frequencies --   3293.7915              3447.5829              3447.6251
 Red. masses --      1.0159                 1.1164                 1.1164
 Frc consts  --      6.4938                 7.8183                 7.8186
 IR Inten    --      5.3015                14.5599                14.5585
 Raman Activ --    110.7890                83.5242                83.5501

 - Thermochemistry -
 -------------------
 Temperature   298.150 Kelvin.  Pressure   1.00000 Atm.
 Atom     1 has atomic number  1 and mass   1.00783

 Molecular mass:    35.02970 amu.
 Principal axes and moments of inertia in atomic units:
                           1         2         3
     Eigenvalues --    11.87391 118.53605 118.53642
           X           -0.00001   1.00000   0.00000
           Y            1.00000   0.00001   0.00000
           Z           -0.00000   0.00000   1.00000
 This molecule is an asymmetric top.
 Rotational symmetry number  1.
 Rotational temperatures (Kelvin)      7.29448     0.73070     0.73069
 Rotational constants (GHZ):         151.99219    15.22525    15.22520
    1 imaginary frequencies ignored.
 Zero-point vibrational energy     106910.0 (Joules/Mol)
                                   25.55211 (Kcal/Mol)
 Warning -- explicit consideration of   2 degrees of freedom as
           vibrations may cause significant error
 Vibrational temperatures:    666.39   666.41  1025.50  1174.69  1174.89
          (Kelvin)           1776.73  2286.12  2286.20  4739.03  4960.30
                             4960.36

 Zero-point correction=                           0.040720 (Hartree/Particle)
 Thermal correction to Energy=                    0.044335
 Thermal correction to Enthalpy=                  0.045279
 Thermal correction to Gibbs Free Energy=         0.016787
 Sum of electronic and zero-point Energies=           -139.409774
 Sum of electronic and thermal Energies=              -139.406159
 Sum of electronic and thermal Enthalpies=            -139.405215
 Sum of electronic and thermal Free Energies=         -139.433706

                     E (Thermal)             CV                S
                      KCal/Mol        Cal/Mol-Kelvin    Cal/Mol-Kelvin
 Total                   27.820             10.971             59.965
 Electronic               0.000              0.000              1.377
 Translational            0.889              2.981             36.591
 Rotational               0.889              2.981             19.751
 Vibrational             26.043              5.009              2.246
 Vibration     1          0.821              1.332              0.757
 Vibration     2          0.821              1.332              0.757

 Optimization completed.
    -- Stationary point found.
 Normal termination of Gaussian 16 at Wed Oct  7 12:38:28 2020.
