 Gaussian 16, Revision A.03,

 ----------------------------------------------------------------------
 #P Opt(TS,MaxCyc=50,NoEigenTest,MaxStep=10,AddRedundant) HF/6-31G* 5D
 7F Integral=UltraFineGrid SCF=(NoSymm,XQC,MaxCyc=120) IOp(1/33=1)
 ----------------------------------------------------------------------

 TstMul:  Mul=     2
 TstMul:  ICh=     0
 TstMul:  Mul=     2
 Symbolic Z-matrix:
 Charge =  0 Multiplicity = 2

 SCF Done:  E(UHF) =  -100.403678833     A.U. after   11 cycles
 SCF Done:  E(UHF) =  -100.405094244     A.U. after   10 cycles
 SCF Done:  E(UHF) =  -100.405692150     A.U. after   10 cycles
 SCF Done:  E(UHF) =  -100.405731786     A.U. after    9 cycles
 SCF Done:  E(UHF) =  -100.405732345     A.U. after    8 cycles
 Optimization completed.
    -- Stationary point found.
 Normal termination of Gaussian 16 at Wed Oct  7 12:38:04 2020.
 Gaussian 16:  ES64L-G16RevA.03 25-Dec-2016

 ----------------------------------------------------------------------
 #P Freq HF/6-31G* 5D 7F Integral=UltraFineGrid SCF=(NoSymm,XQC,MaxCyc=
 120) IOp(1/33=1) Geom=Check Guess=Read
 ----------------------------------------------------------------------

 TstMul:  Mul=     2
 TstMul:  ICh=     0
 TstMul:  Mul=     2
 Structure from the checkpoint file:  "MN_54_hfhts_BH76_HF_631Gs.chk"
 Charge =  0 Multiplicity = 2

                         Standard orientation:
 ---------------------------------------------------------------------
 Center     Atomic      Atomic             Coordinates (Angstroms)
 Number     Number       Type             X           Y           Z
 ---------------------------------------------------------------------
      1          1           0        0.000000    0.000000    1.197601
      2          9           0        0.000000    0.000000    0.000000
      3          1           0        0.000000    0.000000   -1.197601
 ---------------------------------------------------------------------

 SCF Done:  E(UHF) =  -100.405732345     A.U. after    1 cycles

 The electronic state is 2-SGG.
 Alpha  occ. eigenvalues --  -26.32970  -1.57889  -0.74992  -0.66483  -0.66483
 Alpha  occ. eigenvalues --   -0.31568
 Alpha virt. eigenvalues --    0.15263   0.78698   0.99186   1.44936   1.44936
 Alpha virt. eigenvalues --    1.88330   2.02756   2.06701   2.06701   2.12944
 Alpha virt. eigenvalues --    2.12944   2.63691
  Beta  occ. eigenvalues --  -26.33532  -1.59373  -0.77359  -0.66608  -0.66608
  Beta virt. eigenvalues --    0.12585   0.23639   0.90033   1.09047   1.45751
  Beta virt. eigenvalues --    1.45751   1.88970   2.01758   2.05317   2.05317
  Beta virt. eigenvalues --    2.13021   2.13021   2.65744

 Mulliken charges and spin densities:
               1          2
     1  H    0.198577   0.652783
     2  F   -0.397155  -0.305566
     3  H    0.198577   0.652783
 Sum of Mulliken charges =  -0.00000   1.00000

 Dipole moment (field-independent basis, Debye):
    X=              0.0000    Y=             -0.0000    Z=             -0.0000  Tot=              0.0000
 Quadrupole moment (field-independent basis, Debye-Ang):
   XX=             -7.0385   YY=             -7.0385   ZZ=             -4.7961
   XY=             -0.0000   XZ=             -0.0000   YZ=              0.0000

  Exact polarizability:   1.859   0.000   1.859  -0.000  -0.000  47.407
 Approx polarizability:   1.741   0.000   1.741  -0.000   0.000  21.655

 ******    1 imaginary frequencies (negative Signs) ******

                      1                      2                      3
                     SGU                    PIU                    PIU
 Frequencies --  -3686.2494               596.7927               596.7927
 Red. masses --      1.1085                 1.1085                 1.1085
 Frc consts  --      8.8748                 0.2326                 0.2326
 IR Inten    --  16677.0527                47.3970                47.3970
 Raman Activ --      0.0000                 0.0000                 0.0000

                      4
                     SGG
 Frequencies --   1895.2551
 Red. masses --      1.0078
 Frc consts  --      2.1329
 IR Inten    --      0.0000
 Raman Activ --    424.8505

 - Thermochemistry -
 -------------------
 Temperature   298.150 Kelvin.  Pressure   1.00000 Atm.
 Atom     1 has atomic number  1 and mass   1.00783

 Molecular mass:    21.01405 amu.
 Principal axes and moments of inertia in atomic units:
                           1         2         3
     Eigenvalues --     0.00000  10.32374  10.32374
           X           -0.00000   1.00000   0.00000
           Y            0.00000   0.00000   1.00000
           Z            1.00000   0.00000   0.00000
 This molecule is a prolate symmetric top.
 Rotational symmetry number  2.
 Rotational temperature (Kelvin)      8.38978
 Rotational constant (GHZ):         174.814666
    1 imaginary frequencies ignored.
 Zero-point vibrational energy      18475.4 (Joules/Mol)
                                    4.41572 (Kcal/Mol)
 Warning -- explicit consideration of   2 degrees of freedom as
           vibrations may cause significant error
 Vibrational temperatures:    858.65   858.65  2726.85
          (Kelvin)

 Zero-point correction=                           0.007037 (Hartree/Particle)
 Thermal correction to Energy=                    0.009722
 Thermal correction to Enthalpy=                  0.010666
 Thermal correction to Gibbs Free Energy=        -0.010745
 Sum of electronic and zero-point Energies=           -100.398695
 Sum of electronic and thermal Energies=              -100.396011
 Sum of electronic and thermal Enthalpies=            -100.395066
 Sum of electronic and thermal Free Energies=         -100.416477

                     E (Thermal)             CV                S
                      KCal/Mol        Cal/Mol-Kelvin    Cal/Mol-Kelvin
 Total                    6.100              7.063             45.063
 Electronic               0.000              0.000              1.377
 Translational            0.889              2.981             35.068
 Rotational               0.592              1.987              7.705
 Vibrational              4.619              2.095              0.913
 Vibration     1          0.955              1.039              0.455
 Vibration     2          0.955              1.039              0.455

 Optimization completed.
    -- Stationary point found.
 Normal termination of Gaussian 16 at Wed Oct  7 12:38:49 2020.
