 Gaussian 16, Revision A.03,

 ----------------------------------------------------------------------
 #P Opt(TS,MaxCyc=50,NoEigenTest,MaxStep=10,AddRedundant) HF/6-31G* 5D
 7F Integral=UltraFineGrid SCF=(NoSymm,XQC,MaxCyc=120) IOp(1/33=1)
 ----------------------------------------------------------------------

 TstMul:  Mul=     2
 TstMul:  ICh=     0
 TstMul:  Mul=     2
 Symbolic Z-matrix:
 Charge =  0 Multiplicity = 2

 SCF Done:  E(UHF) =  -109.402798366     A.U. after   20 cycles
 SCF Done:  E(UHF) =  -109.403071501     A.U. after   17 cycles
 SCF Done:  E(UHF) =  -109.403261024     A.U. after   16 cycles
 SCF Done:  E(UHF) =  -109.403104078     A.U. after   16 cycles
 SCF Done:  E(UHF) =  -109.403106338     A.U. after   14 cycles
 Optimization completed.
    -- Stationary point found.
 Normal termination of Gaussian 16 at Wed Oct  7 12:37:56 2020.
 Gaussian 16:  ES64L-G16RevA.03 25-Dec-2016

 ----------------------------------------------------------------------
 #P Freq HF/6-31G* 5D 7F Integral=UltraFineGrid SCF=(NoSymm,XQC,MaxCyc=
 120) IOp(1/33=1) Geom=Check Guess=Read
 ----------------------------------------------------------------------

 TstMul:  Mul=     2
 TstMul:  ICh=     0
 TstMul:  Mul=     2
 Structure from the checkpoint file:  "MN_59_hn2ts_BH76_HF_631Gs.chk"
 Charge =  0 Multiplicity = 2

                         Standard orientation:
 ---------------------------------------------------------------------
 Center     Atomic      Atomic             Coordinates (Angstroms)
 Number     Number       Type             X           Y           Z
 ---------------------------------------------------------------------
      1          7           0        0.084908   -0.632822    0.000000
      2          7           0        0.084908    0.485278    0.000000
      3          1           0       -1.188715    1.032803    0.000000
 ---------------------------------------------------------------------

 SCF Done:  E(UHF) =  -109.403106338     A.U. after    1 cycles

 The electronic state is 2-A'.
 Alpha  occ. eigenvalues --  -15.68777 -15.68468  -1.46695  -0.83305  -0.69489
 Alpha  occ. eigenvalues --   -0.64346  -0.60499  -0.38612
 Alpha virt. eigenvalues --    0.15829   0.18591   0.57628   0.78674   0.83909
 Alpha virt. eigenvalues --    0.84073   0.85804   0.99439   1.00911   1.06487
 Alpha virt. eigenvalues --    1.21450   1.55438   1.71614   1.76028   1.83293

  Beta  occ. eigenvalues --  -15.69899 -15.65971  -1.45194  -0.79094  -0.63248
  Beta  occ. eigenvalues --   -0.60286  -0.59573
  Beta virt. eigenvalues --    0.11057   0.17096   0.23146   0.58700   0.79243
  Beta virt. eigenvalues --    0.84095   0.87346   0.98093   1.01941   1.04199
  Beta virt. eigenvalues --    1.08049   1.21771   1.55753   1.72701   1.78908

 Mulliken charges and spin densities:
               1          2
     1  N    0.020849   0.833718
     2  N   -0.140273  -0.558263
     3  H    0.119423   0.724545
 Sum of Mulliken charges =  -0.00000   1.00000

 Dipole moment (field-independent basis, Debye):
    X=             -0.5321    Y=              0.3066    Z=              0.0000  Tot=              0.6141
 Quadrupole moment (field-independent basis, Debye-Ang):
   XX=            -11.4484   YY=            -12.8820   ZZ=            -11.3999
   XY=             -0.4113   XZ=              0.0000   YZ=              0.0000

  Exact polarizability:  15.962  -6.362  18.000   0.000  -0.000   5.907
 Approx polarizability:  10.873  -3.299  16.736   0.000  -0.000   5.759

 ******    1 imaginary frequencies (negative Signs) ******

                      1                      2                      3
                     A'                     A'                     A'
 Frequencies --  -1914.8022               895.1524              2143.9116
 Red. masses --      1.1611                 1.3076                 6.5663
 Frc consts  --      2.5083                 0.6173                17.7822
 IR Inten    --    990.0149                10.0565                39.5196
 Raman Activ --     95.0134                43.9454                 9.8752

 - Thermochemistry -
 -------------------
 Temperature   298.150 Kelvin.  Pressure   1.00000 Atm.
 Atom     1 has atomic number  7 and mass  14.00307

 Molecular mass:    29.01397 amu.
 Principal axes and moments of inertia in atomic units:
                           1         2         3
     Eigenvalues --     4.85331  36.29320  41.14651
           X           -0.15770   0.98749   0.00000
           Y            0.98749   0.15770   0.00000
           Z            0.00000   0.00000   1.00000
 This molecule is an asymmetric top.
 Rotational symmetry number  1.
 Rotational temperatures (Kelvin)     17.84636     2.38651     2.10501
 Rotational constants (GHZ):         371.85787    49.72670    43.86134
    1 imaginary frequencies ignored.
 Zero-point vibrational energy      18177.6 (Joules/Mol)
                                    4.34456 (Kcal/Mol)
 Vibrational temperatures:   1287.92  3084.61
          (Kelvin)

 Zero-point correction=                           0.006923 (Hartree/Particle)
 Thermal correction to Energy=                    0.009811
 Thermal correction to Enthalpy=                  0.010756
 Thermal correction to Gibbs Free Energy=        -0.014989
 Sum of electronic and zero-point Energies=           -109.396183
 Sum of electronic and thermal Energies=              -109.393295
 Sum of electronic and thermal Enthalpies=            -109.392351
 Sum of electronic and thermal Free Energies=         -109.418096

                     E (Thermal)             CV                S
                      KCal/Mol        Cal/Mol-Kelvin    Cal/Mol-Kelvin
 Total                    6.157              6.475             54.185
 Electronic               0.000              0.000              1.377
 Translational            0.889              2.981             36.030
 Rotational               0.889              2.981             16.634
 Vibrational              4.379              0.514              0.143

 Optimization completed.
    -- Stationary point found.
 Normal termination of Gaussian 16 at Wed Oct  7 12:38:23 2020.
