 Gaussian 16, Revision A.03,
 Gaussian 16:  ES64L-G16RevA.03 25-Dec-2016

 ----------------------------------------------------------------------
 #P Opt(MaxCyc=100) HF/6-31G* 5D 7F Integral=UltraFineGrid SCF=(NoSymm,
 XQC,MaxCyc=120) IOp(1/33=1)
 ----------------------------------------------------------------------

 TstMul:  Mul=     2
 TstMul:  ICh=     0
 TstMul:  Mul=     2
 Symbolic Z-matrix:
 Charge =  0 Multiplicity = 2

 SCF Done:  E(UHF) =  -109.423834191     A.U. after   22 cycles
 SCF Done:  E(UHF) =  -109.424382718     A.U. after   16 cycles
 SCF Done:  E(UHF) =  -109.424439747     A.U. after   15 cycles
 SCF Done:  E(UHF) =  -109.424441398     A.U. after   12 cycles
 Optimization completed.
    -- Stationary point found.

                         Standard orientation:
 ---------------------------------------------------------------------
 Center     Atomic      Atomic             Coordinates (Angstroms)
 Number     Number       Type             X           Y           Z
 ---------------------------------------------------------------------
      1          7           0       -0.063105    0.655200    0.000000
      2          7           0       -0.063105   -0.522906    0.000000
      3          1           0        0.883468   -0.926059    0.000000
 ---------------------------------------------------------------------

 The electronic state is 2-A'.
 Alpha  occ. eigenvalues --  -15.66839 -15.64188  -1.42144  -0.91554  -0.71445
 Alpha  occ. eigenvalues --   -0.62724  -0.56696  -0.39416
 Alpha virt. eigenvalues --    0.14726   0.23369   0.55434   0.81897   0.86708
 Alpha virt. eigenvalues --    0.87275   0.94580   1.01567   1.01962   1.05587
 Alpha virt. eigenvalues --    1.20473   1.50007   1.73648   1.75566   1.79789

  Beta  occ. eigenvalues --  -15.65142 -15.62762  -1.38185  -0.85526  -0.61300
  Beta  occ. eigenvalues --   -0.56196  -0.54447
  Beta virt. eigenvalues --    0.14807   0.17430   0.25242   0.57595   0.82846
  Beta virt. eigenvalues --    0.87128   0.93110   1.03687   1.03765   1.06113
  Beta virt. eigenvalues --    1.08302   1.20805   1.51691   1.76555   1.80710

 Mulliken charges and spin densities:
               1          2
     1  N   -0.035262   1.254857
     2  N   -0.332899  -0.413213
     3  H    0.368161   0.158356
 Sum of Mulliken charges =  -0.00000   1.00000

 Dipole moment (field-independent basis, Debye):
    X=              1.6692    Y=             -1.0149    Z=              0.0000  Tot=              1.9535
 Quadrupole moment (field-independent basis, Debye-Ang):
   XX=            -10.5556   YY=            -12.3081   ZZ=            -11.1651
   XY=             -1.6363   XZ=              0.0000   YZ=              0.0000

 Normal termination of Gaussian 16 at Wed Oct  7 12:37:52 2020.
