 Gaussian 16, Revision A.03,

 ----------------------------------------------------------------------
 #P Opt(TS,MaxCyc=150,NoEigenTest,MaxStep=10,AddRedundant) HF/6-31G* 5D
  7F Integral=UltraFineGrid SCF=(NoSymm,XQC,MaxCyc=120) IOp(1/33=1)
 ----------------------------------------------------------------------

 TstMul:  Mul=     2
 TstMul:  ICh=     0
 TstMul:  Mul=     2
 Symbolic Z-matrix:
 Charge =  0 Multiplicity = 2

 SCF Done:  E(UHF) =  -113.220371669     A.U. after   18 cycles
 SCF Done:  E(UHF) =  -113.220784787     A.U. after   15 cycles
 SCF Done:  E(UHF) =  -113.220726071     A.U. after   14 cycles
 SCF Done:  E(UHF) =  -113.220385238     A.U. after   17 cycles
 SCF Done:  E(UHF) =  -113.219772984     A.U. after   17 cycles
 SCF Done:  E(UHF) =  -113.220542754     A.U. after   17 cycles
 SCF Done:  E(UHF) =  -113.219732451     A.U. after   16 cycles
 SCF Done:  E(UHF) =  -113.219055981     A.U. after   16 cycles
 SCF Done:  E(UHF) =  -113.218679125     A.U. after   16 cycles
 SCF Done:  E(UHF) =  -113.218647974     A.U. after   16 cycles
 SCF Done:  E(UHF) =  -113.218646216     A.U. after   14 cycles
 Optimization completed.
    -- Stationary point found.
 Normal termination of Gaussian 16 at Wed Oct  7 12:39:18 2020.
 Gaussian 16:  ES64L-G16RevA.03 25-Dec-2016

 ----------------------------------------------------------------------
 #P Freq HF/6-31G* 5D 7F Integral=UltraFineGrid SCF=(NoSymm,XQC,MaxCyc=
 120) IOp(1/33=1) Geom=Check Guess=Read
 ----------------------------------------------------------------------

 TstMul:  Mul=     2
 TstMul:  ICh=     0
 TstMul:  Mul=     2
 Structure from the checkpoint file:  "MN_51_hcots_BH76_HF_631Gs.chk"
 Charge =  0 Multiplicity = 2

                         Standard orientation:
 ---------------------------------------------------------------------
 Center     Atomic      Atomic             Coordinates (Angstroms)
 Number     Number       Type             X           Y           Z
 ---------------------------------------------------------------------
      1          1           0       -1.342942    1.337926    0.000000
      2          6           0        0.095924    0.546331    0.000000
      3          8           0        0.095924   -0.576989    0.000000
 ---------------------------------------------------------------------

 SCF Done:  E(UHF) =  -113.218646216     A.U. after    1 cycles

 The electronic state is 2-A'.
 Alpha  occ. eigenvalues --  -20.66708 -11.37134  -1.52558  -0.80635  -0.67928
 Alpha  occ. eigenvalues --   -0.63273  -0.63113  -0.40778
 Alpha virt. eigenvalues --    0.15257   0.20047   0.39414   0.71799   0.72137
 Alpha virt. eigenvalues --    0.87004   0.94809   1.01816   1.12830   1.20928
 Alpha virt. eigenvalues --    1.24455   1.74170   1.75705   1.78039   1.84132

  Beta  occ. eigenvalues --  -20.66005 -11.36659  -1.51204  -0.78970  -0.62966
  Beta  occ. eigenvalues --   -0.62724  -0.55373
  Beta virt. eigenvalues --    0.07513   0.16196   0.25428   0.40058   0.72649
  Beta virt. eigenvalues --    0.75619   0.89349   1.01827   1.07696   1.13595
  Beta virt. eigenvalues --    1.21325   1.27616   1.74579   1.76410   1.79098

 Mulliken charges and spin densities:
               1          2
     1  H    0.017312   0.827059
     2  C    0.267727   0.046907
     3  O   -0.285039   0.126034
 Sum of Mulliken charges =   0.00000   1.00000

 Dipole moment (field-independent basis, Debye):
    X=             -0.0486    Y=              0.5335    Z=              0.0000  Tot=              0.5357
 Quadrupole moment (field-independent basis, Debye-Ang):
   XX=            -11.6154   YY=            -13.0996   ZZ=            -11.0985
   XY=              0.0522   XZ=              0.0000   YZ=              0.0000

  Exact polarizability:  15.731  -4.498  15.978   0.000  -0.000   7.539
 Approx polarizability:  11.130  -2.485  14.480   0.000   0.000   6.802

 ******    1 imaginary frequencies (negative Signs) ******

                      1                      2                      3
                     A'                     A'                     A'
 Frequencies --  -1245.7731               580.7145              2324.2026
 Red. masses --      1.0972                 1.3908                11.7559
 Frc consts  --      1.0033                 0.2763                37.4158
 IR Inten    --    156.5188                 2.6366               262.4146
 Raman Activ --     74.6607                17.6454                32.2943

 - Thermochemistry -
 -------------------
 Temperature   298.150 Kelvin.  Pressure   1.00000 Atm.
 Atom     1 has atomic number  1 and mass   1.00783

 Molecular mass:    29.00274 amu.
 Principal axes and moments of inertia in atomic units:
                           1         2         3
     Eigenvalues --     5.60895  39.61606  45.22501
           X           -0.21577   0.97644   0.00000
           Y            0.97644   0.21577   0.00000
           Z            0.00000   0.00000   1.00000
 This molecule is an asymmetric top.
 Rotational symmetry number  1.
 Rotational temperatures (Kelvin)     15.44209     2.18633     1.91518
 Rotational constants (GHZ):         321.76093    45.55580    39.90582
    1 imaginary frequencies ignored.
 Zero-point vibrational energy      17375.3 (Joules/Mol)
                                    4.15279 (Kcal/Mol)
 Warning -- explicit consideration of   1 degrees of freedom as
           vibrations may cause significant error
 Vibrational temperatures:    835.52  3344.01
          (Kelvin)

 Zero-point correction=                           0.006618 (Hartree/Particle)
 Thermal correction to Energy=                    0.009621
 Thermal correction to Enthalpy=                  0.010566
 Thermal correction to Gibbs Free Energy=        -0.015495
 Sum of electronic and zero-point Energies=           -113.212028
 Sum of electronic and thermal Energies=              -113.209025
 Sum of electronic and thermal Enthalpies=            -113.208081
 Sum of electronic and thermal Free Energies=         -113.234141

                     E (Thermal)             CV                S
                      KCal/Mol        Cal/Mol-Kelvin    Cal/Mol-Kelvin
 Total                    6.038              7.038             54.849
 Electronic               0.000              0.000              1.377
 Translational            0.889              2.981             36.028
 Rotational               0.889              2.981             16.959
 Vibrational              4.260              1.076              0.484
 Vibration     1          0.937              1.073              0.484

 Optimization completed.
    -- Stationary point found.
 Normal termination of Gaussian 16 at Wed Oct  7 12:39:48 2020.
