 Gaussian 16, Revision A.03,
 Gaussian 16:  ES64L-G16RevA.03 25-Dec-2016

 ----------------------------------------------------------------------
 #P Opt(MaxCyc=100) HF/6-31G* 5D 7F Integral=UltraFineGrid SCF=(NoSymm,
 XQC,MaxCyc=120) IOp(1/33=1)
 ----------------------------------------------------------------------

 TstMul:  Mul=     1
 TstMul:  ICh=     0
 TstMul:  Mul=     1
 Symbolic Z-matrix:
 Charge =  0 Multiplicity = 1

 SCF Done:  E(RHF) =  -100.000763543     A.U. after    8 cycles
 SCF Done:  E(RHF) =  -100.000778029     A.U. after    7 cycles
 Optimization completed.
    -- Stationary point found.

                         Standard orientation:
 ---------------------------------------------------------------------
 Center     Atomic      Atomic             Coordinates (Angstroms)
 Number     Number       Type             X           Y           Z
 ---------------------------------------------------------------------
      1          9           0        0.000000    0.000000    0.091187
      2          1           0        0.000000    0.000000   -0.820682
 ---------------------------------------------------------------------

 The electronic state is 1-SG.
 Alpha  occ. eigenvalues --  -26.27279  -1.58163  -0.74751  -0.62903  -0.62903
 Alpha virt. eigenvalues --    0.22178   1.10655   1.49050   1.49050   1.56683
 Alpha virt. eigenvalues --    1.96652   2.08563   2.08563   2.15459   2.15459
 Alpha virt. eigenvalues --    2.99762

 Mulliken charges:
               1
     1  F   -0.543617
     2  H    0.543617
 Sum of Mulliken charges =  -0.00000

 Dipole moment (field-independent basis, Debye):
    X=              0.0000    Y=              0.0000    Z=             -1.9748  Tot=              1.9748
 Quadrupole moment (field-independent basis, Debye-Ang):
   XX=             -5.4048   YY=             -5.4048   ZZ=             -3.3277
   XY=              0.0000   XZ=              0.0000   YZ=             -0.0000

 Normal termination of Gaussian 16 at Wed Oct  7 12:37:11 2020.
