 Gaussian 16, Revision A.03,
 Gaussian 16:  ES64L-G16RevA.03 25-Dec-2016

 ----------------------------------------------------------------------
 #P Opt(MaxCyc=100) HF/6-31G* 5D 7F Integral=UltraFineGrid SCF=(NoSymm,
 XQC,MaxCyc=120) IOp(1/33=1)
 ----------------------------------------------------------------------

 TstMul:  Mul=     2
 TstMul:  ICh=     0
 TstMul:  Mul=     2
 Symbolic Z-matrix:
 Charge =  0 Multiplicity = 2

 SCF Done:  E(UHF) =  -113.246282177     A.U. after   18 cycles
 SCF Done:  E(UHF) =  -113.247052667     A.U. after   16 cycles
 SCF Done:  E(UHF) =  -113.247054319     A.U. after   14 cycles
 Optimization completed.
    -- Stationary point found.

                         Standard orientation:
 ---------------------------------------------------------------------
 Center     Atomic      Atomic             Coordinates (Angstroms)
 Number     Number       Type             X           Y           Z
 ---------------------------------------------------------------------
      1          1           0       -0.832015    1.229010    0.000000
      2          6           0        0.059430    0.574414    0.000000
      3          8           0        0.059430   -0.584437    0.000000
 ---------------------------------------------------------------------

 The electronic state is 2-A'.
 Alpha  occ. eigenvalues --  -20.62397 -11.34874  -1.46802  -0.85573  -0.71253
 Alpha  occ. eigenvalues --   -0.65123  -0.57662  -0.37676
 Alpha virt. eigenvalues --    0.14057   0.27517   0.38642   0.70226   0.72541
 Alpha virt. eigenvalues --    0.84388   1.00604   1.06339   1.13786   1.24555
 Alpha virt. eigenvalues --    1.25339   1.75377   1.77398   1.79583   1.82072

  Beta  occ. eigenvalues --  -20.61277 -11.32935  -1.44150  -0.79531  -0.66746
  Beta  occ. eigenvalues --   -0.57802  -0.52695
  Beta virt. eigenvalues --    0.12149   0.16839   0.30819   0.40408   0.74643
  Beta virt. eigenvalues --    0.79081   0.87708   1.02601   1.09270   1.17121
  Beta virt. eigenvalues --    1.24134   1.30093   1.78326   1.80524   1.82491

 Mulliken charges and spin densities:
               1          2
     1  H    0.176344   0.166889
     2  C    0.188588   0.685783
     3  O   -0.364931   0.147328
 Sum of Mulliken charges =   0.00000   1.00000

 Dipole moment (field-independent basis, Debye):
    X=             -0.8442    Y=              1.9061    Z=              0.0000  Tot=              2.0846
 Quadrupole moment (field-independent basis, Debye-Ang):
   XX=            -11.1729   YY=            -11.1835   ZZ=            -10.6379
   XY=             -0.9067   XZ=              0.0000   YZ=              0.0000

 Normal termination of Gaussian 16 at Wed Oct  7 12:36:54 2020.
