 Gaussian 16, Revision A.03,
 Gaussian 16:  ES64L-G16RevA.03 25-Dec-2016

 ----------------------------------------------------------------------
 #P Opt(MaxCyc=100) HF/6-31G* 5D 7F Integral=UltraFineGrid SCF=(NoSymm,
 XQC,MaxCyc=120) IOp(1/33=1)
 ----------------------------------------------------------------------

 TstMul:  Mul=     1
 TstMul:  ICh=     0
 TstMul:  Mul=     1
 Symbolic Z-matrix:
 Charge =  0 Multiplicity = 1

 SCF Done:  E(RHF) =  -183.676586300     A.U. after   12 cycles
 SCF Done:  E(RHF) =  -183.679238194     A.U. after   11 cycles
 SCF Done:  E(RHF) =  -183.679241947     A.U. after    9 cycles
 Optimization completed.
    -- Stationary point found.

                         Standard orientation:
 ---------------------------------------------------------------------
 Center     Atomic      Atomic             Coordinates (Angstroms)
 Number     Number       Type             X           Y           Z
 ---------------------------------------------------------------------
      1          7           0        0.000000    0.000000   -1.172770
      2          7           0        0.000000    0.000000   -0.080829
      3          8           0        0.000000    0.000000    1.096900
 ---------------------------------------------------------------------

 The electronic state is 1-SG.
 Alpha  occ. eigenvalues --  -20.65582 -15.84993 -15.70032  -1.62707  -1.44718
 Alpha  occ. eigenvalues --   -0.82143  -0.77265  -0.77265  -0.69421  -0.49141
 Alpha  occ. eigenvalues --   -0.49141
 Alpha virt. eigenvalues --    0.17754   0.17754   0.37221   0.57812   0.80627
 Alpha virt. eigenvalues --    0.80627   0.82476   0.94606   0.98301   0.98301
 Alpha virt. eigenvalues --    1.02206   1.23650   1.23650   1.45351   1.58025

 Mulliken charges:
               1
     1  N   -0.058316
     2  N    0.665862
     3  O   -0.607545
 Sum of Mulliken charges =  -0.00000

 Dipole moment (field-independent basis, Debye):
    X=              0.0000    Y=             -0.0000    Z=             -0.6956  Tot=              0.6956
 Quadrupole moment (field-independent basis, Debye-Ang):
   XX=            -15.1263   YY=            -15.1263   ZZ=            -19.4239
   XY=              0.0000   XZ=              0.0000   YZ=             -0.0000

 Normal termination of Gaussian 16 at Wed Oct  7 12:38:23 2020.
