 Gaussian 16, Revision A.03,

 ----------------------------------------------------------------------
 #P Opt(TS,MaxCyc=50,NoEigenTest,MaxStep=10,AddRedundant) HF/6-31G* 5D
 7F Integral=UltraFineGrid SCF=(NoSymm,XQC,MaxCyc=120) IOp(1/33=1)
 ----------------------------------------------------------------------

 TstMul:  Mul=     2
 TstMul:  ICh=     0
 TstMul:  Mul=     2
 Symbolic Z-matrix:
 Charge =  0 Multiplicity = 2

 SCF Done:  E(UHF) =  -184.129130010     A.U. after   23 cycles
 SCF Done:  E(UHF) =  -184.131404478     A.U. after   20 cycles
 SCF Done:  E(UHF) =  -184.131276132     A.U. after   19 cycles
 SCF Done:  E(UHF) =  -184.131930641     A.U. after   20 cycles
 SCF Done:  E(UHF) =  -184.132225100     A.U. after   20 cycles
 SCF Done:  E(UHF) =  -184.132274251     A.U. after   19 cycles
 SCF Done:  E(UHF) =  -184.132280203     A.U. after   17 cycles
 SCF Done:  E(UHF) =  -184.132280984     A.U. after   16 cycles
 Optimization completed.
    -- Stationary point found.
 Normal termination of Gaussian 16 at Wed Oct  7 12:39:23 2020.
 Gaussian 16:  ES64L-G16RevA.03 25-Dec-2016

 ----------------------------------------------------------------------
 #P Freq HF/6-31G* 5D 7F Integral=UltraFineGrid SCF=(NoSymm,XQC,MaxCyc=
 120) IOp(1/33=1) Geom=Check Guess=Read
 ----------------------------------------------------------------------

 TstMul:  Mul=     2
 TstMul:  ICh=     0
 TstMul:  Mul=     2
 Structure from the checkpoint file:  "MN_68_n2ohts_BH76_HF_631Gs.chk"
 Charge =  0 Multiplicity = 2

                         Standard orientation:
 ---------------------------------------------------------------------
 Center     Atomic      Atomic             Coordinates (Angstroms)
 Number     Number       Type             X           Y           Z
 ---------------------------------------------------------------------
      1          1           0       -0.466842   -1.933498    0.000000
      2          8           0       -0.923157   -0.487264    0.000000
      3          7           0       -0.000000    0.327140   -0.000000
      4          7           0        1.121728    0.505948   -0.000000
 ---------------------------------------------------------------------

 SCF Done:  E(UHF) =  -184.132280984     A.U. after    1 cycles

 The electronic state is 2-A'.
 Alpha  occ. eigenvalues --  -20.68735 -15.77931 -15.70123  -1.57796  -1.39727
 Alpha  occ. eigenvalues --   -0.85328  -0.74701  -0.72049  -0.70764  -0.53822
 Alpha  occ. eigenvalues --   -0.51066  -0.37934
 Alpha virt. eigenvalues --    0.10230   0.16083   0.44743   0.61819   0.78635
 Alpha virt. eigenvalues --    0.83028   0.84146   0.86742   0.93604   0.98022
 Alpha virt. eigenvalues --    0.98922   1.02362   1.18009   1.19958   1.39750

  Beta  occ. eigenvalues --  -20.70471 -15.79276 -15.67019  -1.59812  -1.38094
  Beta  occ. eigenvalues --   -0.86304  -0.75824  -0.75120  -0.65597  -0.53033
  Beta  occ. eigenvalues --   -0.50610
  Beta virt. eigenvalues --    0.09006   0.17068   0.17555   0.44641   0.62913
  Beta virt. eigenvalues --    0.83616   0.83876   0.86071   0.88674   1.00548
  Beta virt. eigenvalues --    1.00680   1.01679   1.05437   1.18100   1.18618

 Mulliken charges and spin densities:
               1          2
     1  H    0.063849   0.846639
     2  O   -0.415081  -0.455798
     3  N    0.404885  -0.391094
     4  N   -0.053653   1.000253
 Sum of Mulliken charges =   0.00000   1.00000

 Dipole moment (field-independent basis, Debye):
    X=              0.1264    Y=             -0.0787    Z=             -0.0000  Tot=              0.1489
 Quadrupole moment (field-independent basis, Debye-Ang):
   XX=            -19.6533   YY=            -16.8463   ZZ=            -16.6214
   XY=             -1.0953   XZ=              0.0000   YZ=             -0.0000

  Exact polarizability:  26.469  14.491  38.903   0.000   0.000   7.458
 Approx polarizability:  24.000   6.945  20.984   0.000   0.000   7.317

 ******    1 imaginary frequencies (negative Signs) ******

                      1                      2                      3
                     A'                     A'                     A"
 Frequencies --  -1755.0494               397.1075               567.6093
 Red. masses --      1.3740                 1.7672                 3.0352
 Frc consts  --      2.4936                 0.1642                 0.5762
 IR Inten    --   2036.8495                 1.1650                 7.9390
 Raman Activ --    320.1011               140.6069                11.1331

                      4                      5                      6
                     A'                     A'                     A'
 Frequencies --    720.7287              1185.4462              1848.4515
 Red. masses --      1.7770                 7.6079                13.3722
 Frc consts  --      0.5439                 6.2991                26.9196
 IR Inten    --      3.5062                39.9069               182.9088
 Raman Activ --      7.1443                17.8059               132.0199

 - Thermochemistry -
 -------------------
 Temperature   298.150 Kelvin.  Pressure   1.00000 Atm.
 Atom     1 has atomic number  1 and mass   1.00783

 Molecular mass:    45.00889 amu.
 Principal axes and moments of inertia in atomic units:
                           1         2         3
     Eigenvalues --    12.16484 145.07569 157.24053
           X            0.86827  -0.49609   0.00000
           Y            0.49609   0.86827   0.00000
           Z            0.00000  -0.00000   1.00000
 This molecule is an asymmetric top.
 Rotational symmetry number  1.
 Rotational temperatures (Kelvin)      7.12002     0.59703     0.55084
 Rotational constants (GHZ):         148.35715    12.44000    11.47758
    1 imaginary frequencies ignored.
 Zero-point vibrational energy      28227.9 (Joules/Mol)
                                    6.74664 (Kcal/Mol)
 Warning -- explicit consideration of   2 degrees of freedom as
           vibrations may cause significant error
 Vibrational temperatures:    571.35   816.66  1036.97  1705.59  2659.51
          (Kelvin)

 Zero-point correction=                           0.010751 (Hartree/Particle)
 Thermal correction to Energy=                    0.014198
 Thermal correction to Enthalpy=                  0.015143
 Thermal correction to Gibbs Free Energy=        -0.013738
 Sum of electronic and zero-point Energies=           -184.121530
 Sum of electronic and thermal Energies=              -184.118083
 Sum of electronic and thermal Enthalpies=            -184.117138
 Sum of electronic and thermal Free Energies=         -184.146019

                     E (Thermal)             CV                S
                      KCal/Mol        Cal/Mol-Kelvin    Cal/Mol-Kelvin
 Total                    8.910              9.565             60.783
 Electronic               0.000              0.000              1.377
 Translational            0.889              2.981             37.338
 Rotational               0.889              2.981             20.256
 Vibrational              7.132              3.603              1.811
 Vibration     1          0.764              1.476              0.973
 Vibration     2          0.924              1.101              0.509

 Optimization completed.
    -- Stationary point found.
 Normal termination of Gaussian 16 at Wed Oct  7 12:39:55 2020.
