 Gaussian 16, Revision A.03,

 ----------------------------------------------------------------------
 #P Opt(TS,MaxCyc=50,NoEigenTest,MaxStep=10,AddRedundant) HF/6-31G* 5D
 7F Integral=UltraFineGrid SCF=(NoSymm,XQC,MaxCyc=120) IOp(1/33=1)
 ----------------------------------------------------------------------

 TstMul:  Mul=     1
 TstMul:  ICh=    -1
 TstMul:  Mul=     1
 Symbolic Z-matrix:
 Charge = -1 Multiplicity = 1

 SCF Done:  E(RHF) =  -214.361433153     A.U. after   13 cycles
 SCF Done:  E(RHF) =  -214.362020387     A.U. after   11 cycles
 SCF Done:  E(RHF) =  -214.361705878     A.U. after   12 cycles
 SCF Done:  E(RHF) =  -214.361473442     A.U. after   12 cycles
 SCF Done:  E(RHF) =  -214.361497403     A.U. after   11 cycles
 SCF Done:  E(RHF) =  -214.361499182     A.U. after   11 cycles
 SCF Done:  E(RHF) =  -214.361562936     A.U. after   11 cycles
 SCF Done:  E(RHF) =  -214.361639128     A.U. after   12 cycles
 SCF Done:  E(RHF) =  -214.361651815     A.U. after   11 cycles
 SCF Done:  E(RHF) =  -214.361606905     A.U. after   11 cycles
 SCF Done:  E(RHF) =  -214.361655654     A.U. after   11 cycles
 SCF Done:  E(RHF) =  -214.361656663     A.U. after    9 cycles
 SCF Done:  E(RHF) =  -214.361657091     A.U. after    9 cycles
 SCF Done:  E(RHF) =  -214.361657097     A.U. after    9 cycles
 SCF Done:  E(RHF) =  -214.361657105     A.U. after    8 cycles
 Optimization completed.
    -- Stationary point found.
 Normal termination of Gaussian 16 at Wed Oct  7 12:40:09 2020.
 Gaussian 16:  ES64L-G16RevA.03 25-Dec-2016

 ----------------------------------------------------------------------
 #P Freq HF/6-31G* 5D 7F Integral=UltraFineGrid SCF=(NoSymm,XQC,MaxCyc=
 120) IOp(1/33=1) Geom=Check Guess=Read
 ----------------------------------------------------------------------

 TstMul:  Mul=     1
 TstMul:  ICh=    -1
 TstMul:  Mul=     1
 Structure from the checkpoint file:  "MN_63_hoch3fts_BH76_HF_631Gs.chk"
 Charge = -1 Multiplicity = 1

                         Standard orientation:
 ---------------------------------------------------------------------
 Center     Atomic      Atomic             Coordinates (Angstroms)
 Number     Number       Type             X           Y           Z
 ---------------------------------------------------------------------
      1          9           0        1.834358   -0.018259    0.000009
      2          6           0        0.070154    0.019360   -0.000016
      3          1           0        0.048514    1.081361    0.000012
      4          1           0        0.036033   -0.506127   -0.922778
      5          1           0        0.036023   -0.506189    0.922718
      6          8           0       -1.861696    0.098274    0.000010
      7          1           0       -2.157152   -0.807064   -0.000010
 ---------------------------------------------------------------------

 SCF Done:  E(RHF) =  -214.361657105     A.U. after    1 cycles

 The electronic state is 1-A.
 Alpha  occ. eigenvalues --  -25.89978 -20.22234 -11.08676  -1.17717  -0.97399
 Alpha  occ. eigenvalues --   -0.71173  -0.41317  -0.41177  -0.32011  -0.27765
 Alpha  occ. eigenvalues --   -0.26018  -0.25393  -0.16449  -0.13896
 Alpha virt. eigenvalues --    0.43978   0.47478   0.51500   0.51876   0.55014
 Alpha virt. eigenvalues --    0.95614   0.96526   1.12596   1.30332   1.36468
 Alpha virt. eigenvalues --    1.38959   1.41958   1.48616   1.50397   1.59195

 Mulliken charges:
               1
     1  F   -0.749872
     2  C    0.010935
     3  H    0.173159
     4  H    0.159124
     5  H    0.159126
     6  O   -1.071010
     7  H    0.318536
 Sum of Mulliken charges =  -1.00000

 Dipole moment (field-independent basis, Debye):
    X=              0.2094    Y=             -1.3840    Z=             -0.0001  Tot=              1.3997
 Quadrupole moment (field-independent basis, Debye-Ang):
   XX=            -42.2907   YY=            -17.9401   ZZ=            -19.4032
   XY=              3.5613   XZ=              0.0001   YZ=              0.0000

  Exact polarizability:  32.025   2.135  18.147  -0.000   0.000  14.559
 Approx polarizability:  22.348   0.903  15.563  -0.000   0.000  12.397

 ******    1 imaginary frequencies (negative Signs) ******

                      1                      2                      3
                      A                      A                      A
 Frequencies --   -686.3060               192.0902               340.3128
 Red. masses --     10.7830                 1.0554                 3.0882
 Frc consts  --      2.9924                 0.0229                 0.2107
 IR Inten    --   1266.4451                64.5993                33.4560
 Raman Activ --      2.6594                 9.4548                 0.7360

                      4                      5                      6
                      A                      A                      A
 Frequencies --    369.0866               389.9087               796.0671
 Red. masses --      4.4593                11.9605                 1.1861
 Frc consts  --      0.3579                 1.0713                 0.4429
 IR Inten    --     44.1324                 1.7489                73.3106
 Raman Activ --      0.1558                 9.4800                 3.0182

                      7                      8                      9
                      A                      A                      A
 Frequencies --   1216.8237              1245.1291              1358.3944
 Red. masses --      1.0211                 1.0289                 1.0713
 Frc consts  --      0.8908                 0.9398                 1.1647
 IR Inten    --      0.3776                 0.3405                27.0793
 Raman Activ --     10.2626                11.6129                 0.3306

                     10                     11                     12
                      A                      A                      A
 Frequencies --   1526.2555              1526.6736              3368.0614
 Red. masses --      1.1146                 1.1209                 1.0081
 Frc consts  --      1.5298                 1.5393                 6.7379
 IR Inten    --      0.9276                 0.6224                 0.3909
 Raman Activ --      4.1183                 3.8496               119.0652

                     13                     14                     15
                      A                      A                      A
 Frequencies --   3560.8866              3568.5767              3949.9753
 Red. masses --      1.1293                 1.1283                 1.0674
 Frc consts  --      8.4370                 8.4656                 9.8119
 IR Inten    --     38.4619                29.7217                65.7896
 Raman Activ --     28.8544                38.0927               142.5463

 - Thermochemistry -
 -------------------
 Temperature   298.150 Kelvin.  Pressure   1.00000 Atm.
 Atom     1 has atomic number  9 and mass  18.99840

 Molecular mass:    51.02462 amu.
 Principal axes and moments of inertia in atomic units:
                           1         2         3
     Eigenvalues --    14.98182 448.41684 451.14094
           X            0.99989   0.01508  -0.00000
           Y           -0.01508   0.99989  -0.00000
           Z           -0.00000   0.00000   1.00000
 This molecule is an asymmetric top.
 Rotational symmetry number  1.
 Rotational temperatures (Kelvin)      5.78127     0.19315     0.19199
 Rotational constants (GHZ):         120.46209     4.02470     4.00039
    1 imaginary frequencies ignored.
 Zero-point vibrational energy     140012.4 (Joules/Mol)
                                   33.46376 (Kcal/Mol)
 Warning -- explicit consideration of   4 degrees of freedom as
           vibrations may cause significant error
 Vibrational temperatures:    276.37   489.63   531.03   560.99  1145.36
          (Kelvin)           1750.74  1791.46  1954.43  2195.94  2196.54
                             4845.89  5123.32  5134.39  5683.13

 Zero-point correction=                           0.053328 (Hartree/Particle)
 Thermal correction to Energy=                    0.057893
 Thermal correction to Enthalpy=                  0.058837
 Thermal correction to Gibbs Free Energy=         0.027396
 Sum of electronic and zero-point Energies=           -214.308329
 Sum of electronic and thermal Energies=              -214.303765
 Sum of electronic and thermal Enthalpies=            -214.302820
 Sum of electronic and thermal Free Energies=         -214.334261

                     E (Thermal)             CV                S
                      KCal/Mol        Cal/Mol-Kelvin    Cal/Mol-Kelvin
 Total                   36.328             13.722             66.172
 Electronic               0.000              0.000              0.000
 Translational            0.889              2.981             37.712
 Rotational               0.889              2.981             22.632
 Vibrational             34.551              7.760              5.828
 Vibration     1          0.634              1.851              2.208
 Vibration     2          0.720              1.595              1.211
 Vibration     3          0.741              1.536              1.084
 Vibration     4          0.758              1.492              1.000

 Optimization completed.
    -- Stationary point found.
 Normal termination of Gaussian 16 at Wed Oct  7 12:40:34 2020.
