 Gaussian 16, Revision A.03,
 Gaussian 16:  ES64L-G16RevA.03 25-Dec-2016

 ----------------------------------------------------------------------
 #P Opt(MaxCyc=100) HF/6-31G* 5D 7F Integral=UltraFineGrid SCF=(NoSymm,
 XQC,MaxCyc=120) IOp(1/33=1)
 ----------------------------------------------------------------------

 TstMul:  Mul=     1
 TstMul:  ICh=     0
 TstMul:  Mul=     1
 Symbolic Z-matrix:
 Charge =  0 Multiplicity = 1

 SCF Done:  E(RHF) =  -108.941945589     A.U. after    8 cycles
 SCF Done:  E(RHF) =  -108.943190257     A.U. after    7 cycles
 SCF Done:  E(RHF) =  -108.943194002     A.U. after    6 cycles
 Optimization completed.
    -- Stationary point found.

                         Standard orientation:
 ---------------------------------------------------------------------
 Center     Atomic      Atomic             Coordinates (Angstroms)
 Number     Number       Type             X           Y           Z
 ---------------------------------------------------------------------
      1          7           0        0.000000    0.000000    0.539055
      2          7           0        0.000000    0.000000   -0.539055
 ---------------------------------------------------------------------

 The electronic state is 1-SGG.
 Alpha  occ. eigenvalues --  -15.68885 -15.68511  -1.48806  -0.76932  -0.63109
 Alpha  occ. eigenvalues --   -0.61988  -0.61988
 Alpha virt. eigenvalues --    0.18140   0.18140   0.59356   0.78234   0.83137
 Alpha virt. eigenvalues --    0.83137   0.94174   1.01992   1.01992   1.14322
 Alpha virt. eigenvalues --    1.55897   1.71206   1.71206   1.87440   1.87440

 Mulliken charges:
               1
     1  N   -0.000000
     2  N   -0.000000
 Sum of Mulliken charges =  -0.00000

 Dipole moment (field-independent basis, Debye):
    X=              0.0000    Y=              0.0000    Z=              0.0000  Tot=              0.0000
 Quadrupole moment (field-independent basis, Debye-Ang):
   XX=            -10.1638   YY=            -10.1638   ZZ=            -11.6724
   XY=              0.0000   XZ=              0.0000   YZ=             -0.0000

 Normal termination of Gaussian 16 at Wed Oct  7 12:38:03 2020.
