 Gaussian 16, Revision A.03,
 Gaussian 16:  ES64L-G16RevA.03 25-Dec-2016

 ----------------------------------------------------------------------
 #P Opt(MaxCyc=100) HF/6-31G* 5D 7F Integral=UltraFineGrid SCF=(NoSymm,
 XQC,MaxCyc=120) IOp(1/33=1)
 ----------------------------------------------------------------------

 TstMul:  Mul=     1
 TstMul:  ICh=    -1
 TstMul:  Mul=     1
 Symbolic Z-matrix:
 Charge = -1 Multiplicity = 1

 SCF Done:  E(RHF) =  -214.451331363     A.U. after   12 cycles
 SCF Done:  E(RHF) =  -214.450161582     A.U. after   12 cycles
 SCF Done:  E(RHF) =  -214.451683918     A.U. after   11 cycles
 SCF Done:  E(RHF) =  -214.451522089     A.U. after   11 cycles
 SCF Done:  E(RHF) =  -214.451905743     A.U. after   11 cycles
 SCF Done:  E(RHF) =  -214.452108483     A.U. after   10 cycles
 SCF Done:  E(RHF) =  -214.452218548     A.U. after   10 cycles
 SCF Done:  E(RHF) =  -214.452307722     A.U. after   10 cycles
 SCF Done:  E(RHF) =  -214.452325111     A.U. after    9 cycles
 SCF Done:  E(RHF) =  -214.452326998     A.U. after    8 cycles
 Optimization completed.
    -- Stationary point found.

                         Standard orientation:
 ---------------------------------------------------------------------
 Center     Atomic      Atomic             Coordinates (Angstroms)
 Number     Number       Type             X           Y           Z
 ---------------------------------------------------------------------
      1          6           0       -1.248694   -0.386282    0.000012
      2          8           0       -0.467650    0.730963   -0.000013
      3          1           0       -2.313442   -0.119684    0.002808
      4          1           0       -1.094734   -1.029688   -0.877495
      5          1           0       -1.090658   -1.032325    0.874783
      6          1           0        0.558283    0.369054   -0.000102
      7          9           0        1.685991   -0.190819    0.000004
 ---------------------------------------------------------------------

 The electronic state is 1-A.
 Alpha  occ. eigenvalues --  -25.85811 -20.27649 -11.06557  -1.14819  -1.08495
 Alpha  occ. eigenvalues --   -0.70065  -0.45708  -0.40312  -0.37174  -0.29562
 Alpha  occ. eigenvalues --   -0.23423  -0.23147  -0.18928  -0.18094
 Alpha virt. eigenvalues --    0.43460   0.50293   0.51546   0.56116   0.73598
 Alpha virt. eigenvalues --    0.96845   0.98892   1.03452   1.20955   1.31075
 Alpha virt. eigenvalues --    1.33530   1.40062   1.44717   1.49408   1.51497

 Mulliken charges:
               1
     1  C   -0.046855
     2  O   -0.890017
     3  H    0.051787
     4  H    0.068508
     5  H    0.068802
     6  H    0.581334
     7  F   -0.833560
 Sum of Mulliken charges =  -1.00000

 Dipole moment (field-independent basis, Debye):
    X=             -3.7056    Y=             -1.1411    Z=              0.0006  Tot=              3.8774
 Quadrupole moment (field-independent basis, Debye-Ang):
   XX=            -30.9776   YY=            -22.3590   ZZ=            -20.2417
   XY=              2.5724   XZ=             -0.0009   YZ=             -0.0011

 Normal termination of Gaussian 16 at Wed Oct  7 12:39:06 2020.
