 Gaussian 16, Revision A.03,
 Gaussian 16:  ES64L-G16RevA.03 25-Dec-2016

 ----------------------------------------------------------------------
 #P HF/6-31G* 5D 7F Integral=UltraFineGrid SCF=(NoSymm,XQC,MaxCyc=120)
 IOp(1/33=1) Stable=Opt
 ----------------------------------------------------------------------

 TstMul:  Mul=     2
 TstMul:  ICh=     0
 TstMul:  Mul=     2
 Symbolic Z-matrix:
 Charge =  0 Multiplicity = 2

                         Standard orientation:
 ---------------------------------------------------------------------
 Center     Atomic      Atomic             Coordinates (Angstroms)
 Number     Number       Type             X           Y           Z
 ---------------------------------------------------------------------
      1          1           0        0.000000    0.000000    0.000000
 ---------------------------------------------------------------------

 SCF Done:  E(UHF) = -0.498232909202     A.U. after    5 cycles

 The electronic state is 2-A1G.
 Alpha  occ. eigenvalues --   -0.49823
 Alpha virt. eigenvalues --    0.91619
  Beta virt. eigenvalues --    0.09502   1.10807

 Mulliken charges and spin densities:
               1          2
     1  H    0.000000   1.000000
 Sum of Mulliken charges =   0.00000   1.00000

 Dipole moment (field-independent basis, Debye):
    X=              0.0000    Y=              0.0000    Z=              0.0000  Tot=              0.0000
 Quadrupole moment (field-independent basis, Debye-Ang):
   XX=             -1.2855   YY=             -1.2855   ZZ=             -1.2855
   XY=              0.0000   XZ=              0.0000   YZ=              0.0000

 1\1\GINC-NODE54\Stability\UHF\6-31G(d)\H1(2)\RPEVERATI\07-Oct-2020\0\\
 #P HF/6-31G* 5D 7F Integral=UltraFineGrid SCF=(NoSymm,XQC,MaxCyc=120)
 IOp(1/33=1) Stable=Opt\\TS search on BH76.\\0,2\H,0,0.,0.,0.\\Version=
 ES64L-G16RevA.03\State=2-A1G\HF=-0.4982329\S2=0.75\S2-1=0.\S2A=0.75\RM
 SD=0.000e+00\Dipole=0.,0.,0.\Quadrupole=0.,0.,0.,0.,0.,0.\PG=OH [O(H1)
 ]\\@

 Normal termination of Gaussian 16 at Wed Oct  7 12:37:18 2020.
