 Gaussian 16, Revision A.03,
 Gaussian 16:  ES64L-G16RevA.03 25-Dec-2016

 ----------------------------------------------------------------------
 #P Opt(MaxCyc=100) HF/6-31G* 5D 7F Integral=UltraFineGrid SCF=(NoSymm,
 XQC,MaxCyc=120) IOp(1/33=1)
 ----------------------------------------------------------------------

 TstMul:  Mul=     1
 TstMul:  ICh=     0
 TstMul:  Mul=     1
 Symbolic Z-matrix:
 Charge =  0 Multiplicity = 1

 SCF Done:  E(RHF) =  -92.8538265911     A.U. after   10 cycles
 SCF Done:  E(RHF) =  -92.8544645232     A.U. after    9 cycles
 SCF Done:  E(RHF) =  -92.8544683906     A.U. after    8 cycles
 Optimization completed.
    -- Stationary point found.

                         Standard orientation:
 ---------------------------------------------------------------------
 Center     Atomic      Atomic             Coordinates (Angstroms)
 Number     Number       Type             X           Y           Z
 ---------------------------------------------------------------------
      1          6           0        0.000000    0.000000   -0.729896
      2          7           0        0.000000    0.000000    0.424354
      3          1           0        0.000000    0.000000    1.408898
 ---------------------------------------------------------------------

 The electronic state is 1-SG.
 Alpha  occ. eigenvalues --  -15.60109 -11.28570  -1.26555  -0.87569  -0.51638
 Alpha  occ. eigenvalues --   -0.51638  -0.47824
 Alpha virt. eigenvalues --    0.20910   0.20910   0.21868   0.49055   0.74210
 Alpha virt. eigenvalues --    0.77278   0.77278   0.85437   0.99677   0.99677
 Alpha virt. eigenvalues --    1.21804   1.49348   1.71681   1.77700   1.77700

 Mulliken charges:
               1
     1  C    0.159285
     2  N   -0.592925
     3  H    0.433640
 Sum of Mulliken charges =  -0.00000

 Dipole moment (field-independent basis, Debye):
    X=              0.0000    Y=             -0.0000    Z=              2.8342  Tot=              2.8342
 Quadrupole moment (field-independent basis, Debye-Ang):
   XX=            -11.6661   YY=            -11.6661   ZZ=             -9.9183
   XY=             -0.0000   XZ=              0.0000   YZ=             -0.0000

 Normal termination of Gaussian 16 at Wed Oct  7 12:37:28 2020.
