 Gaussian 16, Revision A.03,
 Gaussian 16:  ES64L-G16RevA.03 25-Dec-2016

 ----------------------------------------------------------------------
 #P Opt(MaxCyc=100) HF/6-31G* 5D 7F Integral=UltraFineGrid SCF=(NoSymm,
 XQC,MaxCyc=120) IOp(1/33=1)
 ----------------------------------------------------------------------

 TstMul:  Mul=     3
 TstMul:  ICh=     0
 TstMul:  Mul=     3
 Symbolic Z-matrix:
 Charge =  0 Multiplicity = 3

 SCF Done:  E(UHF) =  -54.9584854410     A.U. after   12 cycles
 SCF Done:  E(UHF) =  -54.9586153571     A.U. after   10 cycles
 Optimization completed.
    -- Stationary point found.

                         Standard orientation:
 ---------------------------------------------------------------------
 Center     Atomic      Atomic             Coordinates (Angstroms)
 Number     Number       Type             X           Y           Z
 ---------------------------------------------------------------------
      1          7           0        0.000000    0.000000    0.127947
      2          1           0        0.000000    0.000000   -0.895629
 ---------------------------------------------------------------------

 The electronic state is 3-SG.
 Alpha  occ. eigenvalues --  -15.63709  -1.17266  -0.58329  -0.54105  -0.54105
 Alpha virt. eigenvalues --    0.23897   0.86209   0.86209   0.93124   1.00996
 Alpha virt. eigenvalues --    1.21792   1.92171   1.92171   1.92842   1.92842
 Alpha virt. eigenvalues --    2.57009
  Beta  occ. eigenvalues --  -15.57508  -0.92450  -0.50397
  Beta virt. eigenvalues --    0.15448   0.15448   0.26590   0.96874   1.05182
  Beta virt. eigenvalues --    1.05958   1.05958   1.29510   2.04375   2.04375
  Beta virt. eigenvalues --    2.12516   2.12516   2.63322

 Mulliken charges and spin densities:
               1          2
     1  N   -0.326841   2.118842
     2  H    0.326841  -0.118842
 Sum of Mulliken charges =  -0.00000   2.00000

 Dipole moment (field-independent basis, Debye):
    X=              0.0000    Y=              0.0000    Z=             -1.7515  Tot=              1.7515
 Quadrupole moment (field-independent basis, Debye-Ang):
   XX=             -6.1418   YY=             -6.1418   ZZ=             -5.8071
   XY=              0.0000   XZ=              0.0000   YZ=              0.0000

 Normal termination of Gaussian 16 at Wed Oct  7 12:37:40 2020.
