 Gaussian 16, Revision A.03,
 Gaussian 16:  ES64L-G16RevA.03 25-Dec-2016

 ----------------------------------------------------------------------
 #P Opt(MaxCyc=100) HF/6-31G* 5D 7F Integral=UltraFineGrid SCF=(NoSymm,
 XQC,MaxCyc=120) IOp(1/33=1)
 ----------------------------------------------------------------------

 TstMul:  Mul=     1
 TstMul:  ICh=    -1
 TstMul:  Mul=     1
 Symbolic Z-matrix:
 Charge = -1 Multiplicity = 1

 SCF Done:  E(RHF) =  -214.384029037     A.U. after   13 cycles
 SCF Done:  E(RHF) =  -214.384636026     A.U. after   11 cycles
 SCF Done:  E(RHF) =  -214.384968682     A.U. after   12 cycles
 SCF Done:  E(RHF) =  -214.385471722     A.U. after   13 cycles
 SCF Done:  E(RHF) =  -214.385780897     A.U. after   11 cycles
 SCF Done:  E(RHF) =  -214.386055540     A.U. after   12 cycles
 SCF Done:  E(RHF) =  -214.386163473     A.U. after   11 cycles
 SCF Done:  E(RHF) =  -214.386231821     A.U. after   10 cycles
 SCF Done:  E(RHF) =  -214.386335738     A.U. after   12 cycles
 SCF Done:  E(RHF) =  -214.386369791     A.U. after   10 cycles
 SCF Done:  E(RHF) =  -214.386378307     A.U. after   10 cycles
 SCF Done:  E(RHF) =  -214.386379335     A.U. after    9 cycles
 SCF Done:  E(RHF) =  -214.386379642     A.U. after    9 cycles
 Optimization completed.
    -- Stationary point found.

                         Standard orientation:
 ---------------------------------------------------------------------
 Center     Atomic      Atomic             Coordinates (Angstroms)
 Number     Number       Type             X           Y           Z
 ---------------------------------------------------------------------
      1          9           0        1.879577   -0.011548   -0.001564
      2          6           0        0.471045    0.023142    0.001948
      3          1           0        0.102544   -0.462230   -0.881228
      4          1           0        0.107338   -0.480065    0.877171
      5          1           0        0.160952    1.053040    0.013093
      6          8           0       -2.197791   -0.116033   -0.000661
      7          1           0       -2.530975    0.782605   -0.001360
 ---------------------------------------------------------------------

 The electronic state is 1-A.
 Alpha  occ. eigenvalues --  -26.08238 -20.12964 -11.09507  -1.38951  -0.86737
 Alpha  occ. eigenvalues --   -0.75301  -0.49989  -0.49929  -0.47308  -0.33752
 Alpha  occ. eigenvalues --   -0.33580  -0.21435  -0.07746  -0.07517
 Alpha virt. eigenvalues --    0.44103   0.50367   0.52435   0.52522   0.58469
 Alpha virt. eigenvalues --    0.92664   0.92787   1.00551   1.32334   1.33004
 Alpha virt. eigenvalues --    1.34926   1.42167   1.46448   1.57310   1.59396

 Mulliken charges:
               1
     1  F   -0.525846
     2  C   -0.018152
     3  H    0.171478
     4  H    0.170634
     5  H    0.131336
     6  O   -1.189362
     7  H    0.259913
 Sum of Mulliken charges =  -1.00000

 Dipole moment (field-independent basis, Debye):
    X=              6.4748    Y=              1.4416    Z=              0.0055  Tot=              6.6333
 Quadrupole moment (field-independent basis, Debye-Ang):
   XX=            -46.2945   YY=            -18.5140   ZZ=            -19.6378
   XY=             -3.7635   XZ=              0.0032   YZ=             -0.0030

 Normal termination of Gaussian 16 at Wed Oct  7 12:39:39 2020.
