 Gaussian 16, Revision A.03,
 Gaussian 16:  ES64L-G16RevA.03 25-Dec-2016

 ----------------------------------------------------------------------
 #P Opt(MaxCyc=100) HF/6-31G* 5D 7F Integral=UltraFineGrid SCF=(NoSymm,
 XQC,MaxCyc=120) IOp(1/33=1)
 ----------------------------------------------------------------------

 TstMul:  Mul=     2
 TstMul:  ICh=     0
 TstMul:  Mul=     2
 Symbolic Z-matrix:
 Charge =  0 Multiplicity = 2

 SCF Done:  E(UHF) =  -398.062908390     A.U. after   13 cycles
 SCF Done:  E(UHF) =  -398.062963170     A.U. after   10 cycles
 SCF Done:  E(UHF) =  -398.062964315     A.U. after    8 cycles
 Optimization completed.
    -- Stationary point found.

                         Standard orientation:
 ---------------------------------------------------------------------
 Center     Atomic      Atomic             Coordinates (Angstroms)
 Number     Number       Type             X           Y           Z
 ---------------------------------------------------------------------
      1         16           0        0.000000    0.000000    0.078239
      2          1           0        0.000000    0.000000   -1.251820
 ---------------------------------------------------------------------

 Unable to determine electronic state:  an orbital has unidentified symmetry.
 Alpha  occ. eigenvalues --  -91.96877  -8.98606  -6.68168  -6.66426  -6.66054
 Alpha  occ. eigenvalues --   -0.99191  -0.55475  -0.46760  -0.40171
 Alpha virt. eigenvalues --    0.18166   0.42612   0.48797   0.49253   0.52676
 Alpha virt. eigenvalues --    0.92018   0.96349   0.98671   0.99300   1.01227
 Alpha virt. eigenvalues --    1.42301
  Beta  occ. eigenvalues --  -91.95956  -8.97618  -6.65918  -6.65533  -6.64163
  Beta  occ. eigenvalues --   -0.89935  -0.53280  -0.37634
  Beta virt. eigenvalues --    0.00663   0.19885   0.44771   0.50187   0.53586
  Beta virt. eigenvalues --    0.57830   0.93912   1.02167   1.04949   1.07388
  Beta virt. eigenvalues --    1.07607   1.43606

 Mulliken charges and spin densities:
               1          2
     1  S   -0.094115   1.045230
     2  H    0.094115  -0.045230
 Sum of Mulliken charges =   0.00000   1.00000

 Dipole moment (field-independent basis, Debye):
    X=              0.0000    Y=             -0.0000    Z=             -1.0773  Tot=              1.0773
 Quadrupole moment (field-independent basis, Debye-Ang):
   XX=            -12.8867   YY=            -15.8815   ZZ=            -12.2402
   XY=             -0.0000   XZ=              0.0000   YZ=             -0.0000

 Normal termination of Gaussian 16 at Wed Oct  7 12:37:38 2020.
