 Gaussian 16, Revision A.03,
 Gaussian 16:  ES64L-G16RevA.03 25-Dec-2016

 ----------------------------------------------------------------------
 #P Opt(MaxCyc=100) HF/6-31G* 5D 7F Integral=UltraFineGrid SCF=(NoSymm,
 XQC,MaxCyc=120) IOp(1/33=1)
 ----------------------------------------------------------------------

 TstMul:  Mul=     1
 TstMul:  ICh=     0
 TstMul:  Mul=     1
 Symbolic Z-matrix:
 Charge =  0 Multiplicity = 1

 SCF Done:  E(RHF) =  -56.1835444643     A.U. after   10 cycles
 SCF Done:  E(RHF) =  -56.1837051977     A.U. after    9 cycles
 SCF Done:  E(RHF) =  -56.1837131614     A.U. after    8 cycles
 Optimization completed.
    -- Stationary point found.

                         Standard orientation:
 ---------------------------------------------------------------------
 Center     Atomic      Atomic             Coordinates (Angstroms)
 Number     Number       Type             X           Y           Z
 ---------------------------------------------------------------------
      1          7           0        0.000000    0.000000    0.111252
      2          1           0        0.000000    0.931491   -0.259589
      3          1           0        0.806695   -0.465746   -0.259589
      4          1           0       -0.806695   -0.465746   -0.259589
 ---------------------------------------------------------------------

 The electronic state is 1-A1.
 Alpha  occ. eigenvalues --  -15.52959  -1.14027  -0.62757  -0.62757  -0.41997
 Alpha virt. eigenvalues --    0.22532   0.32499   0.32499   0.89625   0.89625
 Alpha virt. eigenvalues --    0.97472   1.22563   1.23232   1.23232   1.47747
 Alpha virt. eigenvalues --    1.96321   1.96321   2.28491   2.76993   2.76993

 Mulliken charges:
               1
     1  N   -1.020622
     2  H    0.340207
     3  H    0.340207
     4  H    0.340207
 Sum of Mulliken charges =   0.00000

 Dipole moment (field-independent basis, Debye):
    X=             -0.0000    Y=             -0.0000    Z=             -1.9134  Tot=              1.9134
 Quadrupole moment (field-independent basis, Debye-Ang):
   XX=             -6.0614   YY=             -6.0614   ZZ=             -8.8784
   XY=              0.0000   XZ=              0.0000   YZ=              0.0000

 Normal termination of Gaussian 16 at Wed Oct  7 12:37:59 2020.
