 Gaussian 16, Revision A.03,
 Gaussian 16:  ES64L-G16RevA.03 25-Dec-2016

 ----------------------------------------------------------------------
 #P Opt(MaxCyc=100) HF/6-31G* 5D 7F Integral=UltraFineGrid SCF=(NoSymm,
 XQC,MaxCyc=120) IOp(1/33=1)
 ----------------------------------------------------------------------

 TstMul:  Mul=     2
 TstMul:  ICh=     0
 TstMul:  Mul=     2
 Symbolic Z-matrix:
 Charge =  0 Multiplicity = 2

 SCF Done:  E(UHF) =  -55.5567213759     A.U. after   12 cycles
 SCF Done:  E(UHF) =  -55.5569634588     A.U. after   11 cycles
 SCF Done:  E(UHF) =  -55.5569647016     A.U. after    9 cycles
 Optimization completed.
    -- Stationary point found.

                         Standard orientation:
 ---------------------------------------------------------------------
 Center     Atomic      Atomic             Coordinates (Angstroms)
 Number     Number       Type             X           Y           Z
 ---------------------------------------------------------------------
      1          7           0        0.000000   -0.000000    0.137735
      2          1           0        0.000000    0.800552   -0.482073
      3          1           0       -0.000000   -0.800552   -0.482073
 ---------------------------------------------------------------------

 The electronic state is 2-B1.
 Alpha  occ. eigenvalues --  -15.58832  -1.16541  -0.65049  -0.50838  -0.49833
 Alpha virt. eigenvalues --    0.22421   0.30818   0.88354   0.89301   0.95591
 Alpha virt. eigenvalues --    1.10356   1.19480   1.33134   1.92907   1.95843
 Alpha virt. eigenvalues --    1.96056   2.42392   2.74736
  Beta  occ. eigenvalues --  -15.55646  -1.04492  -0.62671  -0.45426
  Beta virt. eigenvalues --    0.14566   0.23970   0.31786   0.89549   0.98051
  Beta virt. eigenvalues --    1.06170   1.14173   1.21424   1.37665   1.99477
  Beta virt. eigenvalues --    2.03386   2.06105   2.50609   2.76180

 Mulliken charges and spin densities:
               1          2
     1  N   -0.668934   1.130619
     2  H    0.334467  -0.065310
     3  H    0.334467  -0.065310
 Sum of Mulliken charges =  -0.00000   1.00000

 Dipole moment (field-independent basis, Debye):
    X=             -0.0000    Y=              0.0000    Z=             -2.1267  Tot=              2.1267
 Quadrupole moment (field-independent basis, Debye-Ang):
   XX=             -6.9292   YY=             -5.3902   ZZ=             -7.4107
   XY=              0.0000   XZ=              0.0000   YZ=             -0.0000

 Normal termination of Gaussian 16 at Wed Oct  7 12:38:04 2020.
