 Gaussian 16, Revision A.03,
 Gaussian 16:  ES64L-G16RevA.03 25-Dec-2016

 ----------------------------------------------------------------------
 #P Opt(MaxCyc=100) HF/6-31G* 5D 7F Integral=UltraFineGrid SCF=(NoSymm,
 XQC,MaxCyc=120) IOp(1/33=1)
 ----------------------------------------------------------------------

 TstMul:  Mul=     2
 TstMul:  ICh=     0
 TstMul:  Mul=     2
 Symbolic Z-matrix:
 Charge =  0 Multiplicity = 2

 SCF Done:  E(UHF) =  -75.3809542165     A.U. after   12 cycles
 SCF Done:  E(UHF) =  -75.3810575979     A.U. after   10 cycles
 Optimization completed.
    -- Stationary point found.

                         Standard orientation:
 ---------------------------------------------------------------------
 Center     Atomic      Atomic             Coordinates (Angstroms)
 Number     Number       Type             X           Y           Z
 ---------------------------------------------------------------------
      1          8           0        0.000000    0.000000    0.106494
      2          1           0        0.000000    0.000000   -0.851954
 ---------------------------------------------------------------------

 Unable to determine electronic state:  an orbital has unidentified symmetry.
 Alpha  occ. eigenvalues --  -20.63321  -1.38198  -0.67508  -0.64500  -0.55092
 Alpha virt. eigenvalues --    0.22264   1.06076   1.07026   1.13133   1.17934
 Alpha virt. eigenvalues --    1.50271   1.96747   2.02340   2.02821   2.02879
 Alpha virt. eigenvalues --    2.76788
  Beta  occ. eigenvalues --  -20.59323  -1.22663  -0.63142  -0.50433
  Beta virt. eigenvalues --    0.13210   0.23556   1.07445   1.15570   1.20835
  Beta virt. eigenvalues --    1.27211   1.54865   2.03464   2.06671   2.12656
  Beta virt. eigenvalues --    2.12793   2.79830

 Mulliken charges and spin densities:
               1          2
     1  O   -0.463191   1.050935
     2  H    0.463191  -0.050935
 Sum of Mulliken charges =   0.00000   1.00000

 Dipole moment (field-independent basis, Debye):
    X=              0.0000    Y=             -0.0000    Z=             -1.8849  Tot=              1.8849
 Quadrupole moment (field-independent basis, Debye-Ang):
   XX=             -6.4561   YY=             -5.2627   ZZ=             -4.4055
   XY=              0.0000   XZ=              0.0000   YZ=             -0.0000

 Normal termination of Gaussian 16 at Wed Oct  7 12:37:58 2020.
