 Gaussian 16, Revision A.03,

 ----------------------------------------------------------------------
 #P Opt(TS,MaxCyc=50,NoEigenTest,MaxStep=10,AddRedundant) HF/6-31G* 5D
 7F Integral=UltraFineGrid SCF=(NoSymm,MaxCyc=120) IOp(1/33=1)
 ----------------------------------------------------------------------

 TstMul:  Mul=     2
 TstMul:  ICh=     0
 TstMul:  Mul=     2
 Symbolic Z-matrix:
 Charge =  0 Multiplicity = 2

 SCF Done:  E(UHF) =  -76.4718504445     A.U. after   20 cycles
 SCF Done:  E(UHF) =  -76.4739281305     A.U. after   16 cycles
 SCF Done:  E(UHF) =  -76.4736884942     A.U. after   16 cycles
 SCF Done:  E(UHF) =  -76.4720517172     A.U. after   16 cycles
 SCF Done:  E(UHF) =  -76.4706125749     A.U. after   16 cycles
 SCF Done:  E(UHF) =  -76.4692038428     A.U. after   16 cycles
 SCF Done:  E(UHF) =  -76.4676970538     A.U. after   16 cycles
 SCF Done:  E(UHF) =  -76.4660631141     A.U. after   16 cycles
 SCF Done:  E(UHF) =  -76.4645255187     A.U. after   16 cycles
 SCF Done:  E(UHF) =  -76.4637340616     A.U. after   16 cycles
 SCF Done:  E(UHF) =  -76.4640641299     A.U. after   15 cycles
 SCF Done:  E(UHF) =  -76.4643968699     A.U. after   15 cycles
 SCF Done:  E(UHF) =  -76.4647368673     A.U. after   14 cycles
 SCF Done:  E(UHF) =  -76.4650105438     A.U. after   14 cycles
 SCF Done:  E(UHF) =  -76.4652343474     A.U. after   15 cycles
 SCF Done:  E(UHF) =  -76.4653941822     A.U. after   14 cycles
 SCF Done:  E(UHF) =  -76.4654790233     A.U. after   14 cycles
 SCF Done:  E(UHF) =  -76.4654916263     A.U. after   14 cycles
 Optimization completed.
    -- Stationary point found.
 Normal termination of Gaussian 16 at Thu Oct  8 19:47:15 2020.
 Gaussian 16:  ES64L-G16RevA.03 25-Dec-2016

 ----------------------------------------------------------------------
 #P Freq HF/6-31G* 5D 7F Integral=UltraFineGrid SCF=(NoSymm,XQC,MaxCyc=
 120) IOp(1/33=1) Geom=Check Guess=Read
 ----------------------------------------------------------------------

 TstMul:  Mul=     2
 TstMul:  ICh=     0
 TstMul:  Mul=     2
 Structure from the checkpoint file:  "MN_79_RKT02_BH76_HF_631Gs.chk"
 Charge =  0 Multiplicity = 2

                         Standard orientation:
 ---------------------------------------------------------------------
 Center     Atomic      Atomic             Coordinates (Angstroms)
 Number     Number       Type             X           Y           Z
 ---------------------------------------------------------------------
      1          8           0       -0.278579   -0.109605   -0.000017
      2          1           0       -0.484753    0.824034    0.000023
      3          1           0        0.905510   -0.066170    0.000259
      4          1           0        1.807871    0.118980   -0.000145
 ---------------------------------------------------------------------

 SCF Done:  E(UHF) =  -76.4654916263     A.U. after    1 cycles

 The electronic state is 2-A.
 Alpha  occ. eigenvalues --  -20.61445  -1.38048  -0.75117  -0.64951  -0.53933
 Alpha  occ. eigenvalues --   -0.48677
 Alpha virt. eigenvalues --    0.23193   0.35799   0.86149   1.02521   1.10739
 Alpha virt. eigenvalues --    1.13554   1.21817   1.36655   1.72087   1.98199
 Alpha virt. eigenvalues --    2.01678   2.03423   2.46072   2.80617
  Beta  occ. eigenvalues --  -20.58640  -1.28406  -0.67191  -0.54181  -0.50899
  Beta virt. eigenvalues --    0.05016   0.24527   0.42035   0.89518   1.05949
  Beta virt. eigenvalues --    1.15064   1.19644   1.24427   1.41687   1.76602
  Beta virt. eigenvalues --    2.03165   2.03730   2.08328   2.49905   2.83302

 Mulliken charges and spin densities:
               1          2
     1  O   -0.662396   0.660880
     2  H    0.458806  -0.028740
     3  H    0.192931  -0.292483
     4  H    0.010658   0.660343
 Sum of Mulliken charges =  -0.00000   1.00000

 Dipole moment (field-independent basis, Debye):
    X=              0.3924    Y=              1.8088    Z=              0.0003  Tot=              1.8508
 Quadrupole moment (field-independent basis, Debye-Ang):
   XX=             -6.9993   YY=             -6.6271   ZZ=             -8.5757
   XY=             -0.9670   XZ=              0.0001   YZ=              0.0000

  Exact polarizability:  25.080   0.776   5.971  -0.002  -0.001   2.580
 Approx polarizability:  13.059   0.696   4.936  -0.001  -0.000   2.167

 ******    1 imaginary frequencies (negative Signs) ******

                      1                      2                      3
                      A                      A                      A
 Frequencies --  -3146.5831               704.5560               760.3446
 Red. masses --      1.0392                 1.0141                 1.0206
 Frc consts  --      6.0622                 0.2966                 0.3476
 IR Inten    --   2624.7939                21.6679                25.8176
 Raman Activ --     25.8555                30.8197                17.0189

                      4                      5                      6
                      A                      A                      A
 Frequencies --   1439.1499              1625.4926              4014.2164
 Red. masses --      1.1067                 1.0535                 1.0667
 Frc consts  --      1.3505                 1.6400                10.1277
 IR Inten    --    169.9857                 6.3343                45.9627
 Raman Activ --      5.7504               143.8911                74.0676

 - Thermochemistry -
 -------------------
 Temperature   298.150 Kelvin.  Pressure   1.00000 Atm.
 Atom     1 has atomic number  8 and mass  15.99491

 Molecular mass:    19.01839 amu.
 Principal axes and moments of inertia in atomic units:
                           1         2         3
     Eigenvalues --     3.03895  19.09144  22.13039
           X            0.99951  -0.03142  -0.00000
           Y            0.03142   0.99951  -0.00001
           Z            0.00000   0.00001   1.00000
 This molecule is an asymmetric top.
 Rotational symmetry number  1.
 Rotational temperatures (Kelvin)     28.50124     4.53679     3.91380
 Rotational constants (GHZ):         593.86952    94.53144    81.55035
    1 imaginary frequencies ignored.
 Zero-point vibrational energy      51103.0 (Joules/Mol)
                                   12.21392 (Kcal/Mol)
 Vibrational temperatures:   1013.70  1093.97  2070.62  2338.72  5775.56
          (Kelvin)

 Zero-point correction=                           0.019464 (Hartree/Particle)
 Thermal correction to Energy=                    0.022507
 Thermal correction to Enthalpy=                  0.023452
 Thermal correction to Gibbs Free Energy=        -0.001078
 Sum of electronic and zero-point Energies=            -76.446028
 Sum of electronic and thermal Energies=               -76.442984
 Sum of electronic and thermal Enthalpies=             -76.442040
 Sum of electronic and thermal Free Energies=          -76.466570

                     E (Thermal)             CV                S
                      KCal/Mol        Cal/Mol-Kelvin    Cal/Mol-Kelvin
 Total                   14.124              7.641             51.628
 Electronic               0.000              0.000              1.377
 Translational            0.889              2.981             34.771
 Rotational               0.889              2.981             14.915
 Vibrational             12.346              1.679              0.565

 Optimization completed.
    -- Stationary point found.
 Normal termination of Gaussian 16 at Thu Oct  8 19:47:20 2020.
