 Gaussian 16, Revision A.03,
 Gaussian 16:  ES64L-G16RevA.03 25-Dec-2016

 ----------------------------------------------------------------------
 #P Opt(MaxCyc=100) HF/6-31G* 5D 7F Integral=UltraFineGrid SCF=(NoSymm,
 XQC,MaxCyc=120) IOp(1/33=1)
 ----------------------------------------------------------------------

 TstMul:  Mul=     1
 TstMul:  ICh=     0
 TstMul:  Mul=     1
 Symbolic Z-matrix:
 Charge =  0 Multiplicity = 1

 SCF Done:  E(RHF) =  -342.446277468     A.U. after   10 cycles
 SCF Done:  E(RHF) =  -342.446559252     A.U. after    8 cycles
 Optimization completed.
    -- Stationary point found.

                         Standard orientation:
 ---------------------------------------------------------------------
 Center     Atomic      Atomic             Coordinates (Angstroms)
 Number     Number       Type             X           Y           Z
 ---------------------------------------------------------------------
      1         15           0        0.000000    0.000000    0.121547
      2          1           0        0.000000    1.198429   -0.607733
      3          1           0        1.037870   -0.599215   -0.607733
      4          1           0       -1.037870   -0.599215   -0.607733
 ---------------------------------------------------------------------

 The electronic state is 1-A1.
 Alpha  occ. eigenvalues --  -79.92348  -7.48385  -5.37702  -5.37702  -5.37527
 Alpha  occ. eigenvalues --   -0.86096  -0.52986  -0.52986  -0.38133
 Alpha virt. eigenvalues --    0.16991   0.16991   0.27583   0.44541   0.44541
 Alpha virt. eigenvalues --    0.44939   0.52127   0.89059   0.89059   0.91019
 Alpha virt. eigenvalues --    0.91019   0.93935   1.20836   1.47632   1.47632

 Mulliken charges:
               1
     1  P    0.035414
     2  H   -0.011805
     3  H   -0.011805
     4  H   -0.011805
 Sum of Mulliken charges =  -0.00000

 Dipole moment (field-independent basis, Debye):
    X=              0.0000    Y=             -0.0000    Z=             -0.8767  Tot=              0.8767
 Quadrupole moment (field-independent basis, Debye-Ang):
   XX=            -14.7499   YY=            -14.7499   ZZ=            -17.5485
   XY=              0.0000   XZ=             -0.0000   YZ=              0.0000

 Normal termination of Gaussian 16 at Wed Oct  7 12:38:15 2020.
