 Gaussian 16, Revision A.03,
 Gaussian 16:  ES64L-G16RevA.03 25-Dec-2016

 ----------------------------------------------------------------------
 #P HF/6-31G* 5D 7F Integral=UltraFineGrid SCF=(NoSymm,XQC,MaxCyc=120)
 IOp(1/33=1) Stable=Opt
 ----------------------------------------------------------------------

 TstMul:  Mul=     3
 TstMul:  ICh=     0
 TstMul:  Mul=     3
 Symbolic Z-matrix:
 Charge =  0 Multiplicity = 3

                         Standard orientation:
 ---------------------------------------------------------------------
 Center     Atomic      Atomic             Coordinates (Angstroms)
 Number     Number       Type             X           Y           Z
 ---------------------------------------------------------------------
      1          8           0        0.000000    0.000000    0.000000
 ---------------------------------------------------------------------

 SCF Done:  E(UHF) =  -74.7831809179     A.U. after    9 cycles

 Unable to determine electronic state:  an orbital has unidentified symmetry.
 Alpha  occ. eigenvalues --  -20.71192  -1.40849  -0.70085  -0.70085  -0.60458
 Alpha virt. eigenvalues --    1.03573   1.03573   1.09544   1.15692   1.94249
 Alpha virt. eigenvalues --    1.94249   1.99882   1.99882   2.01877
  Beta  occ. eigenvalues --  -20.63276  -1.07136  -0.51595
  Beta virt. eigenvalues --    0.12782   0.12782   1.14074   1.25549   1.25700
  Beta virt. eigenvalues --    1.25700   2.09632   2.10487   2.10487   2.13679
  Beta virt. eigenvalues --    2.13679

 Mulliken charges and spin densities:
               1          2
     1  O    0.000000   2.000000
 Sum of Mulliken charges =   0.00000   2.00000

 Dipole moment (field-independent basis, Debye):
    X=              0.0000    Y=              0.0000    Z=             -0.0000  Tot=              0.0000
 Quadrupole moment (field-independent basis, Debye-Ang):
   XX=             -4.5330   YY=             -5.6916   ZZ=             -4.5489
   XY=             -0.0000   XZ=              0.0000   YZ=             -0.1358

 1\1\GINC-NODE56\Stability\UHF\6-31G(d)\O1(3)\RPEVERATI\07-Oct-2020\0\\
 #P HF/6-31G* 5D 7F Integral=UltraFineGrid SCF=(NoSymm,XQC,MaxCyc=120)
 IOp(1/33=1) Stable=Opt\\TS search on BH76.\\0,3\O,0,0.,0.,0.\\Version=
 ES64L-G16RevA.03\HF=-74.7831809\S2=2.005533\S2-1=0.\S2A=2.000009\RMSD=
 1.161e-09\Dipole=0.,0.,0.\Quadrupole=0.2792334,-0.570301,0.2910676,-0.
 1009635,0.,0.\PG=OH [O(O1)]\\@

 Normal termination of Gaussian 16 at Wed Oct  7 12:37:46 2020.
