 Gaussian 16, Revision A.03,
 Gaussian 16:  ES64L-G16RevA.03 25-Dec-2016

 ----------------------------------------------------------------------
 #P Opt(MaxCyc=100) HF/6-31G* 5D 7F Integral=UltraFineGrid SCF=(NoSymm,
 XQC,MaxCyc=120) IOp(1/33=1)
 ----------------------------------------------------------------------

 TstMul:  Mul=     1
 TstMul:  ICh=    -1
 TstMul:  Mul=     1
 Symbolic Z-matrix:
 Charge = -1 Multiplicity = 1

 SCF Done:  E(RHF) =  -75.3243062384     A.U. after   10 cycles
 SCF Done:  E(RHF) =  -75.3243065861     A.U. after    7 cycles
 Optimization completed.
    -- Stationary point found.

                         Standard orientation:
 ---------------------------------------------------------------------
 Center     Atomic      Atomic             Coordinates (Angstroms)
 Number     Number       Type             X           Y           Z
 ---------------------------------------------------------------------
      1          8           0        0.000000    0.000000    0.106957
      2          1           0        0.000000    0.000000   -0.855655
 ---------------------------------------------------------------------

 The electronic state is 1-SG.
 Alpha  occ. eigenvalues --  -20.08442  -0.82124  -0.17153  -0.03526  -0.03526
 Alpha virt. eigenvalues --    0.56690   1.48531   1.59250   1.59250   1.63941
 Alpha virt. eigenvalues --    1.97290   2.49727   2.49727   2.55541   2.55541
 Alpha virt. eigenvalues --    3.23900

 Mulliken charges:
               1
     1  O   -1.230128
     2  H    0.230128
 Sum of Mulliken charges =  -1.00000

 Dipole moment (field-independent basis, Debye):
    X=              0.0000    Y=              0.0000    Z=             -1.4459  Tot=              1.4459
 Quadrupole moment (field-independent basis, Debye-Ang):
   XX=             -7.9714   YY=             -7.9714   ZZ=             -6.5915
   XY=              0.0000   XZ=              0.0000   YZ=             -0.0000

 Normal termination of Gaussian 16 at Wed Oct  7 12:37:56 2020.
