 Gaussian 16, Revision A.03,
 Gaussian 16:  ES64L-G16RevA.03 25-Dec-2016

 ----------------------------------------------------------------------
 #P Opt(MaxCyc=100) HF/6-31G* 5D 7F Integral=UltraFineGrid SCF=(NoSymm,
 XQC,MaxCyc=120) IOp(1/33=1)
 ----------------------------------------------------------------------

 TstMul:  Mul=     2
 TstMul:  ICh=     0
 TstMul:  Mul=     2
 Symbolic Z-matrix:
 Charge =  0 Multiplicity = 2

 SCF Done:  E(UHF) =  -341.848168497     A.U. after   12 cycles
 SCF Done:  E(UHF) =  -341.848295441     A.U. after   10 cycles
 SCF Done:  E(UHF) =  -341.848298313     A.U. after    9 cycles
 Optimization completed.
    -- Stationary point found.

                         Standard orientation:
 ---------------------------------------------------------------------
 Center     Atomic      Atomic             Coordinates (Angstroms)
 Number     Number       Type             X           Y           Z
 ---------------------------------------------------------------------
      1         15           0        0.000000    0.000000    0.113471
      2          1           0        0.000000    1.024372   -0.851034
      3          1           0       -0.000000   -1.024372   -0.851034
 ---------------------------------------------------------------------

 The electronic state is 2-B1.
 Alpha  occ. eigenvalues --  -79.93864  -7.49742  -5.40081  -5.38780  -5.38594
 Alpha  occ. eigenvalues --   -0.86108  -0.53166  -0.42759  -0.37438
 Alpha virt. eigenvalues --    0.16536   0.22044   0.37206   0.43912   0.44216
 Alpha virt. eigenvalues --    0.46287   0.87752   0.88474   0.88872   0.90460
 Alpha virt. eigenvalues --    0.95210   1.26090   1.46195
  Beta  occ. eigenvalues --  -79.93149  -7.48902  -5.38284  -5.38221  -5.36893
  Beta  occ. eigenvalues --   -0.79242  -0.52581  -0.40163
  Beta virt. eigenvalues --    0.04074   0.17319   0.25650   0.40241   0.44889
  Beta virt. eigenvalues --    0.47172   0.52678   0.88975   0.91377   0.95446
  Beta virt. eigenvalues --    0.95844   1.01014   1.27641   1.46499

 Mulliken charges and spin densities:
               1          2
     1  P    0.074211   1.128567
     2  H   -0.037105  -0.064283
     3  H   -0.037105  -0.064283
 Sum of Mulliken charges =  -0.00000   1.00000

 Dipole moment (field-independent basis, Debye):
    X=              0.0000    Y=             -0.0000    Z=             -0.8706  Tot=              0.8706
 Quadrupole moment (field-independent basis, Debye-Ang):
   XX=            -14.9777   YY=            -14.1085   ZZ=            -15.9294
   XY=             -0.0000   XZ=             -0.0000   YZ=              0.0000

 Normal termination of Gaussian 16 at Wed Oct  7 12:38:19 2020.
