 Gaussian 16, Revision A.03,

 ----------------------------------------------------------------------
 #P Opt(TS,MaxCyc=50,NoEigenTest,MaxStep=10,AddRedundant) HF/6-31G* 5D
 7F Integral=UltraFineGrid SCF=(NoSymm,XQC,MaxCyc=120) IOp(1/33=1)
 ----------------------------------------------------------------------

 TstMul:  Mul=     2
 TstMul:  ICh=     0
 TstMul:  Mul=     2
 Symbolic Z-matrix:
 Charge =  0 Multiplicity = 2

 SCF Done:  E(UHF) =  -499.601025769     A.U. after   15 cycles
 SCF Done:  E(UHF) =  -499.601271075     A.U. after   14 cycles
 SCF Done:  E(UHF) =  -499.601326128     A.U. after   13 cycles
 SCF Done:  E(UHF) =  -499.601187682     A.U. after   14 cycles
 SCF Done:  E(UHF) =  -499.601214039     A.U. after   12 cycles
 SCF Done:  E(UHF) =  -499.601222575     A.U. after   13 cycles
 SCF Done:  E(UHF) =  -499.601224398     A.U. after   12 cycles
 Optimization completed.
    -- Stationary point found.
 Normal termination of Gaussian 16 at Wed Oct  7 12:39:33 2020.
 Gaussian 16:  ES64L-G16RevA.03 25-Dec-2016

 ----------------------------------------------------------------------
 #P Freq HF/6-31G* 5D 7F Integral=UltraFineGrid SCF=(NoSymm,XQC,MaxCyc=
 120) IOp(1/33=1) Geom=Check Guess=Read
 ----------------------------------------------------------------------

 TstMul:  Mul=     2
 TstMul:  ICh=     0
 TstMul:  Mul=     2
 Structure from the checkpoint file:  "MN_84_RKT08_BH76_HF_631Gs.chk"
 Charge =  0 Multiplicity = 2

                         Standard orientation:
 ---------------------------------------------------------------------
 Center     Atomic      Atomic             Coordinates (Angstroms)
 Number     Number       Type             X           Y           Z
 ---------------------------------------------------------------------
      1          6           0        1.835694   -0.000065   -0.000019
      2          1           0        2.061484    0.533932    0.907574
      3          1           0        2.060921    0.518714   -0.916537
      4          1           0        2.059576   -1.053463    0.008698
      5          1           0        0.437507    0.001318    0.000443
      6         17           0       -1.037273   -0.000006   -0.000004
 ---------------------------------------------------------------------

 SCF Done:  E(UHF) =  -499.601224398     A.U. after    1 cycles

 The electronic state is 2-A.
 Alpha  occ. eigenvalues -- -104.80535 -11.27917 -10.54407  -8.02224  -8.00726
 Alpha  occ. eigenvalues --   -8.00726  -1.09794  -1.00140  -0.63981  -0.61954
 Alpha  occ. eigenvalues --   -0.61953  -0.45255  -0.45255  -0.41816
 Alpha virt. eigenvalues --    0.22961   0.29215   0.29216   0.29763   0.57520
 Alpha virt. eigenvalues --    0.60999   0.61003   0.62896   0.73258   0.73263
 Alpha virt. eigenvalues --    0.74377   1.12472   1.12476   1.12628   1.15592

  Beta  occ. eigenvalues -- -104.79887 -11.26002 -10.53748  -8.00361  -8.00361
  Beta  occ. eigenvalues --   -7.99618  -1.04407  -0.93175  -0.60729  -0.60727
  Beta  occ. eigenvalues --   -0.54945  -0.44056  -0.44056
  Beta virt. eigenvalues --    0.01711   0.24390   0.30197   0.30198   0.34234
  Beta virt. eigenvalues --    0.59496   0.61437   0.61441   0.69154   0.73991
  Beta virt. eigenvalues --    0.73996   0.83412   1.13372   1.15277   1.15282

 Mulliken charges and spin densities:
               1          2
     1  C   -0.546854   0.889911
     2  H    0.225859  -0.046997
     3  H    0.225867  -0.047008
     4  H    0.225894  -0.047024
     5  H    0.059887  -0.237169
     6  Cl  -0.190654   0.488287
 Sum of Mulliken charges =   0.00000   1.00000

 Dipole moment (field-independent basis, Debye):
    X=              3.1713    Y=              0.0002    Z=              0.0001  Tot=              3.1713
 Quadrupole moment (field-independent basis, Debye-Ang):
   XX=            -18.6104   YY=            -21.2260   ZZ=            -21.2263
   XY=              0.0018   XZ=              0.0005   YZ=             -0.0000

  Exact polarizability:  45.422   0.008  16.979   0.003   0.000  16.979
 Approx polarizability:  27.834   0.006  14.330   0.002  -0.000  14.329

 ******    1 imaginary frequencies (negative Signs) ******

                      1                      2                      3
                      A                      A                      A
 Frequencies --  -1864.9222               433.4064               433.6164
 Red. masses --      1.0789                 1.0349                 1.0352
 Frc consts  --      2.2108                 0.1145                 0.1147
 IR Inten    --    182.5165                 0.1209                 0.1227
 Raman Activ --   1867.7970                11.8717                11.8898

                      4                      5                      6
                      A                      A                      A
 Frequencies --    450.2168              1108.4645              1108.5495
 Red. masses --      4.3063                 1.0618                 1.0618
 Frc consts  --      0.5143                 0.7686                 0.7688
 IR Inten    --      2.5274                10.7609                10.7561
 Raman Activ --     52.3430                 0.0609                 0.0551

                      7                      8                      9
                      A                      A                      A
 Frequencies --   1277.2208              1561.0450              1561.0663
 Red. masses --      1.2075                 1.0821                 1.0821
 Frc consts  --      1.1605                 1.5536                 1.5537
 IR Inten    --      0.8753                 3.0044                 3.0053
 Raman Activ --     60.8422                10.3242                10.3253

                     10                     11                     12
                      A                      A                      A
 Frequencies --   3260.8471              3414.4938              3414.5732
 Red. masses --      1.0159                 1.1141                 1.1141
 Frc consts  --      6.3648                 7.6527                 7.6531
 IR Inten    --      0.2020                 2.9548                 2.9484
 Raman Activ --    133.2446                61.5423                61.4550

 - Thermochemistry -
 -------------------
 Temperature   298.150 Kelvin.  Pressure   1.00000 Atm.
 Atom     1 has atomic number  6 and mass  12.00000

 Molecular mass:    51.00015 amu.
 Principal axes and moments of inertia in atomic units:
                           1         2         3
     Eigenvalues --    11.97657 327.27194 327.27240
           X            1.00000   0.00001   0.00000
           Y           -0.00001   1.00000  -0.00004
           Z           -0.00000   0.00004   1.00000
 This molecule is an asymmetric top.
 Rotational symmetry number  1.
 Rotational temperatures (Kelvin)      7.23195     0.26465     0.26465
 Rotational constants (GHZ):         150.68933     5.51450     5.51449
    1 imaginary frequencies ignored.
 Zero-point vibrational energy     107804.5 (Joules/Mol)
                                   25.76589 (Kcal/Mol)
 Warning -- explicit consideration of   3 degrees of freedom as
           vibrations may cause significant error
 Vibrational temperatures:    623.58   623.88   647.76  1594.83  1594.96
          (Kelvin)           1837.64  2246.00  2246.03  4691.63  4912.70
                             4912.81

 Zero-point correction=                           0.041061 (Hartree/Particle)
 Thermal correction to Energy=                    0.044781
 Thermal correction to Enthalpy=                  0.045725
 Thermal correction to Gibbs Free Energy=         0.015543
 Sum of electronic and zero-point Energies=           -499.560164
 Sum of electronic and thermal Energies=              -499.556443
 Sum of electronic and thermal Enthalpies=            -499.555499
 Sum of electronic and thermal Free Energies=         -499.585681

                     E (Thermal)             CV                S
                      KCal/Mol        Cal/Mol-Kelvin    Cal/Mol-Kelvin
 Total                   28.101             10.943             63.524
 Electronic               0.000              0.000              1.377
 Translational            0.889              2.981             37.711
 Rotational               0.889              2.981             21.777
 Vibrational             26.323              4.981              2.658
 Vibration     1          0.794              1.397              0.848
 Vibration     2          0.794              1.397              0.847
 Vibration     3          0.809              1.360              0.795

                           ! Non-Optimized Parameters !

 1\1\GINC-NODE17\Freq\UHF\6-31G(d)\C1H4Cl1(2)\RPEVERATI\07-Oct-2020\0\\
 #P Freq HF/6-31G* 5D 7F Integral=UltraFineGrid SCF=(NoSymm,XQC,MaxCyc=
 120) IOp(1/33=1) Geom=Check Guess=Read\\TS search on BH76.\\0,2\C,-1.7
 980337604,0.167754776,0.2170047576\H,-2.1625712753,-0.7561661791,-0.19
 93402687\H,-2.0120269677,1.055154968,-0.3544775198\H,-1.8866250027,0.2
 666562843,1.285749969\H,-0.4159762169,0.0384791329,0.0492773153\Cl,1.0
 422200265,-0.0967213056,-0.1249749633\\Version=ES64L-G16RevA.03\State=
 2-A\HF=-499.6012244\S2=0.788997\S2-1=0.\S2A=0.750489\RMSD=9.703e-10\RM

 Normal termination of Gaussian 16 at Wed Oct  7 12:39:59 2020.
