 Gaussian 16, Revision A.03,

 ----------------------------------------------------------------------
 #P Opt(TS,MaxCyc=50,NoEigenTest,MaxStep=10,AddRedundant) HF/6-31G* 5D
 7F Integral=UltraFineGrid SCF=(NoSymm,XQC,MaxCyc=120) IOp(1/33=1)
 ----------------------------------------------------------------------

 TstMul:  Mul=     2
 TstMul:  ICh=     0
 TstMul:  Mul=     2
 Symbolic Z-matrix:
 Charge =  0 Multiplicity = 2

 SCF Done:  E(UHF) =  -1.59648068050     A.U. after    9 cycles
 SCF Done:  E(UHF) =  -1.59649434280     A.U. after    7 cycles
 SCF Done:  E(UHF) =  -1.59649542612     A.U. after    7 cycles
 Optimization completed.
    -- Stationary point found.
 Normal termination of Gaussian 16 at Wed Oct  7 12:38:41 2020.
 Gaussian 16:  ES64L-G16RevA.03 25-Dec-2016

 ----------------------------------------------------------------------
 #P Freq HF/6-31G* 5D 7F Integral=UltraFineGrid SCF=(NoSymm,XQC,MaxCyc=
 120) IOp(1/33=1) Geom=Check Guess=Read
 ----------------------------------------------------------------------

 TstMul:  Mul=     2
 TstMul:  ICh=     0
 TstMul:  Mul=     2
 Structure from the checkpoint file:  "MN_82_RKT06_BH76_HF_631Gs.chk"
 Charge =  0 Multiplicity = 2

                         Standard orientation:
 ---------------------------------------------------------------------
 Center     Atomic      Atomic             Coordinates (Angstroms)
 Number     Number       Type             X           Y           Z
 ---------------------------------------------------------------------
      1          1           0        0.000000    0.000000    0.000000
      2          1           0        0.000000    0.000000    0.934573
      3          1           0        0.000000    0.000000   -0.934573
 ---------------------------------------------------------------------

 SCF Done:  E(UHF) =  -1.59649542612     A.U. after    1 cycles

 The electronic state is 2-SGU.
 Alpha  occ. eigenvalues --   -0.69579  -0.40653
 Alpha virt. eigenvalues --    0.28150   0.87201   0.95076   1.29814
  Beta  occ. eigenvalues --   -0.59739
  Beta virt. eigenvalues --    0.07739   0.34177   0.93324   1.07350   1.34213

 Mulliken charges and spin densities:
               1          2
     1  H   -0.123278  -0.406144
     2  H    0.061639   0.703072
     3  H    0.061639   0.703072
 Sum of Mulliken charges =   0.00000   1.00000

 Dipole moment (field-independent basis, Debye):
    X=              0.0000    Y=              0.0000    Z=             -0.0000  Tot=              0.0000
 Quadrupole moment (field-independent basis, Debye-Ang):
   XX=             -3.3729   YY=             -3.3729   ZZ=             -3.3745
   XY=              0.0000   XZ=              0.0000   YZ=              0.0000

  Exact polarizability:   0.000   0.000   0.000  -0.000   0.000  17.439
 Approx polarizability:   0.000  -0.000  -0.000  -0.000  -0.000  11.731

 ******    1 imaginary frequencies (negative Signs) ******

                      1                      2                      3
                     SGU                    PIU                    PIU
 Frequencies --  -2394.0296              1124.3629              1124.3629
 Red. masses --      1.0078                 1.0078                 1.0078
 Frc consts  --      3.4033                 0.7507                 0.7507
 IR Inten    --     84.1720                13.2585                13.2585
 Raman Activ --      0.0000                 0.0000                 0.0000

                      4
                     SGG
 Frequencies --   2021.4772
 Red. masses --      1.0078
 Frc consts  --      2.4265
 IR Inten    --      0.0000
 Raman Activ --     32.6532

 - Thermochemistry -
 -------------------
 Temperature   298.150 Kelvin.  Pressure   1.00000 Atm.
 Atom     1 has atomic number  1 and mass   1.00783

 Molecular mass:     3.02348 amu.
 Principal axes and moments of inertia in atomic units:
                           1         2         3
     Eigenvalues --     0.00000   6.28694   6.28694
           X           -0.00000   1.00000   0.00000
           Y            0.00000   0.00000   1.00000
           Z            1.00000   0.00000   0.00000
 This molecule is a prolate symmetric top.
 Rotational symmetry number  2.
 Rotational temperature (Kelvin)     13.77680
 Rotational constant (GHZ):         287.061885
    1 imaginary frequencies ignored.
 Zero-point vibrational energy      25541.5 (Joules/Mol)
                                    6.10456 (Kcal/Mol)
 Vibrational temperatures:   1617.71  1617.71  2908.45
          (Kelvin)

 Zero-point correction=                           0.009728 (Hartree/Particle)
 Thermal correction to Energy=                    0.012135
 Thermal correction to Enthalpy=                  0.013079
 Thermal correction to Gibbs Free Energy=        -0.004739
 Sum of electronic and zero-point Energies=             -1.586767
 Sum of electronic and thermal Energies=                -1.584361
 Sum of electronic and thermal Enthalpies=              -1.583417
 Sum of electronic and thermal Free Energies=           -1.601234

                     E (Thermal)             CV                S
                      KCal/Mol        Cal/Mol-Kelvin    Cal/Mol-Kelvin
 Total                    7.615              5.499             37.500
 Electronic               0.000              0.000              1.377
 Translational            0.889              2.981             29.289
 Rotational               0.592              1.987              6.720
 Vibrational              6.133              0.531              0.114

 Optimization completed.
    -- Stationary point found.
 Normal termination of Gaussian 16 at Wed Oct  7 12:39:11 2020.
