 Gaussian 16, Revision A.03,

 ----------------------------------------------------------------------
 #P Opt(TS,MaxCyc=50,NoEigenTest,MaxStep=10,AddRedundant) HF/6-31G* 5D
 7F Integral=UltraFineGrid SCF=(NoSymm,XQC,MaxCyc=120) IOp(1/33=1)
 ----------------------------------------------------------------------

 TstMul:  Mul=     2
 TstMul:  ICh=     0
 TstMul:  Mul=     2
 Symbolic Z-matrix:
 Charge =  0 Multiplicity = 2

 SCF Done:  E(UHF) =  -342.927694428     A.U. after   16 cycles
 SCF Done:  E(UHF) =  -342.928034271     A.U. after   13 cycles
 SCF Done:  E(UHF) =  -342.928674373     A.U. after   13 cycles
 SCF Done:  E(UHF) =  -342.928019951     A.U. after   13 cycles
 SCF Done:  E(UHF) =  -342.928142758     A.U. after   13 cycles
 SCF Done:  E(UHF) =  -342.928372333     A.U. after   13 cycles
 SCF Done:  E(UHF) =  -342.927800790     A.U. after   13 cycles
 SCF Done:  E(UHF) =  -342.926964659     A.U. after   13 cycles
 SCF Done:  E(UHF) =  -342.925806145     A.U. after   13 cycles
 SCF Done:  E(UHF) =  -342.925176828     A.U. after   14 cycles
 SCF Done:  E(UHF) =  -342.925173467     A.U. after   14 cycles
 SCF Done:  E(UHF) =  -342.925324719     A.U. after   14 cycles
 SCF Done:  E(UHF) =  -342.925343557     A.U. after   12 cycles
 SCF Done:  E(UHF) =  -342.925343663     A.U. after   11 cycles
 Optimization completed.
    -- Stationary point found.
 Normal termination of Gaussian 16 at Wed Oct  7 12:41:30 2020.
 Gaussian 16:  ES64L-G16RevA.03 25-Dec-2016

 ----------------------------------------------------------------------
 #P Freq HF/6-31G* 5D 7F Integral=UltraFineGrid SCF=(NoSymm,XQC,MaxCyc=
 120) IOp(1/33=1) Geom=Check Guess=Read
 ----------------------------------------------------------------------

 TstMul:  Mul=     2
 TstMul:  ICh=     0
 TstMul:  Mul=     2
 Structure from the checkpoint file:  "MN_88_RKT12_BH76_HF_631Gs.chk"
 Charge =  0 Multiplicity = 2

                         Standard orientation:
 ---------------------------------------------------------------------
 Center     Atomic      Atomic             Coordinates (Angstroms)
 Number     Number       Type             X           Y           Z
 ---------------------------------------------------------------------
      1         15           0        0.211016   -0.000001   -0.113305
      2          1           0        0.309442    1.033455    0.832864
      3          1           0        0.309205   -1.033602    0.832734
      4          1           0       -1.346841    0.000180   -0.067659
      5          1           0       -2.437052   -0.000019    0.101637
 ---------------------------------------------------------------------

 SCF Done:  E(UHF) =  -342.925343663     A.U. after    1 cycles

 The electronic state is 2-A.
 Alpha  occ. eigenvalues --  -79.93482  -7.49465  -5.39397  -5.38607  -5.38431
 Alpha  occ. eigenvalues --   -0.87640  -0.61153  -0.53549  -0.42264  -0.35489
 Alpha virt. eigenvalues --    0.16470   0.16767   0.28096   0.43790   0.43811
 Alpha virt. eigenvalues --    0.48858   0.51123   0.88051   0.89146   0.89333
 Alpha virt. eigenvalues --    0.91000   0.93123   1.04821   1.27901   1.38996

  Beta  occ. eigenvalues --  -79.93060  -7.48969  -5.38340  -5.38272  -5.37459
  Beta  occ. eigenvalues --   -0.84099  -0.54322  -0.53230  -0.39234
  Beta virt. eigenvalues --    0.05772   0.16603   0.20346   0.29622   0.44112
  Beta virt. eigenvalues --    0.44259   0.52248   0.54847   0.88714   0.90997
  Beta virt. eigenvalues --    0.92711   0.93834   0.98305   1.15438   1.26874

 Mulliken charges and spin densities:
               1          2
     1  P    0.140005   0.535852
     2  H   -0.003459  -0.021780
     3  H   -0.003458  -0.021780
     4  H   -0.144447  -0.309276
     5  H    0.011359   0.816984
 Sum of Mulliken charges =  -0.00000   1.00000

 Dipole moment (field-independent basis, Debye):
    X=              0.0721    Y=             -0.0001    Z=              0.7691  Tot=              0.7725
 Quadrupole moment (field-independent basis, Debye-Ang):
   XX=            -18.2381   YY=            -16.0241   ZZ=            -18.0341
   XY=              0.0001   XZ=              1.0544   YZ=              0.0000

  Exact polarizability:  41.938   0.001  21.810  -0.443  -0.000  18.490
 Approx polarizability:  27.820   0.001  17.992  -0.190  -0.000  15.037

 ******    1 imaginary frequencies (negative Signs) ******

                      1                      2                      3
                      A                      A                      A
 Frequencies --  -2156.0751               523.3729               545.4367
 Red. masses --      1.0128                 1.0100                 1.0306
 Frc consts  --      2.7739                 0.1630                 0.1807
 IR Inten    --     26.0603                 2.5727                 2.5495
 Raman Activ --    644.2816                55.5858                42.8643

                      4                      5                      6
                      A                      A                      A
 Frequencies --   1096.4637              1202.1851              1221.5592
 Red. masses --      1.0956                 1.0316                 1.0210
 Frc consts  --      0.7760                 0.8785                 0.8977
 IR Inten    --     13.6509                22.1657                21.3381
 Raman Activ --     24.6598                75.9761                 5.0232

                      7                      8                      9
                      A                      A                      A
 Frequencies --   1250.9592              2587.7070              2589.8892
 Red. masses --      1.0272                 1.0422                 1.0348
 Frc consts  --      0.9471                 4.1116                 4.0894
 IR Inten    --     15.2488               146.1221                91.4193
 Raman Activ --     49.6968               164.3456               197.4395

 - Thermochemistry -
 -------------------
 Temperature   298.150 Kelvin.  Pressure   1.00000 Atm.
 Atom     1 has atomic number 15 and mass  30.97376

 Molecular mass:    35.00506 amu.
 Principal axes and moments of inertia in atomic units:
                           1         2         3
     Eigenvalues --    13.80449  38.51224  40.08532
           X            0.99960   0.00000   0.02819
           Y           -0.00000   1.00000  -0.00000
           Z           -0.02819   0.00000   0.99960
 This molecule is an asymmetric top.
 Rotational symmetry number  1.
 Rotational temperatures (Kelvin)      6.27433     2.24900     2.16074
 Rotational constants (GHZ):         130.73580    46.86150    45.02250
    1 imaginary frequencies ignored.
 Zero-point vibrational energy      65899.7 (Joules/Mol)
                                   15.75041 (Kcal/Mol)
 Warning -- explicit consideration of   2 degrees of freedom as
           vibrations may cause significant error
 Vibrational temperatures:    753.02   784.76  1577.57  1729.68  1757.55
          (Kelvin)           1799.85  3723.13  3726.27

 Zero-point correction=                           0.025100 (Hartree/Particle)
 Thermal correction to Energy=                    0.028403
 Thermal correction to Enthalpy=                  0.029348
 Thermal correction to Gibbs Free Energy=         0.002263
 Sum of electronic and zero-point Energies=           -342.900244
 Sum of electronic and thermal Energies=              -342.896940
 Sum of electronic and thermal Enthalpies=            -342.895996
 Sum of electronic and thermal Free Energies=         -342.923081

                     E (Thermal)             CV                S
                      KCal/Mol        Cal/Mol-Kelvin    Cal/Mol-Kelvin
 Total                   17.823              9.163             57.004
 Electronic               0.000              0.000              1.377
 Translational            0.889              2.981             36.589
 Rotational               0.889              2.981             17.706
 Vibrational             16.046              3.202              1.332
 Vibration     1          0.878              1.198              0.602
 Vibration     2          0.901              1.150              0.554

 Optimization completed.
    -- Stationary point found.
 Normal termination of Gaussian 16 at Wed Oct  7 12:42:02 2020.
