 Gaussian 16, Revision A.03,

 ----------------------------------------------------------------------
 #P Opt(TS,MaxCyc=50,NoEigenTest,MaxStep=10,AddRedundant) HF/6-31G* 5D
 7F Integral=UltraFineGrid SCF=(NoSymm,XQC,MaxCyc=120) IOp(1/33=1)
 ----------------------------------------------------------------------

 TstMul:  Mul=     3
 TstMul:  ICh=     0
 TstMul:  Mul=     3
 Symbolic Z-matrix:
 Charge =  0 Multiplicity = 3

 SCF Done:  E(UHF) =  -75.8538898124     A.U. after   13 cycles
 SCF Done:  E(UHF) =  -75.8560742764     A.U. after   11 cycles
 SCF Done:  E(UHF) =  -75.8532745466     A.U. after   11 cycles
 SCF Done:  E(UHF) =  -75.8521225253     A.U. after   11 cycles
 SCF Done:  E(UHF) =  -75.8521171358     A.U. after   11 cycles
 SCF Done:  E(UHF) =  -75.8521178537     A.U. after    9 cycles
 Optimization completed.
    -- Stationary point found.
 Normal termination of Gaussian 16 at Wed Oct  7 12:39:28 2020.
 Gaussian 16:  ES64L-G16RevA.03 25-Dec-2016

 ----------------------------------------------------------------------
 #P Freq HF/6-31G* 5D 7F Integral=UltraFineGrid SCF=(NoSymm,XQC,MaxCyc=
 120) IOp(1/33=1) Geom=Check Guess=Read
 ----------------------------------------------------------------------

 TstMul:  Mul=     3
 TstMul:  ICh=     0
 TstMul:  Mul=     3
 Structure from the checkpoint file:  "MN_89_RKT14_BH76_HF_631Gs.chk"
 Charge =  0 Multiplicity = 3

                         Standard orientation:
 ---------------------------------------------------------------------
 Center     Atomic      Atomic             Coordinates (Angstroms)
 Number     Number       Type             X           Y           Z
 ---------------------------------------------------------------------
      1          1           0        0.000000    0.000000   -0.815539
      2          8           0        0.000000    0.000000    0.326828
      3          1           0        0.000000    0.000000   -1.799082
 ---------------------------------------------------------------------

 SCF Done:  E(UHF) =  -75.8521178537     A.U. after    1 cycles

 Unable to determine electronic state:  an orbital has unidentified symmetry.
 Alpha  occ. eigenvalues --  -20.67638  -1.40004  -0.75434  -0.67409  -0.57919
 Alpha  occ. eigenvalues --   -0.51146
 Alpha virt. eigenvalues --    0.32113   0.83761   1.03209   1.04927   1.10956
 Alpha virt. eigenvalues --    1.16485   1.63198   1.95034   2.00647   2.01374
 Alpha virt. eigenvalues --    2.01422   2.53160
  Beta  occ. eigenvalues --  -20.61323  -1.15630  -0.57226  -0.50973
  Beta virt. eigenvalues --    0.04017   0.12754   0.39901   0.88271   1.14140
  Beta virt. eigenvalues --    1.14476   1.25300   1.26126   1.72359   2.06328
  Beta virt. eigenvalues --    2.09531   2.11568   2.11677   2.60998

 Mulliken charges and spin densities:
               1          2
     1  H    0.243175  -0.284653
     2  O   -0.277945   1.555792
     3  H    0.034770   0.728861
 Sum of Mulliken charges =  -0.00000   2.00000

 Dipole moment (field-independent basis, Debye):
    X=              0.0000    Y=              0.0000    Z=             -1.2121  Tot=              1.2121
 Quadrupole moment (field-independent basis, Debye-Ang):
   XX=             -6.6052   YY=             -7.7982   ZZ=             -6.2903
   XY=             -0.0000   XZ=              0.0000   YZ=              0.0000

  Exact polarizability:   2.648   0.000   2.227   0.000  -0.000  22.540
 Approx polarizability:   2.173   0.000   1.835   0.000  -0.000  12.387

 ******    1 imaginary frequencies (negative Signs) ******

                      1                      2                      3
                     SG                     PI                     PI
 Frequencies --  -3143.9561               720.0520               891.8240
 Red. masses --      1.0292                 1.0177                 1.0177
 Frc consts  --      5.9938                 0.3109                 0.4769
 IR Inten    --   2344.5184                18.3489                16.9796
 Raman Activ --    343.7783                 6.3707                 3.9719

                      4
                     SG
 Frequencies --   1444.7759
 Red. masses --      1.1004
 Frc consts  --      1.3533
 IR Inten    --      3.6093
 Raman Activ --     65.5831

 - Thermochemistry -
 -------------------
 Temperature   298.150 Kelvin.  Pressure   1.00000 Atm.
 Atom     1 has atomic number  1 and mass   1.00783

 Molecular mass:    18.01056 amu.
 Principal axes and moments of inertia in atomic units:
                           1         2         3
     Eigenvalues --     0.00000  18.81121  18.81121
           X            0.00000   0.00000   1.00000
           Y            0.00000   1.00000   0.00000
           Z            1.00000   0.00000   0.00000
 This molecule is a prolate symmetric top.
 Rotational symmetry number  1.
 Rotational temperature (Kelvin)      4.60438
 Rotational constant (GHZ):          95.939662
    1 imaginary frequencies ignored.
 Zero-point vibrational energy      18282.8 (Joules/Mol)
                                    4.36970 (Kcal/Mol)
 Vibrational temperatures:   1035.99  1283.14  2078.71
          (Kelvin)

 Zero-point correction=                           0.006964 (Hartree/Particle)
 Thermal correction to Energy=                    0.009491
 Thermal correction to Enthalpy=                  0.010435
 Thermal correction to Gibbs Free Energy=        -0.012138
 Sum of electronic and zero-point Energies=            -75.845154
 Sum of electronic and thermal Energies=               -75.842627
 Sum of electronic and thermal Enthalpies=             -75.841683
 Sum of electronic and thermal Free Energies=          -75.864256

                     E (Thermal)             CV                S
                      KCal/Mol        Cal/Mol-Kelvin    Cal/Mol-Kelvin
 Total                    5.956              6.361             47.509
 Electronic               0.000              0.000              2.183
 Translational            0.889              2.981             34.608
 Rotational               0.592              1.987             10.275
 Vibrational              4.474              1.393              0.442

 Optimization completed.
    -- Stationary point found.
 Normal termination of Gaussian 16 at Wed Oct  7 12:39:55 2020.
