 Gaussian 16, Revision A.03,

 ----------------------------------------------------------------------
 #P Opt(TS,MaxCyc=50,NoEigenTest,MaxStep=10,AddRedundant) HF/6-31G* 5D
 7F Integral=UltraFineGrid SCF=(NoSymm,XQC,MaxCyc=120) IOp(1/33=1)
 ----------------------------------------------------------------------

 TstMul:  Mul=     2
 TstMul:  ICh=     0
 TstMul:  Mul=     2
 Symbolic Z-matrix:
 Charge =  0 Multiplicity = 2

 SCF Done:  E(UHF) =  -131.519470139     A.U. after   22 cycles
 SCF Done:  E(UHF) =  -131.523621577     A.U. after   18 cycles
 SCF Done:  E(UHF) =  -131.519767911     A.U. after   19 cycles
 SCF Done:  E(UHF) =  -131.517894436     A.U. after   18 cycles
 SCF Done:  E(UHF) =  -131.517948234     A.U. after   18 cycles
 SCF Done:  E(UHF) =  -131.517971680     A.U. after   14 cycles
 SCF Done:  E(UHF) =  -131.518007267     A.U. after   17 cycles
 SCF Done:  E(UHF) =  -131.518011486     A.U. after   16 cycles
 SCF Done:  E(UHF) =  -131.518018106     A.U. after   17 cycles
 SCF Done:  E(UHF) =  -131.518027507     A.U. after   17 cycles
 SCF Done:  E(UHF) =  -131.518045787     A.U. after   17 cycles
 SCF Done:  E(UHF) =  -131.518049424     A.U. after   18 cycles
 SCF Done:  E(UHF) =  -131.518053947     A.U. after   18 cycles
 SCF Done:  E(UHF) =  -131.518059031     A.U. after   18 cycles
 SCF Done:  E(UHF) =  -131.518063805     A.U. after   18 cycles
 SCF Done:  E(UHF) =  -131.518066362     A.U. after   17 cycles
 SCF Done:  E(UHF) =  -131.518067082     A.U. after   18 cycles
 SCF Done:  E(UHF) =  -131.518067384     A.U. after   16 cycles
 SCF Done:  E(UHF) =  -131.518067414     A.U. after   15 cycles
 Optimization completed.
    -- Stationary point found.
 Normal termination of Gaussian 16 at Wed Oct  7 12:44:24 2020.
 Gaussian 16:  ES64L-G16RevA.03 25-Dec-2016

 ----------------------------------------------------------------------
 #P Freq HF/6-31G* 5D 7F Integral=UltraFineGrid SCF=(NoSymm,XQC,MaxCyc=
 120) IOp(1/33=1) Geom=Check Guess=Read
 ----------------------------------------------------------------------

 TstMul:  Mul=     2
 TstMul:  ICh=     0
 TstMul:  Mul=     2
 Structure from the checkpoint file:  "MN_83_RKT07_BH76_HF_631Gs.chk"
 Charge =  0 Multiplicity = 2

                         Standard orientation:
 ---------------------------------------------------------------------
 Center     Atomic      Atomic             Coordinates (Angstroms)
 Number     Number       Type             X           Y           Z
 ---------------------------------------------------------------------
      1          7           0       -1.168821   -0.016011   -0.115861
      2          8           0        1.181679   -0.102200    0.007996
      3          1           0       -1.321388   -0.671917    0.634188
      4          1           0       -1.296274    0.897675    0.290358
      5          1           0        0.004907   -0.124922   -0.320979
      6          1           0        1.341069    0.828835    0.143490
 ---------------------------------------------------------------------

 SCF Done:  E(UHF) =  -131.518067414     A.U. after    1 cycles

 The electronic state is 2-A.
 Alpha  occ. eigenvalues --  -20.59443 -15.59442  -1.36370  -1.18558  -0.73406
 Alpha  occ. eigenvalues --   -0.66963  -0.63058  -0.53640  -0.51057  -0.47834
 Alpha virt. eigenvalues --    0.19954   0.26358   0.30262   0.46258   0.83959
 Alpha virt. eigenvalues --    0.85647   0.92059   1.06010   1.09742   1.12627
 Alpha virt. eigenvalues --    1.18254   1.20562   1.24221   1.38245   1.53783

  Beta  occ. eigenvalues --  -20.56660 -15.57261  -1.27262  -1.10757  -0.66952
  Beta  occ. eigenvalues --   -0.64673  -0.56801  -0.48573  -0.41134
  Beta virt. eigenvalues --    0.06256   0.21080   0.27575   0.30846   0.49392
  Beta virt. eigenvalues --    0.85149   0.86781   1.00099   1.07836   1.12443
  Beta virt. eigenvalues --    1.15534   1.19576   1.23156   1.27546   1.42907

 Mulliken charges and spin densities:
               1          2
     1  N   -0.883378   0.675329
     2  O   -0.743385   0.614406
     3  H    0.367920  -0.037350
     4  H    0.351495  -0.038493
     5  H    0.461116  -0.184049
     6  H    0.446232  -0.029845
 Sum of Mulliken charges =  -0.00000   1.00000

 Dipole moment (field-independent basis, Debye):
    X=             -0.7796    Y=              2.0345    Z=              1.7817  Tot=              2.8145
 Quadrupole moment (field-independent basis, Debye-Ang):
   XX=            -14.4305   YY=            -10.6781   ZZ=            -14.2755
   XY=              2.0293   XZ=             -2.4118   YZ=             -0.0379

  Exact polarizability:  84.049   0.732  13.974   2.320   0.085   9.383
 Approx polarizability:  21.268  -0.106  11.691   0.358   0.089   7.833

 ******    1 imaginary frequencies (negative Signs) ******

                      1                      2                      3
                      A                      A                      A
 Frequencies --  -4287.4801                68.8473               433.2382
 Red. masses --      1.0410                 1.0626                 2.4851
 Frc consts  --     11.2750                 0.0030                 0.2748
 IR Inten    --  38721.6427                87.0541                20.7591
 Raman Activ --  47644.1345                 6.2787               105.5145

                      4                      5                      6
                      A                      A                      A
 Frequencies --    545.3624               867.7368              1060.5781
 Red. masses --      1.0271                 1.5667                 1.1150
 Frc consts  --      0.1800                 0.6950                 0.7389
 IR Inten    --     54.9887                54.9314               151.3683
 Raman Activ --     56.0276              1450.0826                55.9454

                      7                      8                      9
                      A                      A                      A
 Frequencies --   1385.2036              1704.6383              1757.8762
 Red. masses --      1.0896                 1.0487                 1.0593
 Frc consts  --      1.2318                 1.7955                 1.9286
 IR Inten    --    342.4462                69.5975                20.0577
 Raman Activ --   6421.5432              1334.9653              1123.4024

                     10                     11                     12
                      A                      A                      A
 Frequencies --   3671.5585              3770.1390              4033.4941
 Red. masses --      1.0501                 1.0916                 1.0669
 Frc consts  --      8.3401                 9.1420                10.2270
 IR Inten    --      4.6986                 2.6542                68.6307
 Raman Activ --    304.5781               122.5865               137.0284

 - Thermochemistry -
 -------------------
 Temperature   298.150 Kelvin.  Pressure   1.00000 Atm.
 Atom     1 has atomic number  7 and mass  14.00307

 Molecular mass:    34.02929 amu.
 Principal axes and moments of inertia in atomic units:
                           1         2         3
     Eigenvalues --    10.25170 169.57727 174.37227
           X            0.99958   0.01772  -0.02277
           Y           -0.01780   0.99984  -0.00324
           Z            0.02271   0.00364   0.99974
 This molecule is an asymmetric top.
 Rotational symmetry number  1.
 Rotational temperatures (Kelvin)      8.44874     0.51076     0.49672
 Rotational constants (GHZ):         176.04313    10.64259    10.34993
    1 imaginary frequencies ignored.
 Zero-point vibrational energy     115431.7 (Joules/Mol)
                                   27.58884 (Kcal/Mol)
 Warning -- explicit consideration of   3 degrees of freedom as
           vibrations may cause significant error
 Vibrational temperatures:     99.06   623.33   784.65  1248.48  1525.94
          (Kelvin)           1993.00  2452.59  2529.19  5282.55  5424.39
                             5803.30

 Zero-point correction=                           0.043966 (Hartree/Particle)
 Thermal correction to Energy=                    0.048167
 Thermal correction to Enthalpy=                  0.049111
 Thermal correction to Gibbs Free Energy=         0.018667
 Sum of electronic and zero-point Energies=           -131.474102
 Sum of electronic and thermal Energies=              -131.469900
 Sum of electronic and thermal Enthalpies=            -131.468956
 Sum of electronic and thermal Free Energies=         -131.499400

                     E (Thermal)             CV                S
                      KCal/Mol        Cal/Mol-Kelvin    Cal/Mol-Kelvin
 Total                   30.225             11.516             64.074
 Electronic               0.000              0.000              1.377
 Translational            0.889              2.981             36.505
 Rotational               0.889              2.981             20.344
 Vibrational             28.448              5.555              5.848
 Vibration     1          0.598              1.969              4.186
 Vibration     2          0.794              1.398              0.848
 Vibration     3          0.901              1.150              0.554

                           ! Non-Optimized Parameters !
 Normal termination of Gaussian 16 at Wed Oct  7 12:44:57 2020.
