 Gaussian 16, Revision A.03,

 ----------------------------------------------------------------------
 #P Opt(TS,MaxCyc=50,NoEigenTest,MaxStep=10,AddRedundant) HF/6-31G* 5D
 7F Integral=UltraFineGrid SCF=(NoSymm,XQC,MaxCyc=120) IOp(1/33=1)
 ----------------------------------------------------------------------

 TstMul:  Mul=     2
 TstMul:  ICh=     0
 TstMul:  Mul=     2
 Symbolic Z-matrix:
 Charge =  0 Multiplicity = 2

 SCF Done:  E(UHF) =  -40.6528450266     A.U. after   14 cycles
 SCF Done:  E(UHF) =  -40.6530443765     A.U. after   12 cycles
 SCF Done:  E(UHF) =  -40.6533392684     A.U. after   12 cycles
 SCF Done:  E(UHF) =  -40.6529831522     A.U. after   12 cycles
 SCF Done:  E(UHF) =  -40.6529137070     A.U. after   12 cycles
 SCF Done:  E(UHF) =  -40.6529143606     A.U. after   11 cycles
 SCF Done:  E(UHF) =  -40.6529145940     A.U. after    9 cycles
 Optimization completed.
    -- Stationary point found.
 Normal termination of Gaussian 16 at Wed Oct  7 12:39:39 2020.
 Gaussian 16:  ES64L-G16RevA.03 25-Dec-2016

 ----------------------------------------------------------------------
 #P Freq HF/6-31G* 5D 7F Integral=UltraFineGrid SCF=(NoSymm,XQC,MaxCyc=
 120) IOp(1/33=1) Geom=Check Guess=Read
 ----------------------------------------------------------------------

 TstMul:  Mul=     2
 TstMul:  ICh=     0
 TstMul:  Mul=     2
 Structure from the checkpoint file:  "MN_80_RKT03_BH76_HF_631Gs.chk"
 Charge =  0 Multiplicity = 2

                         Standard orientation:
 ---------------------------------------------------------------------
 Center     Atomic      Atomic             Coordinates (Angstroms)
 Number     Number       Type             X           Y           Z
 ---------------------------------------------------------------------
      1          6           0       -0.000000    0.262220    0.000000
      2          1           0        1.045507    0.527596    0.000000
      3          1           0       -0.523074    0.526282    0.905640
      4          1           0       -0.523074    0.526282   -0.905640
      5          1           0        0.000505   -1.114309   -0.000000
      6          1           0        0.000136   -2.039174   -0.000000
 ---------------------------------------------------------------------

 SCF Done:  E(UHF) =  -40.6529145940     A.U. after    1 cycles

 The electronic state is 2-A'.
 Alpha  occ. eigenvalues --  -11.23710  -0.97023  -0.62536  -0.57882  -0.57881
 Alpha  occ. eigenvalues --   -0.35726
 Alpha virt. eigenvalues --    0.25632   0.31709   0.31710   0.34737   0.71604
 Alpha virt. eigenvalues --    0.71605   0.76240   0.92129   1.17736   1.17737
 Alpha virt. eigenvalues --    1.20817   1.23657   1.43141   1.90966   1.90968

  Beta  occ. eigenvalues --  -11.21698  -0.90835  -0.56682  -0.56682  -0.53469
  Beta virt. eigenvalues --    0.10691   0.26860   0.32757   0.32758   0.39996
  Beta virt. eigenvalues --    0.72079   0.72080   0.85873   0.98713   1.19105
  Beta virt. eigenvalues --    1.19106   1.22987   1.25203   1.46521   1.96648

 Mulliken charges and spin densities:
               1          2
     1  C   -0.547906   0.849777
     2  H    0.192193  -0.047155
     3  H    0.192202  -0.047162
     4  H    0.192202  -0.047162
     5  H   -0.031965  -0.368779
     6  H    0.003275   0.660481
 Sum of Mulliken charges =  -0.00000   1.00000

 Dipole moment (field-independent basis, Debye):
    X=             -0.0004    Y=              0.8686    Z=             -0.0000  Tot=              0.8686
 Quadrupole moment (field-independent basis, Debye-Ang):
   XX=             -9.4419   YY=            -11.4957   ZZ=             -9.4418
   XY=              0.0014   XZ=             -0.0000   YZ=              0.0000

  Exact polarizability:  11.929   0.005  27.342  -0.000  -0.000  11.930
 Approx polarizability:   9.310   0.004  17.631  -0.000  -0.000   9.311

 ******    1 imaginary frequencies (negative Signs) ******

                      1                      2                      3
                     A'                     A'                     A"
 Frequencies --  -2243.7454               609.2192               609.4973
 Red. masses --      1.0776                 1.0450                 1.0450
 Frc consts  --      3.1962                 0.2285                 0.2287
 IR Inten    --      4.7103                 1.7052                 1.7060
 Raman Activ --    127.5237                50.1884                50.2035

                      4                      5                      6
                     A'                     A'                     A"
 Frequencies --   1226.5083              1305.9351              1305.9948
 Red. masses --      1.0501                 1.0582                 1.0582
 Frc consts  --      0.9307                 1.0633                 1.0634
 IR Inten    --      3.2769                 0.0544                 0.0555
 Raman Activ --      7.9101                 5.5535                 5.5490

                      7                      8                      9
                     A'                     A'                     A"
 Frequencies --   1524.4835              1578.5716              1578.5786
 Red. masses --      1.1932                 1.0687                 1.0686
 Frc consts  --      1.6338                 1.5690                 1.5690
 IR Inten    --      4.9992                 2.1801                 2.1832
 Raman Activ --     80.9160                13.2514                13.2391

                     10                     11                     12
                     A'                     A"                     A'
 Frequencies --   3246.4349              3381.5609              3381.5967
 Red. masses --      1.0186                 1.1120                 1.1120
 Frc consts  --      6.3252                 7.4916                 7.4918
 IR Inten    --      3.5127                18.9746                18.9718
 Raman Activ --    130.6051                62.1520                62.1768

 - Thermochemistry -
 -------------------
 Temperature   298.150 Kelvin.  Pressure   1.00000 Atm.
 Atom     1 has atomic number  6 and mass  12.00000

 Molecular mass:    17.03913 amu.
 Principal axes and moments of inertia in atomic units:
                           1         2         3
     Eigenvalues --    11.80714  30.76910  30.76935
           X            0.00004   0.00000   1.00000
           Y            1.00000   0.00000  -0.00004
           Z            0.00000   1.00000   0.00000
 This molecule is an asymmetric top.
 Rotational symmetry number  1.
 Rotational temperatures (Kelvin)      7.33572     2.81496     2.81494
 Rotational constants (GHZ):         152.85162    58.65434    58.65387
    1 imaginary frequencies ignored.
 Zero-point vibrational energy     118121.5 (Joules/Mol)
                                   28.23173 (Kcal/Mol)
 Warning -- explicit consideration of   2 degrees of freedom as
           vibrations may cause significant error
 Vibrational temperatures:    876.53   876.93  1764.67  1878.95  1879.04
          (Kelvin)           2193.39  2271.21  2271.22  4670.90  4865.31
                             4865.36

 Zero-point correction=                           0.044990 (Hartree/Particle)
 Thermal correction to Energy=                    0.048181
 Thermal correction to Enthalpy=                  0.049125
 Thermal correction to Gibbs Free Energy=         0.023529
 Sum of electronic and zero-point Energies=            -40.607924
 Sum of electronic and thermal Energies=               -40.604734
 Sum of electronic and thermal Enthalpies=             -40.603790
 Sum of electronic and thermal Free Energies=          -40.629385

                     E (Thermal)             CV                S
                      KCal/Mol        Cal/Mol-Kelvin    Cal/Mol-Kelvin
 Total                   30.234              8.647             53.871
 Electronic               0.000              0.000              1.377
 Translational            0.889              2.981             34.443
 Rotational               0.889              2.981             17.065
 Vibrational             28.456              2.685              0.985
 Vibration     1          0.968              1.012              0.434
 Vibration     2          0.968              1.012              0.434

 Optimization completed.
    -- Stationary point found.
 Normal termination of Gaussian 16 at Wed Oct  7 12:40:10 2020.
