 Gaussian 16, Revision A.03,

 ----------------------------------------------------------------------
 #P Opt(TS,MaxCyc=50,NoEigenTest,MaxStep=10,AddRedundant) HF/6-31G* 5D
 7F Integral=UltraFineGrid SCF=(NoSymm,XQC,MaxCyc=120) IOp(1/33=1)
 ----------------------------------------------------------------------

 TstMul:  Mul=     3
 TstMul:  ICh=     0
 TstMul:  Mul=     3
 Symbolic Z-matrix:
 Charge =  0 Multiplicity = 3

 SCF Done:  E(UHF) =  -114.916345151     A.U. after   14 cycles
 SCF Done:  E(UHF) =  -114.918101197     A.U. after   13 cycles
 SCF Done:  E(UHF) =  -114.916397234     A.U. after   14 cycles
 SCF Done:  E(UHF) =  -114.915279229     A.U. after   14 cycles
 SCF Done:  E(UHF) =  -114.915189148     A.U. after   12 cycles
 SCF Done:  E(UHF) =  -114.915202019     A.U. after   12 cycles
 SCF Done:  E(UHF) =  -114.915210369     A.U. after   12 cycles
 Optimization completed.
    -- Stationary point found.
 Normal termination of Gaussian 16 at Wed Oct  7 12:39:41 2020.
 Gaussian 16:  ES64L-G16RevA.03 25-Dec-2016

 ----------------------------------------------------------------------
 #P Freq HF/6-31G* 5D 7F Integral=UltraFineGrid SCF=(NoSymm,XQC,MaxCyc=
 120) IOp(1/33=1) Geom=Check Guess=Read
 ----------------------------------------------------------------------

 TstMul:  Mul=     3
 TstMul:  ICh=     0
 TstMul:  Mul=     3
 Structure from the checkpoint file:  "MN_87_RKT11_BH76_HF_631Gs.chk"
 Charge =  0 Multiplicity = 3

                         Standard orientation:
 ---------------------------------------------------------------------
 Center     Atomic      Atomic             Coordinates (Angstroms)
 Number     Number       Type             X           Y           Z
 ---------------------------------------------------------------------
      1          6           0        0.000214   -1.161163   -0.000000
      2          1           0       -1.049914   -1.406360   -0.000000
      3          1           0        0.520207   -1.420089    0.908053
      4          1           0        0.520207   -1.420089   -0.908053
      5          1           0        0.006505    0.208162    0.000000
      6          8           0        0.000214    1.375669    0.000000
 ---------------------------------------------------------------------

 SCF Done:  E(UHF) =  -114.915210369     A.U. after    1 cycles

 The electronic state is 3-A'.
 Alpha  occ. eigenvalues --  -20.64351 -11.25655  -1.36819  -0.98866  -0.69873
 Alpha  occ. eigenvalues --   -0.64551  -0.60003  -0.59692  -0.54809  -0.44228
 Alpha virt. eigenvalues --    0.24003   0.30354   0.30438   0.40665   0.69279
 Alpha virt. eigenvalues --    0.69696   0.73485   0.95266   1.09752   1.15185
 Alpha virt. eigenvalues --    1.15589   1.16178   1.16759   1.19754   1.38167

  Beta  occ. eigenvalues --  -20.58048 -11.23693  -1.12727  -0.91770  -0.58716
  Beta  occ. eigenvalues --   -0.58617  -0.51888  -0.47918
  Beta virt. eigenvalues --    0.07879   0.15107   0.25263   0.31483   0.31531
  Beta virt. eigenvalues --    0.47595   0.70385   0.70891   0.82226   0.98330
  Beta virt. eigenvalues --    1.17177   1.17392   1.18686   1.19634   1.25540

 Mulliken charges and spin densities:
               1          2
     1  C   -0.646173   0.834675
     2  H    0.206729  -0.047728
     3  H    0.207632  -0.048151
     4  H    0.207632  -0.048151
     5  H    0.380648  -0.226277
     6  O   -0.356468   1.535632
 Sum of Mulliken charges =   0.00000   2.00000

 Dipole moment (field-independent basis, Debye):
    X=              0.0004    Y=             -2.1950    Z=              0.0000  Tot=              2.1950
 Quadrupole moment (field-independent basis, Debye-Ang):
   XX=            -12.5151   YY=            -15.3211   ZZ=            -13.7016
   XY=              0.0038   XZ=             -0.0000   YZ=             -0.0000

  Exact polarizability:  13.984  -0.045  35.420   0.000  -0.000  13.683
 Approx polarizability:  11.299  -0.025  18.763  -0.000  -0.000  10.993

 ******    2 imaginary frequencies (negative Signs) ******

                      1                      2                      3
                     A'                     A"                     A'
 Frequencies --  -2967.9625              -351.9249               441.4990
 Red. masses --      1.0577                 1.0901                 1.0706
 Frc consts  --      5.4893                 0.0795                 0.1230
 IR Inten    --   3269.2350                 0.1163                 3.3996
 Raman Activ --   2135.4870               121.6184                13.1519

                      4                      5                      6
                     A'                     A"                     A'
 Frequencies --    530.0871              1108.8840              1231.5484
 Red. masses --      5.4001                 1.0910                 1.0688
 Frc consts  --      0.8940                 0.7904                 0.9551
 IR Inten    --      0.8451                37.1187                34.8074
 Raman Activ --     20.6453                40.8117                 0.1136

                      7                      8                      9
                     A'                     A"                     A'
 Frequencies --   1294.0803              1409.8683              1571.7424
 Red. masses --      1.2101                 1.0396                 1.0737
 Frc consts  --      1.1939                 1.2176                 1.5628
 IR Inten    --     11.4730                 0.6945                 1.8454
 Raman Activ --      9.2629                92.3087                11.7826

                     10                     11                     12
                     A'                     A"                     A'
 Frequencies --   3251.6349              3358.6459              3389.9054
 Red. masses --      1.0182                 1.1009                 1.1120
 Frc consts  --      6.3428                 7.3169                 7.5291
 IR Inten    --      2.2297                 7.7017                10.1061
 Raman Activ --    145.4520               249.7273                64.1380

 - Thermochemistry -
 -------------------
 Temperature   298.150 Kelvin.  Pressure   1.00000 Atm.
 Atom     1 has atomic number  6 and mass  12.00000

 Molecular mass:    32.02621 amu.
 Principal axes and moments of inertia in atomic units:
                           1         2         3
     Eigenvalues --    11.85051 191.79542 191.81532
           X            0.00004   0.00000   1.00000
           Y            1.00000   0.00000  -0.00004
           Z           -0.00000   1.00000   0.00000
 This molecule is an asymmetric top.
 Rotational symmetry number  1.
 Rotational temperatures (Kelvin)      7.30888     0.45160     0.45155
 Rotational constants (GHZ):         152.29232     9.40972     9.40874
    2 imaginary frequencies ignored.
 Zero-point vibrational energy     105199.0 (Joules/Mol)
                                   25.14316 (Kcal/Mol)
 Warning -- explicit consideration of   2 degrees of freedom as
           vibrations may cause significant error
 Vibrational temperatures:    635.22   762.68  1595.44  1771.92  1861.89
          (Kelvin)           2028.49  2261.39  4678.38  4832.34  4877.32

 Zero-point correction=                           0.040068 (Hartree/Particle)
 Thermal correction to Energy=                    0.043436
 Thermal correction to Enthalpy=                  0.044380
 Thermal correction to Gibbs Free Energy=         0.015505
 Sum of electronic and zero-point Energies=           -114.875142
 Sum of electronic and thermal Energies=              -114.871775
 Sum of electronic and thermal Enthalpies=            -114.870830
 Sum of electronic and thermal Free Energies=         -114.899705

                     E (Thermal)             CV                S
                      KCal/Mol        Cal/Mol-Kelvin    Cal/Mol-Kelvin
 Total                   27.256              9.294             60.772
 Electronic               0.000              0.000              2.183
 Translational            0.889              2.981             36.324
 Rotational               0.889              2.981             20.705
 Vibrational             25.479              3.332              1.559
 Vibration     1          0.801              1.380              0.822
 Vibration     2          0.885              1.183              0.587

 Optimization completed.
    -- Stationary point found.
 Normal termination of Gaussian 16 at Wed Oct  7 12:40:08 2020.
