 Gaussian 16, Revision A.03,

 ----------------------------------------------------------------------
 #P Opt(TS,MaxCyc=50,NoEigenTest,MaxStep=10,AddRedundant) HF/6-31G* 5D
 7F Integral=UltraFineGrid SCF=(NoSymm,XQC,MaxCyc=120) IOp(1/33=1)
 ----------------------------------------------------------------------

 TstMul:  Mul=     2
 TstMul:  ICh=     0
 TstMul:  Mul=     2
 Symbolic Z-matrix:
 Charge =  0 Multiplicity = 2

 SCF Done:  E(UHF) =  -115.530802200     A.U. after   19 cycles
 SCF Done:  E(UHF) =  -115.534599064     A.U. after   17 cycles
 SCF Done:  E(UHF) =  -115.530745145     A.U. after   17 cycles
 SCF Done:  E(UHF) =  -115.527985730     A.U. after   17 cycles
 SCF Done:  E(UHF) =  -115.527070575     A.U. after   17 cycles
 SCF Done:  E(UHF) =  -115.526833696     A.U. after   16 cycles
 SCF Done:  E(UHF) =  -115.526460069     A.U. after   16 cycles
 SCF Done:  E(UHF) =  -115.526464327     A.U. after   14 cycles
 SCF Done:  E(UHF) =  -115.526464689     A.U. after   13 cycles
 Optimization completed.
    -- Stationary point found.
 Normal termination of Gaussian 16 at Wed Oct  7 12:40:16 2020.
 Gaussian 16:  ES64L-G16RevA.03 25-Dec-2016

 ----------------------------------------------------------------------
 #P Freq HF/6-31G* 5D 7F Integral=UltraFineGrid SCF=(NoSymm,XQC,MaxCyc=
 120) IOp(1/33=1) Geom=Check Guess=Read
 ----------------------------------------------------------------------

 TstMul:  Mul=     2
 TstMul:  ICh=     0
 TstMul:  Mul=     2
 Structure from the checkpoint file:  "MN_81_RKT04_BH76_HF_631Gs.chk"
 Charge =  0 Multiplicity = 2

                         Standard orientation:
 ---------------------------------------------------------------------
 Center     Atomic      Atomic             Coordinates (Angstroms)
 Number     Number       Type             X           Y           Z
 ---------------------------------------------------------------------
      1          6           0       -1.222132    0.009962    0.000330
      2          8           0        1.286262   -0.107497   -0.000088
      3          1           0        0.086328   -0.106680    0.004822
      4          1           0       -1.498841    0.136968    1.035358
      5          1           0       -1.450555    0.864362   -0.618361
      6          1           0       -1.550168   -0.926454   -0.423730
      7          1           0        1.455934    0.832008    0.000635
 ---------------------------------------------------------------------

 SCF Done:  E(UHF) =  -115.526464689     A.U. after    1 cycles

 The electronic state is 2-A.
 Alpha  occ. eigenvalues --  -20.58503 -11.24359  -1.35284  -0.97913  -0.70140
 Alpha  occ. eigenvalues --   -0.61959  -0.58673  -0.58353  -0.51139  -0.43071
 Alpha virt. eigenvalues --    0.22973   0.27107   0.31003   0.31256   0.45498
 Alpha virt. eigenvalues --    0.70487   0.70747   0.75324   1.00307   1.10814
 Alpha virt. eigenvalues --    1.16509   1.16761   1.18511   1.18810   1.22663

  Beta  occ. eigenvalues --  -20.55730 -11.22505  -1.26051  -0.91826  -0.63721
  Beta  occ. eigenvalues --   -0.57547  -0.57274  -0.49679  -0.48154
  Beta virt. eigenvalues --    0.07980   0.24003   0.28372   0.31997   0.32259
  Beta virt. eigenvalues --    0.50744   0.71090   0.71254   0.83926   1.00555
  Beta virt. eigenvalues --    1.14087   1.17751   1.18049   1.20100   1.20294

 Mulliken charges and spin densities:
               1          2
     1  C   -0.650862   0.760788
     2  O   -0.729076   0.622318
     3  H    0.344590  -0.228064
     4  H    0.197428  -0.042653
     5  H    0.189333  -0.043913
     6  H    0.205163  -0.041318
     7  H    0.443425  -0.027158
 Sum of Mulliken charges =   0.00000   1.00000

 Dipole moment (field-independent basis, Debye):
    X=             -1.4294    Y=              1.6981    Z=              0.0012  Tot=              2.2196
 Quadrupole moment (field-independent basis, Debye-Ang):
   XX=            -14.5916   YY=            -12.6431   ZZ=            -14.5787
   XY=              2.8786   XZ=              0.0030   YZ=              0.0227

  Exact polarizability:  40.555   0.773  16.975  -0.029  -0.023  14.095
 Approx polarizability:  19.876   0.170  14.008  -0.025  -0.020  11.437

 ******    1 imaginary frequencies (negative Signs) ******

                      1                      2                      3
                      A                      A                      A
 Frequencies --  -3171.2973                16.4651               391.4440
 Red. masses --      1.0589                 1.0506                 1.0778
 Frc consts  --      6.2746                 0.0002                 0.0973
 IR Inten    --   5087.1173               108.6842                17.3862
 Raman Activ --    652.0528                 4.5804                 6.8074

                      4                      5                      6
                      A                      A                      A
 Frequencies --    400.1264               558.7300               973.7971
 Red. masses --      1.0726                 4.1034                 1.1429
 Frc consts  --      0.1012                 0.7547                 0.6385
 IR Inten    --      6.0239                11.5780                65.2667
 Raman Activ --     10.0509                18.1001                17.5984

                      7                      8                      9
                      A                      A                      A
 Frequencies --   1232.2177              1327.5562              1564.2636
 Red. masses --      1.0828                 1.1895                 1.0983
 Frc consts  --      0.9686                 1.2351                 1.5834
 IR Inten    --     32.2329                 1.3818                32.0995
 Raman Activ --      0.8150                 1.4277                36.1250

                     10                     11                     12
                      A                      A                      A
 Frequencies --   1580.7096              1626.5992              3244.6532
 Red. masses --      1.0674                 1.0294                 1.0203
 Frc consts  --      1.5713                 1.6048                 6.3285
 IR Inten    --      1.6215                75.3257                 6.7123
 Raman Activ --     14.7620                83.4992               154.6946

                     13                     14                     15
                      A                      A                      A
 Frequencies --   3371.8215              3377.5381              4026.2861
 Red. masses --      1.1104                 1.1107                 1.0667
 Frc consts  --      7.4379                 7.4652                10.1887
 IR Inten    --     16.9007                13.6167                41.1856
 Raman Activ --     70.9381                74.8349                89.8500

 - Thermochemistry -
 -------------------
 Temperature   298.150 Kelvin.  Pressure   1.00000 Atm.
 Atom     1 has atomic number  6 and mass  12.00000

 Molecular mass:    33.03404 amu.
 Principal axes and moments of inertia in atomic units:
                           1         2         3
     Eigenvalues --    14.76928 195.50815 198.51652
           X            0.99976   0.02172   0.00006
           Y           -0.02172   0.99976  -0.00006
           Z           -0.00007   0.00006   1.00000
 This molecule is an asymmetric top.
 Rotational symmetry number  1.
 Rotational temperatures (Kelvin)      5.86446     0.44302     0.43631
 Rotational constants (GHZ):         122.19559     9.23103     9.09114
    1 imaginary frequencies ignored.
 Zero-point vibrational energy     141710.9 (Joules/Mol)
                                   33.86971 (Kcal/Mol)
 Warning -- explicit consideration of   4 degrees of freedom as
           vibrations may cause significant error
 Vibrational temperatures:     23.69   563.20   575.69   803.89  1401.08
          (Kelvin)           1772.89  1910.06  2250.63  2274.29  2340.31
                             4668.33  4851.30  4859.52  5792.93

 Zero-point correction=                           0.053975 (Hartree/Particle)
 Thermal correction to Energy=                    0.058601
 Thermal correction to Enthalpy=                  0.059546
 Thermal correction to Gibbs Free Energy=         0.027016
 Sum of electronic and zero-point Energies=           -115.472490
 Sum of electronic and thermal Energies=              -115.467863
 Sum of electronic and thermal Enthalpies=            -115.466919
 Sum of electronic and thermal Free Energies=         -115.499448

                     E (Thermal)             CV                S
                      KCal/Mol        Cal/Mol-Kelvin    Cal/Mol-Kelvin
 Total                   36.773             12.917             68.463
 Electronic               0.000              0.000              1.377
 Translational            0.889              2.981             36.416
 Rotational               0.889              2.981             20.977
 Vibrational             34.995              6.956              9.692
 Vibration     1          0.593              1.986              7.020
 Vibration     2          0.759              1.488              0.995
 Vibration     3          0.766              1.470              0.962
 Vibration     4          0.914              1.121              0.526

                           ! Non-Optimized Parameters !
 Normal termination of Gaussian 16 at Wed Oct  7 12:40:49 2020.
