 Gaussian 16, Revision A.03,

 ----------------------------------------------------------------------
 #P Opt(TS,MaxCyc=50,NoEigenTest,MaxStep=10,AddRedundant) HF/6-31G* 5D
 7F Integral=UltraFineGrid SCF=(NoSymm,XQC,MaxCyc=120) IOp(1/33=1)
 ----------------------------------------------------------------------

 TstMul:  Mul=     3
 TstMul:  ICh=     0
 TstMul:  Mul=     3
 Symbolic Z-matrix:
 Charge =  0 Multiplicity = 3

 SCF Done:  E(UHF) =  -95.0863332031     A.U. after   16 cycles
 SCF Done:  E(UHF) =  -95.0864562917     A.U. after   16 cycles
 SCF Done:  E(UHF) =  -95.0866842878     A.U. after   16 cycles
 SCF Done:  E(UHF) =  -95.0866864085     A.U. after   15 cycles
 SCF Done:  E(UHF) =  -95.0866590456     A.U. after   17 cycles
 SCF Done:  E(UHF) =  -95.0866497417     A.U. after   17 cycles
 SCF Done:  E(UHF) =  -95.0866569298     A.U. after   14 cycles
 SCF Done:  E(UHF) =  -95.0866750854     A.U. after   14 cycles
 SCF Done:  E(UHF) =  -95.0866563283     A.U. after   15 cycles
 SCF Done:  E(UHF) =  -95.0866579471     A.U. after   12 cycles
 SCF Done:  E(UHF) =  -95.0866574428     A.U. after   17 cycles
 SCF Done:  E(UHF) =  -95.0866688910     A.U. after   15 cycles
 SCF Done:  E(UHF) =  -95.0866694028     A.U. after   12 cycles
 SCF Done:  E(UHF) =  -95.0866701337     A.U. after   14 cycles
 SCF Done:  E(UHF) =  -95.0866701269     A.U. after   13 cycles
 SCF Done:  E(UHF) =  -95.0866701228     A.U. after   11 cycles
 SCF Done:  E(UHF) =  -95.0866701283     A.U. after   11 cycles
 Optimization completed.
    -- Stationary point found.
 Normal termination of Gaussian 16 at Wed Oct  7 12:41:42 2020.
 Gaussian 16:  ES64L-G16RevA.03 25-Dec-2016

 ----------------------------------------------------------------------
 #P Freq HF/6-31G* 5D 7F Integral=UltraFineGrid SCF=(NoSymm,XQC,MaxCyc=
 120) IOp(1/33=1) Geom=Check Guess=Read
 ----------------------------------------------------------------------

 TstMul:  Mul=     3
 TstMul:  ICh=     0
 TstMul:  Mul=     3
 Structure from the checkpoint file:  "MN_92_RKT18_BH76_HF_631Gs.chk"
 Charge =  0 Multiplicity = 3

                         Standard orientation:
 ---------------------------------------------------------------------
 Center     Atomic      Atomic             Coordinates (Angstroms)
 Number     Number       Type             X           Y           Z
 ---------------------------------------------------------------------
      1          6           0       -1.215785   -0.011146   -0.000001
      2          7           0        1.416784    0.128828   -0.000001
      3          1           0       -1.449362   -0.547414    0.906582
      4          1           0       -1.449261   -0.548547   -0.905938
      5          1           0       -1.536432    1.018483   -0.000662
      6          1           0        0.199126    0.113605    0.000028
      7          1           0        1.613152   -0.871050    0.000003
 ---------------------------------------------------------------------

 SCF Done:  E(UHF) =  -95.0866701283     A.U. after    1 cycles

 The electronic state is 3-A.
 Alpha  occ. eigenvalues --  -15.60572 -11.23879  -1.16773  -0.96630  -0.64753
 Alpha  occ. eigenvalues --   -0.58329  -0.58194  -0.53654  -0.51633  -0.39002
 Alpha virt. eigenvalues --    0.23480   0.27306   0.31373   0.31582   0.44204
 Alpha virt. eigenvalues --    0.69754   0.69820   0.75441   0.91180   0.93792
 Alpha virt. eigenvalues --    0.94312   1.09284   1.17424   1.17449   1.19125

  Beta  occ. eigenvalues --  -15.55522 -11.21845  -0.98744  -0.89444  -0.57477
  Beta  occ. eigenvalues --   -0.56961  -0.55988  -0.42613
  Beta virt. eigenvalues --    0.10697   0.15395   0.25115   0.29338   0.32563
  Beta virt. eigenvalues --    0.32673   0.50271   0.70447   0.72143   0.85857
  Beta virt. eigenvalues --    0.95107   1.02762   1.08565   1.10204   1.18871

 Mulliken charges and spin densities:
               1          2
     1  C   -0.623975   0.863217
     2  N   -0.543947   1.670447
     3  H    0.189657  -0.050668
     4  H    0.189648  -0.050670
     5  H    0.201369  -0.049959
     6  H    0.261323  -0.294313
     7  H    0.325925  -0.088055
 Sum of Mulliken charges =   0.00000   2.00000

 Dipole moment (field-independent basis, Debye):
    X=             -1.2872    Y=             -1.6226    Z=              0.0000  Tot=              2.0711
 Quadrupole moment (field-independent basis, Debye-Ang):
   XX=            -16.4149   YY=            -14.0799   ZZ=            -14.3481
   XY=             -3.0645   XZ=              0.0000   YZ=             -0.0000

  Exact polarizability:  41.540  -0.769  19.181  -0.000   0.000  15.905
 Approx polarizability:  21.863  -0.331  15.548  -0.000   0.000  12.256

 ******    1 imaginary frequencies (negative Signs) ******

                      1                      2                      3
                      A                      A                      A
 Frequencies --  -2810.4483                51.7177               380.7801
 Red. masses --      1.0645                 1.0587                 1.0650
 Frc consts  --      4.9537                 0.0017                 0.0910
 IR Inten    --   2683.9726                86.5603                16.4341
 Raman Activ --   2123.5934                 4.9557                 4.5469

                      4                      5                      6
                      A                      A                      A
 Frequencies --    443.4238               517.3900               884.6367
 Red. masses --      1.0715                 4.1156                 1.1362
 Frc consts  --      0.1241                 0.6491                 0.5239
 IR Inten    --      3.4670                 0.4521                30.9297
 Raman Activ --     14.0525                22.9780                12.2772

                      7                      8                      9
                      A                      A                      A
 Frequencies --   1216.8776              1256.0620              1551.6121
 Red. masses --      1.0681                 1.2080                 1.0941
 Frc consts  --      0.9319                 1.1229                 1.5520
 IR Inten    --     30.6991                 3.2719                39.6142
 Raman Activ --      0.1475                 0.1586                74.4493

                     10                     11                     12
                      A                      A                      A
 Frequencies --   1575.8862              1591.9117              3244.1447
 Red. masses --      1.0738                 1.0405                 1.0184
 Frc consts  --      1.5711                 1.5535                 6.3150
 IR Inten    --      1.7409                31.0391                 5.1147
 Raman Activ --     13.1209                68.5989               153.6526

                     13                     14                     15
                      A                      A                      A
 Frequencies --   3376.7089              3383.1675              3576.1108
 Red. masses --      1.1118                 1.1118                 1.0735
 Frc consts  --      7.4689                 7.4976                 8.0887
 IR Inten    --     19.4787                13.9680                11.0770
 Raman Activ --     66.4100                71.2686               112.4095

 - Thermochemistry -
 -------------------
 Temperature   298.150 Kelvin.  Pressure   1.00000 Atm.
 Atom     1 has atomic number  6 and mass  12.00000

 Molecular mass:    31.04220 amu.
 Principal axes and moments of inertia in atomic units:
                           1         2         3
     Eigenvalues --    15.22810 202.08332 205.48784
           X            0.99970  -0.02446   0.00000
           Y            0.02446   0.99970   0.00000
           Z           -0.00000  -0.00000   1.00000
 This molecule is an asymmetric top.
 Rotational symmetry number  1.
 Rotational temperatures (Kelvin)      5.68777     0.42861     0.42150
 Rotational constants (GHZ):         118.51387     8.93068     8.78272
    1 imaginary frequencies ignored.
 Zero-point vibrational energy     137872.2 (Joules/Mol)
                                   32.95224 (Kcal/Mol)
 Warning -- explicit consideration of   4 degrees of freedom as
           vibrations may cause significant error
 Vibrational temperatures:     74.41   547.86   637.99   744.41  1272.79
          (Kelvin)           1750.82  1807.19  2232.42  2267.35  2290.41
                             4667.60  4858.33  4867.62  5145.23

 Zero-point correction=                           0.052513 (Hartree/Particle)
 Thermal correction to Energy=                    0.057083
 Thermal correction to Enthalpy=                  0.058027
 Thermal correction to Gibbs Free Energy=         0.026216
 Sum of electronic and zero-point Energies=            -95.034157
 Sum of electronic and thermal Energies=               -95.029587
 Sum of electronic and thermal Enthalpies=             -95.028643
 Sum of electronic and thermal Free Energies=          -95.060454

                     E (Thermal)             CV                S
                      KCal/Mol        Cal/Mol-Kelvin    Cal/Mol-Kelvin
 Total                   35.820             13.097             66.953
 Electronic               0.000              0.000              2.183
 Translational            0.889              2.981             36.231
 Rotational               0.889              2.981             21.075
 Vibrational             34.043              7.135              7.464
 Vibration     1          0.596              1.977              4.751
 Vibration     2          0.751              1.511              1.036
 Vibration     3          0.803              1.375              0.816
 Vibration     4          0.872              1.211              0.616

 Optimization completed.
    -- Stationary point found.
 Normal termination of Gaussian 16 at Wed Oct  7 12:42:07 2020.
