 Gaussian 16, Revision A.03,

 ----------------------------------------------------------------------
 #P Opt(TS,MaxCyc=50,NoEigenTest,MaxStep=10,AddRedundant) HF/6-31G* 5D
 7F Integral=UltraFineGrid SCF=(NoSymm,XQC,MaxCyc=120) IOp(1/33=1)
 ----------------------------------------------------------------------

 TstMul:  Mul=     2
 TstMul:  ICh=     0
 TstMul:  Mul=     2
 Symbolic Z-matrix:
 Charge =  0 Multiplicity = 2

 SCF Done:  E(UHF) =  -134.735279168     A.U. after   17 cycles
 SCF Done:  E(UHF) =  -134.736749623     A.U. after   15 cycles
 SCF Done:  E(UHF) =  -134.735563915     A.U. after   15 cycles
 SCF Done:  E(UHF) =  -134.734798009     A.U. after   15 cycles
 SCF Done:  E(UHF) =  -134.734811561     A.U. after   15 cycles
 SCF Done:  E(UHF) =  -134.734855682     A.U. after   14 cycles
 SCF Done:  E(UHF) =  -134.734807071     A.U. after   14 cycles
 SCF Done:  E(UHF) =  -134.734749063     A.U. after   15 cycles
 SCF Done:  E(UHF) =  -134.734852453     A.U. after   14 cycles
 SCF Done:  E(UHF) =  -134.734865700     A.U. after   14 cycles
 SCF Done:  E(UHF) =  -134.734866368     A.U. after   13 cycles
 SCF Done:  E(UHF) =  -134.734866472     A.U. after   11 cycles
 SCF Done:  E(UHF) =  -134.734860254     A.U. after   14 cycles
 SCF Done:  E(UHF) =  -134.734846900     A.U. after   16 cycles
 SCF Done:  E(UHF) =  -134.734866438     A.U. after   16 cycles
 SCF Done:  E(UHF) =  -134.734867414     A.U. after   14 cycles
 SCF Done:  E(UHF) =  -134.734867628     A.U. after   12 cycles
 SCF Done:  E(UHF) =  -134.734867604     A.U. after   12 cycles
 SCF Done:  E(UHF) =  -134.734867637     A.U. after   12 cycles
 Optimization completed.
    -- Stationary point found.
 Normal termination of Gaussian 16 at Wed Oct  7 12:48:02 2020.
 Gaussian 16:  ES64L-G16RevA.03 25-Dec-2016

 ----------------------------------------------------------------------
 #P Freq HF/6-31G* 5D 7F Integral=UltraFineGrid SCF=(NoSymm,XQC,MaxCyc=
 120) IOp(1/33=1) Geom=Check Guess=Read
 ----------------------------------------------------------------------

 TstMul:  Mul=     2
 TstMul:  ICh=     0
 TstMul:  Mul=     2
 Structure from the checkpoint file:  "MN_94_RKT20_BH76_HF_631Gs.chk"
 Charge =  0 Multiplicity = 2

                         Standard orientation:
 ---------------------------------------------------------------------
 Center     Atomic      Atomic             Coordinates (Angstroms)
 Number     Number       Type             X           Y           Z
 ---------------------------------------------------------------------
      1          6           0       -1.495379   -0.451572    0.000088
      2          6           0       -0.517813    0.703859   -0.000137
      3          7           0        1.879824   -0.332378    0.000251
      4          1           0       -1.360934   -1.076015   -0.876296
      5          1           0       -1.360983   -1.075574    0.876787
      6          1           0       -2.523199   -0.094166   -0.000039
      7          1           0       -0.536606    1.314135   -0.893595
      8          1           0       -0.536694    1.314574    0.893024
      9          1           0        0.703883    0.141473    0.000122
     10          1           0        2.267024    0.142944   -0.802105
     11          1           0        2.267897    0.145554    0.800633
 ---------------------------------------------------------------------

 SCF Done:  E(UHF) =  -134.734867637     A.U. after    1 cycles

 The electronic state is 2-A.
 Alpha  occ. eigenvalues --  -15.55900 -11.23253 -11.21037  -1.15474  -1.03154
 Alpha  occ. eigenvalues --   -0.85156  -0.64091  -0.63440  -0.61209  -0.55245
 Alpha  occ. eigenvalues --   -0.52647  -0.50115  -0.45998  -0.36080
 Alpha virt. eigenvalues --    0.22429   0.26647   0.29854   0.30128   0.32415
 Alpha virt. eigenvalues --    0.32707   0.34509   0.40602   0.47570   0.69204
 Alpha virt. eigenvalues --    0.71591   0.75159   0.81672   0.81675   0.93020

  Beta  occ. eigenvalues --  -15.53624 -11.21345 -11.21178  -1.08225  -1.00309
  Beta  occ. eigenvalues --   -0.81873  -0.62033  -0.60348  -0.58089  -0.51869
  Beta  occ. eigenvalues --   -0.50784  -0.49685  -0.40223
  Beta virt. eigenvalues --    0.11040   0.23375   0.27345   0.30752   0.30873
  Beta virt. eigenvalues --    0.32717   0.33082   0.35390   0.41679   0.52208
  Beta virt. eigenvalues --    0.69772   0.71711   0.75944   0.81723   0.90015

 Mulliken charges and spin densities:
               1          2
     1  C   -0.478748  -0.073026
     2  C   -0.446449   0.763833
     3  N   -0.857297   0.692993
     4  H    0.176844   0.007070
     5  H    0.176876   0.007070
     6  H    0.167357   0.031613
     7  H    0.175347  -0.044262
     8  H    0.175366  -0.044259
     9  H    0.238554  -0.270661
    10  H    0.336073  -0.035185
    11  H    0.336075  -0.035185
 Sum of Mulliken charges =  -0.00000   1.00000

 Dipole moment (field-independent basis, Debye):
    X=             -0.1702    Y=              1.9218    Z=             -0.0032  Tot=              1.9294
 Quadrupole moment (field-independent basis, Debye-Ang):
   XX=            -20.4752   YY=            -23.6897   ZZ=            -20.1636
   XY=              3.6977   XZ=             -0.0063   YZ=              0.0048

  Exact polarizability:  55.298  -6.362  29.609   0.002   0.004  29.757
 Approx polarizability:  31.260  -2.724  23.569   0.001   0.004  25.628

 ******    1 imaginary frequencies (negative Signs) ******

                      1                      2                      3
                      A                      A                      A
 Frequencies --  -2959.0814                26.4839               151.0064
 Red. masses --      1.0694                 1.0793                 2.7644
 Frc consts  --      5.5172                 0.0004                 0.0371
 IR Inten    --   3492.9892                64.2264                 6.8772
 Raman Activ --    890.2617                 2.1102                 4.5449

                      4                      5                      6
                      A                      A                      A
 Frequencies --    181.0928               442.2239               483.9089
 Red. masses --      1.0783                 1.0163                 2.8918
 Frc consts  --      0.0208                 0.1171                 0.3990
 IR Inten    --      0.0052                 0.4692                 1.0743
 Raman Activ --      0.2620                 1.6680                19.3292

                      7                      8                      9
                      A                      A                      A
 Frequencies --    802.0228               827.5199               967.6865
 Red. masses --      1.2347                 1.1133                 1.0540
 Frc consts  --      0.4679                 0.4492                 0.5815
 IR Inten    --     56.4611                 3.9275                 0.0022
 Raman Activ --      1.4757                 2.3009                 8.6269

                     10                     11                     12
                      A                      A                      A
 Frequencies --   1018.0101              1122.1602              1307.7662
 Red. masses --      1.3508                 2.3582                 1.4154
 Frc consts  --      0.8248                 1.7496                 1.4262
 IR Inten    --     49.4399                19.6531                 2.0245
 Raman Activ --     14.5187                19.0461                 5.3168

                     13                     14                     15
                      A                      A                      A
 Frequencies --   1343.4517              1446.1512              1557.2134
 Red. masses --      1.3812                 1.0926                 1.1992
 Frc consts  --      1.4687                 1.3463                 1.7133
 IR Inten    --      0.4005                94.6725                 1.0637
 Raman Activ --      4.8375               181.9671                 7.1389

                     16                     17                     18
                      A                      A                      A
 Frequencies --   1610.7083              1636.8347              1638.3273
 Red. masses --      1.1504                 1.0354                 1.0469
 Frc consts  --      1.7585                 1.6344                 1.6556
 IR Inten    --      0.7535                 1.6643                 3.2137
 Raman Activ --     10.5585                22.2161                16.0739

                     19                     20                     21
                      A                      A                      A
 Frequencies --   1642.9205              1736.7115              3188.3738
 Red. masses --      1.0422                 1.0708                 1.0440
 Frc consts  --      1.6575                 1.9028                 6.2531
 IR Inten    --      6.9160                29.4669                44.4634
 Raman Activ --      1.9686                82.4911               173.2665

                     22                     23                     24
                      A                      A                      A
 Frequencies --   3245.8160              3254.0577              3273.9033
 Red. masses --      1.0688                 1.0780                 1.1042
 Frc consts  --      6.6345                 6.7253                 6.9733
 IR Inten    --      2.5166                58.8929                16.9434
 Raman Activ --    166.0506                66.8704                95.2143

                     25                     26                     27
                      A                      A                      A
 Frequencies --   3319.9627              3636.6672              3738.0728
 Red. masses --      1.1107                 1.0493                 1.0917
 Frc consts  --      7.2130                 8.1762                 8.9874
 IR Inten    --     52.3124                 1.8767                 0.6294
 Raman Activ --     43.0446               147.0072                87.7644

 - Thermochemistry -
 -------------------
 Temperature   298.150 Kelvin.  Pressure   1.00000 Atm.
 Atom     1 has atomic number  6 and mass  12.00000

 Molecular mass:    46.06567 amu.
 Principal axes and moments of inertia in atomic units:
                           1         2         3
     Eigenvalues --    72.10261 377.19540 417.50408
           X            0.99958   0.02895  -0.00003
           Y           -0.02895   0.99958   0.00011
           Z            0.00003  -0.00011   1.00000
 This molecule is an asymmetric top.
 Rotational symmetry number  1.
 Rotational temperatures (Kelvin)      1.20126     0.22963     0.20746
 Rotational constants (GHZ):          25.03018     4.78463     4.32269
    1 imaginary frequencies ignored.
 Zero-point vibrational energy     260780.3 (Joules/Mol)
                                   62.32798 (Kcal/Mol)
 Warning -- explicit consideration of   5 degrees of freedom as
           vibrations may cause significant error
 Vibrational temperatures:     38.10   217.26   260.55   636.26   696.24
          (Kelvin)           1153.93  1190.62  1392.29  1464.69  1614.54
                             1881.58  1932.93  2080.69  2240.48  2317.45
                             2355.04  2357.19  2363.80  2498.74  4587.36
                             4670.01  4681.86  4710.42  4776.69  5232.35
                             5378.25

 Zero-point correction=                           0.099326 (Hartree/Particle)
 Thermal correction to Energy=                    0.105074
 Thermal correction to Enthalpy=                  0.106018
 Thermal correction to Gibbs Free Energy=         0.069885
 Sum of electronic and zero-point Energies=           -134.635542
 Sum of electronic and thermal Energies=              -134.629794
 Sum of electronic and thermal Enthalpies=            -134.628850
 Sum of electronic and thermal Free Energies=         -134.664983

                     E (Thermal)             CV                S
                      KCal/Mol        Cal/Mol-Kelvin    Cal/Mol-Kelvin
 Total                   65.935             17.308             76.048
 Electronic               0.000              0.000              1.377
 Translational            0.889              2.981             37.408
 Rotational               0.889              2.981             23.944
 Vibrational             64.157             11.346             13.319
 Vibration     1          0.593              1.985              6.077
 Vibration     2          0.618              1.902              2.660
 Vibration     3          0.630              1.865              2.317
 Vibration     4          0.802              1.378              0.820
 Vibration     5          0.840              1.286              0.700

 Optimization completed on the basis of negligible forces.
    -- Stationary point found.
 Normal termination of Gaussian 16 at Wed Oct  7 12:48:56 2020.
