 Gaussian 16, Revision A.03,

 ----------------------------------------------------------------------
 #P Opt(TS,MaxCyc=50,NoEigenTest,MaxStep=10,AddRedundant) HF/6-31G* 5D
 7F Integral=UltraFineGrid SCF=(NoSymm,XQC,MaxCyc=120) IOp(1/33=1)
 ----------------------------------------------------------------------

 TstMul:  Mul=     3
 TstMul:  ICh=     0
 TstMul:  Mul=     3
 Symbolic Z-matrix:
 Charge =  0 Multiplicity = 3

 SCF Done:  E(UHF) =  -534.785132299     A.U. after   27 cycles
 SCF Done:  E(UHF) =  -534.786414721     A.U. after   20 cycles
 SCF Done:  E(UHF) =  -534.785211735     A.U. after   18 cycles
 SCF Done:  E(UHF) =  -534.784464672     A.U. after   18 cycles
 SCF Done:  E(UHF) =  -534.783923827     A.U. after   18 cycles
 SCF Done:  E(UHF) =  -534.785475508     A.U. after   18 cycles
 SCF Done:  E(UHF) =  -534.783975264     A.U. after   18 cycles
 SCF Done:  E(UHF) =  -534.784414463     A.U. after   18 cycles
 SCF Done:  E(UHF) =  -534.785187100     A.U. after   18 cycles
 SCF Done:  E(UHF) =  -534.785800113     A.U. after   18 cycles
 SCF Done:  E(UHF) =  -534.786264034     A.U. after   18 cycles
 SCF Done:  E(UHF) =  -534.786603437     A.U. after   17 cycles
 SCF Done:  E(UHF) =  -534.786834017     A.U. after   17 cycles
 SCF Done:  E(UHF) =  -534.786964231     A.U. after   17 cycles
 SCF Done:  E(UHF) =  -534.786998493     A.U. after   16 cycles
 SCF Done:  E(UHF) =  -534.786998510     A.U. after   15 cycles
 Optimization completed.
    -- Stationary point found.
 Normal termination of Gaussian 16 at Wed Oct  7 12:41:52 2020.
 Gaussian 16:  ES64L-G16RevA.03 25-Dec-2016

 ----------------------------------------------------------------------
 #P Freq HF/6-31G* 5D 7F Integral=UltraFineGrid SCF=(NoSymm,XQC,MaxCyc=
 120) IOp(1/33=1) Geom=Check Guess=Read
 ----------------------------------------------------------------------

 TstMul:  Mul=     3
 TstMul:  ICh=     0
 TstMul:  Mul=     3
 Structure from the checkpoint file:  "MN_91_RKT17_BH76_HF_631Gs.chk"
 Charge =  0 Multiplicity = 3

                         Standard orientation:
 ---------------------------------------------------------------------
 Center     Atomic      Atomic             Coordinates (Angstroms)
 Number     Number       Type             X           Y           Z
 ---------------------------------------------------------------------
      1         17           0        0.000007   -0.890338    0.000000
      2          1           0       -0.000183    0.654117   -0.000000
      3          8           0        0.000007    1.810204   -0.000000
 ---------------------------------------------------------------------

 SCF Done:  E(UHF) =  -534.786998510     A.U. after    1 cycles

 The electronic state is 3-A".
 Alpha  occ. eigenvalues -- -104.86161 -20.73091 -10.59969  -8.08166  -8.06199
 Alpha  occ. eigenvalues --   -8.06186  -1.44912  -1.13848  -0.77975  -0.72278
 Alpha  occ. eigenvalues --   -0.62741  -0.56152  -0.49946  -0.49836
 Alpha virt. eigenvalues --    0.28298   0.55597   0.60394   0.60493   0.60622
 Alpha virt. eigenvalues --    0.91108   1.01125   1.04844   1.08241   1.10473
 Alpha virt. eigenvalues --    1.11987   1.11987   1.12703   1.25133   1.76521

  Beta  occ. eigenvalues -- -104.85333 -20.66589 -10.59158  -8.05752  -8.05746
  Beta  occ. eigenvalues --   -8.04673  -1.20264  -1.05240  -0.57969  -0.55677
  Beta  occ. eigenvalues --   -0.48426  -0.48225
  Beta virt. eigenvalues --   -0.05964   0.08739   0.34848   0.58771   0.61151
  Beta virt. eigenvalues --    0.61402   0.66915   0.92205   1.09935   1.12619
  Beta virt. eigenvalues --    1.12619   1.13134   1.15644   1.21636   1.23806

 Mulliken charges and spin densities:
               1          2
     1  Cl  -0.114295   0.656296
     2  H    0.322702  -0.297072
     3  O   -0.208407   1.640776
 Sum of Mulliken charges =   0.00000   2.00000

 Dipole moment (field-independent basis, Debye):
    X=             -0.0002    Y=              0.2402    Z=             -0.0000  Tot=              0.2402
 Quadrupole moment (field-independent basis, Debye-Ang):
   XX=            -19.6978   YY=            -18.5268   ZZ=            -18.5342
   XY=             -0.0002   XZ=             -0.0000   YZ=             -0.0000

  Exact polarizability:   7.925  -0.001  51.819  -0.000  -0.000   8.206
 Approx polarizability:   6.844  -0.000  25.050  -0.000  -0.000   7.188

 ******    1 imaginary frequencies (negative Signs) ******

                      1                      2                      3
                     A'                     A'                     A'
 Frequencies --  -3329.8195               407.6254               439.1117
 Red. masses --      1.0317                 1.0325                17.7258
 Frc consts  --      6.7400                 0.1011                 2.0138
 IR Inten    --  11332.8520                53.1513                 1.7870
 Raman Activ --     37.1242                 2.9772                14.8349

 - Thermochemistry -
 -------------------
 Temperature   298.150 Kelvin.  Pressure   1.00000 Atm.
 Atom     1 has atomic number 17 and mass  34.96885

 Molecular mass:    51.97159 amu.
 Principal axes and moments of inertia in atomic units:
                           1         2         3
     Eigenvalues --     0.00000 287.53968 287.53968
           X           -0.00000   1.00000  -0.00000
           Y            1.00000   0.00000   0.00000
           Z           -0.00000   0.00000   1.00000
 This molecule is a prolate symmetric top.
 Rotational symmetry number  1.
 Rotational temperatures (Kelvin) ************     0.30122     0.30122
 Rotational constants (GHZ):      ************     6.27649     6.27649
    1 imaginary frequencies ignored.
 Zero-point vibrational energy       5064.6 (Joules/Mol)
                                    1.21047 (Kcal/Mol)
 Warning -- explicit consideration of   2 degrees of freedom as
           vibrations may cause significant error
 Vibrational temperatures:    586.48   631.78
          (Kelvin)

 Zero-point correction=                           0.001929 (Hartree/Particle)
 Thermal correction to Energy=                    0.005337
 Thermal correction to Enthalpy=                  0.006281
 Thermal correction to Gibbs Free Energy=        -0.015097
 Sum of electronic and zero-point Energies=           -534.785070
 Sum of electronic and thermal Energies=              -534.781662
 Sum of electronic and thermal Enthalpies=            -534.780718
 Sum of electronic and thermal Free Energies=         -534.802096

                     E (Thermal)             CV                S
                      KCal/Mol        Cal/Mol-Kelvin    Cal/Mol-Kelvin
 Total                    3.349              8.800             44.994
 Electronic               0.000              0.000              2.183
 Translational            0.889              2.981             37.767
 Rotational               0.889              2.981              3.280
 Vibrational              1.571              2.839              1.764
 Vibration     1          0.772              1.454              0.935
 Vibration     2          0.799              1.385              0.829

 Optimization completed.
    -- Stationary point found.

 1\1\GINC-NODE60\Freq\UHF\6-31G(d)\Cl1H1O1(3)\RPEVERATI\07-Oct-2020\0\\
 #P Freq HF/6-31G* 5D 7F Integral=UltraFineGrid SCF=(NoSymm,XQC,MaxCyc=
 120) IOp(1/33=1) Geom=Check Guess=Read\\TS search on BH76.\\0,3\Cl,-0.
 113129234,-0.9420707647,0.\H,-0.1472541831,0.602007637,0.0000000002\O,
 -0.1724648087,1.7578188355,0.\\Version=ES64L-G16RevA.03\State=3-A"\HF=
 -534.7869985\S2=2.074232\S2-1=0.\S2A=2.000709\RMSD=4.771e-10\RMSF=2.54
 6e-05\ZeroPoint=0.001929\Thermal=0.0053368\Dipole=-0.00216,0.0944806,0
 .\DipoleDeriv=-0.1170609,-0.0325842,0.,-0.0324538,1.358223,0.,0.,0.,-0

 Normal termination of Gaussian 16 at Wed Oct  7 12:42:18 2020.
