 Gaussian 16, Revision A.03,

 ----------------------------------------------------------------------
 #P Opt(TS,MaxCyc=50,NoEigenTest,MaxStep=10,AddRedundant) HF/6-31G* 5D
 7F Integral=UltraFineGrid SCF=(NoSymm,XQC,MaxCyc=120) IOp(1/33=1)
 ----------------------------------------------------------------------

 TstMul:  Mul=     2
 TstMul:  ICh=     0
 TstMul:  Mul=     2
 Symbolic Z-matrix:
 Charge =  0 Multiplicity = 2

 SCF Done:  E(UHF) =  -95.6985207356     A.U. after   16 cycles
 SCF Done:  E(UHF) =  -95.6996209236     A.U. after   15 cycles
 SCF Done:  E(UHF) =  -95.6992133001     A.U. after   15 cycles
 SCF Done:  E(UHF) =  -95.6985188512     A.U. after   15 cycles
 SCF Done:  E(UHF) =  -95.6983423182     A.U. after   15 cycles
 SCF Done:  E(UHF) =  -95.6983714273     A.U. after   14 cycles
 SCF Done:  E(UHF) =  -95.6983499971     A.U. after   15 cycles
 SCF Done:  E(UHF) =  -95.6983735681     A.U. after   15 cycles
 Optimization completed.
    -- Stationary point found.
 Normal termination of Gaussian 16 at Wed Oct  7 12:40:38 2020.
 Gaussian 16:  ES64L-G16RevA.03 25-Dec-2016

 ----------------------------------------------------------------------
 #P Freq HF/6-31G* 5D 7F Integral=UltraFineGrid SCF=(NoSymm,XQC,MaxCyc=
 120) IOp(1/33=1) Geom=Check Guess=Read
 ----------------------------------------------------------------------

 TstMul:  Mul=     2
 TstMul:  ICh=     0
 TstMul:  Mul=     2
 Structure from the checkpoint file:  "MN_95_RKT21_BH76_HF_631Gs.chk"
 Charge =  0 Multiplicity = 2

                         Standard orientation:
 ---------------------------------------------------------------------
 Center     Atomic      Atomic             Coordinates (Angstroms)
 Number     Number       Type             X           Y           Z
 ---------------------------------------------------------------------
      1          6           0       -1.278358    0.000154    0.011933
      2          7           0        1.323417   -0.000031   -0.132837
      3          1           0       -1.606381    0.789576   -0.647407
      4          1           0       -1.491550    0.192583    1.052789
      5          1           0       -1.583031   -0.983050   -0.314175
      6          1           0        0.071653   -0.000737   -0.138242
      7          1           0        1.507485    0.802189    0.452039
      8          1           0        1.508048   -0.801271    0.453259
 ---------------------------------------------------------------------

 SCF Done:  E(UHF) =  -95.6983735681     A.U. after    1 cycles

 The electronic state is 2-A.
 Alpha  occ. eigenvalues --  -15.56252 -11.22982  -1.15888  -0.96045  -0.63673
 Alpha  occ. eigenvalues --   -0.62972  -0.57328  -0.57122  -0.46427  -0.37803
 Alpha virt. eigenvalues --    0.22582   0.27583   0.31067   0.31864   0.32721
 Alpha virt. eigenvalues --    0.46326   0.69755   0.70890   0.76615   0.94245
 Alpha virt. eigenvalues --    0.94933   0.96487   1.16904   1.17731   1.17877

  Beta  occ. eigenvalues --  -15.54006 -11.21050  -1.08614  -0.90085  -0.62203
  Beta  occ. eigenvalues --   -0.56409  -0.55954  -0.53799  -0.40770
  Beta virt. eigenvalues --    0.10392   0.23727   0.28918   0.31878   0.32896
  Beta virt. eigenvalues --    0.33610   0.50950   0.70043   0.71537   0.86448
  Beta virt. eigenvalues --    0.94323   0.96513   1.03056   1.17375   1.19166

 Mulliken charges and spin densities:
               1          2
     1  C   -0.629972   0.789831
     2  N   -0.859534   0.682191
     3  H    0.193277  -0.044008
     4  H    0.178467  -0.046726
     5  H    0.189701  -0.044620
     6  H    0.252344  -0.268123
     7  H    0.337879  -0.034270
     8  H    0.337838  -0.034275
 Sum of Mulliken charges =   0.00000   1.00000

 Dipole moment (field-independent basis, Debye):
    X=             -0.7386    Y=              0.0013    Z=              1.8739  Tot=              2.0142
 Quadrupole moment (field-independent basis, Debye-Ang):
   XX=            -15.9940   YY=            -13.6268   ZZ=            -15.8165
   XY=              0.0013   XZ=              3.2834   YZ=             -0.0130

  Exact polarizability:  44.808   0.009  20.469   0.551   0.007  17.846
 Approx polarizability:  22.510   0.005  16.723   0.326   0.008  14.601

 ******    1 imaginary frequencies (negative Signs) ******

                      1                      2                      3
                      A                      A                      A
 Frequencies --  -2980.8464                46.4909               392.7407
 Red. masses --      1.0665                 1.0294                 1.1211
 Frc consts  --      5.5832                 0.0013                 0.1019
 IR Inten    --   3339.1670                47.0522                15.1887
 Raman Activ --   1131.6174                 1.2838                 5.3463

                      4                      5                      6
                      A                      A                      A
 Frequencies --    401.9535               537.6407               878.3594
 Red. masses --      1.0215                 3.2671                 1.1097
 Frc consts  --      0.0972                 0.5564                 0.5044
 IR Inten    --      1.4785                 5.5135                 4.2318
 Raman Activ --      1.9500                24.9472                10.9757

                      7                      8                      9
                      A                      A                      A
 Frequencies --    950.7144              1284.3114              1452.7539
 Red. masses --      1.1949                 1.1805                 1.1069
 Frc consts  --      0.6363                 1.1472                 1.3764
 IR Inten    --     77.0382                 5.6774               138.4587
 Raman Activ --     22.3539                13.4907               170.5891

                     10                     11                     12
                      A                      A                      A
 Frequencies --   1567.4216              1584.8709              1646.9172
 Red. masses --      1.0963                 1.0629                 1.0267
 Frc consts  --      1.5869                 1.5730                 1.6407
 IR Inten    --      6.0711                 3.6980                 5.2525
 Raman Activ --     12.2080                22.0695                 2.4605

                     13                     14                     15
                      A                      A                      A
 Frequencies --   1739.7268              3237.2972              3362.7714
 Red. masses --      1.0694                 1.0201                 1.1105
 Frc consts  --      1.9071                 6.2987                 7.3988
 IR Inten    --     31.3715                10.1330                23.1531
 Raman Activ --     76.0717               163.6579                73.2397

                     16                     17                     18
                      A                      A                      A
 Frequencies --   3366.6421              3638.2796              3739.4700
 Red. masses --      1.1105                 1.0493                 1.0916
 Frc consts  --      7.4156                 8.1836                 8.9940
 IR Inten    --     18.7082                 2.1993                 0.4257
 Raman Activ --     78.2066               137.5967                81.1075

 - Thermochemistry -
 -------------------
 Temperature   298.150 Kelvin.  Pressure   1.00000 Atm.
 Atom     1 has atomic number  6 and mass  12.00000

 Molecular mass:    32.05002 amu.
 Principal axes and moments of inertia in atomic units:
                           1         2         3
     Eigenvalues --    18.57867 208.23091 210.61608
           X            0.99972   0.00003   0.02363
           Y           -0.00003   1.00000  -0.00003
           Z           -0.02363   0.00003   0.99972
 This molecule is an asymmetric top.
 Rotational symmetry number  1.
 Rotational temperatures (Kelvin)      4.66201     0.41595     0.41124
 Rotational constants (GHZ):          97.14048     8.66702     8.56887
    1 imaginary frequencies ignored.
 Zero-point vibrational energy     178413.2 (Joules/Mol)
                                   42.64178 (Kcal/Mol)
 Warning -- explicit consideration of   4 degrees of freedom as
           vibrations may cause significant error
 Vibrational temperatures:     66.89   565.07   578.32   773.55  1263.76
          (Kelvin)           1367.87  1847.84  2090.19  2255.17  2280.28
                             2369.55  2503.08  4657.75  4838.28  4843.85
                             5234.67  5380.26

 Zero-point correction=                           0.067954 (Hartree/Particle)
 Thermal correction to Energy=                    0.072583
 Thermal correction to Enthalpy=                  0.073527
 Thermal correction to Gibbs Free Energy=         0.041767
 Sum of electronic and zero-point Energies=            -95.630420
 Sum of electronic and thermal Energies=               -95.625790
 Sum of electronic and thermal Enthalpies=             -95.624846
 Sum of electronic and thermal Free Energies=          -95.656606

                     E (Thermal)             CV                S
                      KCal/Mol        Cal/Mol-Kelvin    Cal/Mol-Kelvin
 Total                   45.547             13.459             66.844
 Electronic               0.000              0.000              1.377
 Translational            0.889              2.981             36.326
 Rotational               0.889              2.981             21.327
 Vibrational             43.769              7.497              7.814
 Vibration     1          0.595              1.979              4.961
 Vibration     2          0.760              1.486              0.990
 Vibration     3          0.768              1.466              0.955
 Vibration     4          0.893              1.167              0.570

                           ! Non-Optimized Parameters !
 Normal termination of Gaussian 16 at Wed Oct  7 12:41:11 2020.
