 Gaussian 16, Revision A.03,

 ----------------------------------------------------------------------
 #P Opt(TS,MaxCyc=50,NoEigenTest,MaxStep=10,AddRedundant) HF/6-31G* 5D
 7F Integral=UltraFineGrid SCF=(NoSymm,XQC,MaxCyc=120) IOp(1/33=1)
 ----------------------------------------------------------------------

 TstMul:  Mul=     3
 TstMul:  ICh=     0
 TstMul:  Mul=     3
 Symbolic Z-matrix:
 Charge =  0 Multiplicity = 3

 SCF Done:  E(UHF) =  -134.122389925     A.U. after   18 cycles
 SCF Done:  E(UHF) =  -134.122615150     A.U. after   16 cycles
 SCF Done:  E(UHF) =  -134.123707840     A.U. after   17 cycles
 SCF Done:  E(UHF) =  -134.123812582     A.U. after   15 cycles
 SCF Done:  E(UHF) =  -134.124122833     A.U. after   17 cycles
 SCF Done:  E(UHF) =  -134.123378886     A.U. after   17 cycles
 SCF Done:  E(UHF) =  -134.123333856     A.U. after   16 cycles
 SCF Done:  E(UHF) =  -134.123408183     A.U. after   16 cycles
 SCF Done:  E(UHF) =  -134.123453566     A.U. after   16 cycles
 SCF Done:  E(UHF) =  -134.123467489     A.U. after   14 cycles
 SCF Done:  E(UHF) =  -134.123573119     A.U. after   11 cycles
 SCF Done:  E(UHF) =  -134.123573392     A.U. after   13 cycles
 SCF Done:  E(UHF) =  -134.123573518     A.U. after   11 cycles
 SCF Done:  E(UHF) =  -134.123563403     A.U. after   16 cycles
 SCF Done:  E(UHF) =  -134.123573427     A.U. after   14 cycles
 SCF Done:  E(UHF) =  -134.123573447     A.U. after   12 cycles
 SCF Done:  E(UHF) =  -134.123573527     A.U. after   11 cycles
 SCF Done:  E(UHF) =  -134.123573527     A.U. after   10 cycles
 SCF Done:  E(UHF) =  -134.123573528     A.U. after   10 cycles
 Optimization completed.
    -- Stationary point found.
 Normal termination of Gaussian 16 at Wed Oct  7 12:44:40 2020.
 Gaussian 16:  ES64L-G16RevA.03 25-Dec-2016

 ----------------------------------------------------------------------
 #P Freq HF/6-31G* 5D 7F Integral=UltraFineGrid SCF=(NoSymm,XQC,MaxCyc=
 120) IOp(1/33=1) Geom=Check Guess=Read
 ----------------------------------------------------------------------

 TstMul:  Mul=     3
 TstMul:  ICh=     0
 TstMul:  Mul=     3
 Structure from the checkpoint file:  "MN_93_RKT19_BH76_HF_631Gs.chk"
 Charge =  0 Multiplicity = 3

                         Standard orientation:
 ---------------------------------------------------------------------
 Center     Atomic      Atomic             Coordinates (Angstroms)
 Number     Number       Type             X           Y           Z
 ---------------------------------------------------------------------
      1          6           0       -1.415452   -0.449409    0.000005
      2          6           0       -0.447317    0.711442   -0.000006
      3          7           0        1.959167   -0.367023   -0.000012
      4          1           0       -1.279452   -1.072177   -0.877290
      5          1           0       -1.279436   -1.072199    0.877285
      6          1           0       -2.444916   -0.096493    0.000020
      7          1           0       -0.445350    1.315371   -0.896916
      8          1           0       -0.445353    1.315379    0.896898
      9          1           0        0.831161    0.126949    0.000008
     10          1           0        2.525798    0.480135    0.000081
 ---------------------------------------------------------------------

 SCF Done:  E(UHF) =  -134.123573528     A.U. after    1 cycles

 The electronic state is 3-A.
 Alpha  occ. eigenvalues --  -15.60147 -11.24037 -11.21587  -1.16286  -1.03732
 Alpha  occ. eigenvalues --   -0.85639  -0.65372  -0.62187  -0.56869  -0.53999
 Alpha  occ. eigenvalues --   -0.52285  -0.51536  -0.50543  -0.36933
 Alpha virt. eigenvalues --    0.23426   0.26521   0.29129   0.30378   0.32174
 Alpha virt. eigenvalues --    0.33819   0.40342   0.45509   0.68170   0.71600
 Alpha virt. eigenvalues --    0.74384   0.80341   0.81940   0.92299   0.95399

  Beta  occ. eigenvalues --  -15.55077 -11.22017 -11.21751  -1.01759  -0.96730
  Beta  occ. eigenvalues --   -0.81848  -0.61276  -0.58794  -0.53310  -0.52583
  Beta  occ. eigenvalues --   -0.50346  -0.41828
  Beta virt. eigenvalues --    0.11489   0.15682   0.24497   0.28121   0.30414
  Beta virt. eigenvalues --    0.30833   0.32553   0.34812   0.41513   0.51490
  Beta virt. eigenvalues --    0.68724   0.72805   0.75221   0.86280   0.88921

 Mulliken charges and spin densities:
               1          2
     1  C   -0.484722  -0.084533
     2  C   -0.443010   0.835653
     3  N   -0.544968   1.678227
     4  H    0.179621   0.008208
     5  H    0.179621   0.008209
     6  H    0.172137   0.035477
     7  H    0.182827  -0.048963
     8  H    0.182825  -0.048963
     9  H    0.251146  -0.294417
    10  H    0.324524  -0.088898
 Sum of Mulliken charges =   0.00000   2.00000

 Dipole moment (field-independent basis, Debye):
    X=             -0.7707    Y=              1.8791    Z=              0.0002  Tot=              2.0310
 Quadrupole moment (field-independent basis, Debye-Ang):
   XX=            -21.3631   YY=            -22.1828   ZZ=            -20.8207
   XY=              4.0522   XZ=              0.0004   YZ=             -0.0001

  Exact polarizability:  52.373  -5.094  30.518   0.000   0.000  25.275
 Approx polarizability:  30.772  -2.194  24.369   0.000   0.000  21.085

 ******    1 imaginary frequencies (negative Signs) ******

                      1                      2                      3
                      A                      A                      A
 Frequencies --  -2818.2567                60.8604               146.8841
 Red. masses --      1.0663                 1.0894                 2.8692
 Frc consts  --      4.9899                 0.0024                 0.0365
 IR Inten    --   2728.9769               101.1241                 6.2423
 Raman Activ --   1954.8966                 6.4698                 3.1377

                      4                      5                      6
                      A                      A                      A
 Frequencies --    178.4767               477.3436               486.1448
 Red. masses --      1.0941                 3.0014                 1.0622
 Frc consts  --      0.0205                 0.4029                 0.1479
 IR Inten    --      0.2141                 3.6368                 2.2948
 Raman Activ --      0.8995                19.1584                11.5385

                      7                      8                      9
                      A                      A                      A
 Frequencies --    733.3626               892.1088              1004.7528
 Red. masses --      1.2202                 1.0493                 1.2579
 Frc consts  --      0.3866                 0.4920                 0.7482
 IR Inten    --     25.2477                 4.9999                23.6006
 Raman Activ --      0.7639                 2.2695                10.3279

                     10                     11                     12
                      A                      A                      A
 Frequencies --   1121.7484              1251.5026              1285.4673
 Red. masses --      2.5610                 1.1153                 1.4382
 Frc consts  --      1.8987                 1.0292                 1.4002
 IR Inten    --      6.4557                16.7802                 0.8387
 Raman Activ --     11.9639                 0.2596                 3.7145

                     13                     14                     15
                      A                      A                      A
 Frequencies --   1345.9263              1554.3349              1572.7733
 Red. masses --      1.2996                 1.1940                 1.0530
 Frc consts  --      1.3870                 1.6996                 1.5347
 IR Inten    --      3.8529                11.6083                28.4508
 Raman Activ --      4.4910                34.4923               102.9925

                     16                     17                     18
                      A                      A                      A
 Frequencies --   1610.3679              1636.6457              1637.7885
 Red. masses --      1.1642                 1.0391                 1.0466
 Frc consts  --      1.7787                 1.6399                 1.6540
 IR Inten    --      2.2181                 4.0564                 4.2584
 Raman Activ --     12.5921                22.7252                15.5995

                     19                     20                     21
                      A                      A                      A
 Frequencies --   3187.7814              3249.0928              3259.6875
 Red. masses --      1.0444                 1.0863                 1.0597
 Frc consts  --      6.2529                 6.7563                 6.6343
 IR Inten    --     40.1759                12.8826                40.4430
 Raman Activ --    172.6920               130.4563                93.7821

                     22                     23                     24
                      A                      A                      A
 Frequencies --   3275.8029              3333.8003              3572.3755
 Red. masses --      1.1043                 1.1121                 1.0736
 Frc consts  --      6.9816                 7.2825                 8.0726
 IR Inten    --     20.2414                44.2202                11.4494
 Raman Activ --     87.5420                47.9628               132.1838

 - Thermochemistry -
 -------------------
 Temperature   298.150 Kelvin.  Pressure   1.00000 Atm.
 Atom     1 has atomic number  6 and mass  12.00000

 Molecular mass:    45.05785 amu.
 Principal axes and moments of inertia in atomic units:
                           1         2         3
     Eigenvalues --    69.57170 357.77767 404.68892
           X            0.99929   0.03780   0.00000
           Y           -0.03780   0.99929   0.00000
           Z           -0.00000  -0.00000   1.00000
 This molecule is an asymmetric top.
 Rotational symmetry number  1.
 Rotational temperatures (Kelvin)      1.24496     0.24209     0.21403
 Rotational constants (GHZ):          25.94074     5.04431     4.45958
    1 imaginary frequencies ignored.
 Zero-point vibrational energy     220561.7 (Joules/Mol)
                                   52.71550 (Kcal/Mol)
 Warning -- explicit consideration of   5 degrees of freedom as
           vibrations may cause significant error
 Vibrational temperatures:     87.56   211.33   256.79   686.79   699.45
          (Kelvin)           1055.15  1283.55  1445.62  1613.95  1800.63
                             1849.50  1936.49  2236.34  2262.87  2316.96
                             2354.77  2356.41  4586.51  4674.72  4689.96
                             4713.15  4796.60  5139.85

 Zero-point correction=                           0.084007 (Hartree/Particle)
 Thermal correction to Energy=                    0.089638
 Thermal correction to Enthalpy=                  0.090582
 Thermal correction to Gibbs Free Energy=         0.054980
 Sum of electronic and zero-point Energies=           -134.039566
 Sum of electronic and thermal Energies=              -134.033936
 Sum of electronic and thermal Enthalpies=            -134.032991
 Sum of electronic and thermal Free Energies=         -134.068594

                     E (Thermal)             CV                S
                      KCal/Mol        Cal/Mol-Kelvin    Cal/Mol-Kelvin
 Total                   56.249             16.921             74.932
 Electronic               0.000              0.000              2.183
 Translational            0.889              2.981             37.342
 Rotational               0.889              2.981             23.825
 Vibrational             54.471             10.959             11.582
 Vibration     1          0.597              1.973              4.429
 Vibration     2          0.617              1.906              2.712
 Vibration     3          0.629              1.869              2.344
 Vibration     4          0.834              1.300              0.717
 Vibration     5          0.842              1.281              0.694

 Optimization completed.
    -- Stationary point found.
 Normal termination of Gaussian 16 at Wed Oct  7 12:45:05 2020.
