 Gaussian 16, Revision A.03,

 ----------------------------------------------------------------------
 #P Opt(TS,MaxCyc=50,NoEigenTest,MaxStep=10,AddRedundant) HF/6-31G* 5D
 7F Integral=UltraFineGrid SCF=(NoSymm,XQC,MaxCyc=120) IOp(1/33=1)
 ----------------------------------------------------------------------

 TstMul:  Mul=     1
 TstMul:  ICh=     0
 TstMul:  Mul=     1
 Symbolic Z-matrix:
 Charge =  0 Multiplicity = 1

 SCF Done:  E(RHF) =  -193.861562204     A.U. after   14 cycles
 SCF Done:  E(RHF) =  -193.862040555     A.U. after   12 cycles
 SCF Done:  E(RHF) =  -193.862061788     A.U. after   11 cycles
 SCF Done:  E(RHF) =  -193.862049589     A.U. after   11 cycles
 SCF Done:  E(RHF) =  -193.862012184     A.U. after   11 cycles
 SCF Done:  E(RHF) =  -193.862018151     A.U. after   12 cycles
 SCF Done:  E(RHF) =  -193.862044047     A.U. after   12 cycles
 SCF Done:  E(RHF) =  -193.862141488     A.U. after   13 cycles
 SCF Done:  E(RHF) =  -193.862162485     A.U. after   13 cycles
 SCF Done:  E(RHF) =  -193.862170240     A.U. after   12 cycles
 SCF Done:  E(RHF) =  -193.862172605     A.U. after   10 cycles
 SCF Done:  E(RHF) =  -193.862173343     A.U. after   10 cycles
 SCF Done:  E(RHF) =  -193.862173531     A.U. after    9 cycles
 Optimization completed.
    -- Stationary point found.
 Normal termination of Gaussian 16 at Wed Oct  7 12:41:59 2020.
 Gaussian 16:  ES64L-G16RevA.03 25-Dec-2016

 ----------------------------------------------------------------------
 #P Freq HF/6-31G* 5D 7F Integral=UltraFineGrid SCF=(NoSymm,XQC,MaxCyc=
 120) IOp(1/33=1) Geom=Check Guess=Read
 ----------------------------------------------------------------------

 TstMul:  Mul=     1
 TstMul:  ICh=     0
 TstMul:  Mul=     1
 Structure from the checkpoint file:  "MN_96_RKT22_BH76_HF_631Gs.chk"
 Charge =  0 Multiplicity = 1

                         Standard orientation:
 ---------------------------------------------------------------------
 Center     Atomic      Atomic             Coordinates (Angstroms)
 Number     Number       Type             X           Y           Z
 ---------------------------------------------------------------------
      1          6           0       -1.313427   -0.898491   -0.019988
      2          6           0       -1.202396    0.502941   -0.013651
      3          6           0        0.000192    1.173845    0.152186
      4          6           0        1.202659    0.502658   -0.013711
      5          6           0        1.313155   -0.898708   -0.019801
      6          1           0        2.189596   -1.309748   -0.499205
      7          1           0        1.041785   -1.451548    0.862830
      8          1           0        2.028162    1.086205   -0.387678
      9          1           0        0.000318    2.247194    0.082518
     10          1           0       -2.027949    1.086831   -0.386976
     11          1           0       -2.190200   -1.308950   -0.499312
     12          1           0       -0.000292   -1.191893   -0.545041
     13          1           0       -1.042516   -1.451559    0.862652
 ---------------------------------------------------------------------

 SCF Done:  E(RHF) =  -193.862173531     A.U. after    1 cycles

 The electronic state is 1-A.
 Alpha  occ. eigenvalues --  -11.23591 -11.23587 -11.22047 -11.22030 -11.22029
 Alpha  occ. eigenvalues --   -1.11512  -1.00747  -0.94006  -0.80713  -0.72512
 Alpha  occ. eigenvalues --   -0.67645  -0.59146  -0.57854  -0.56801  -0.52915
 Alpha  occ. eigenvalues --   -0.51582  -0.49586  -0.34814  -0.30216
 Alpha virt. eigenvalues --    0.12111   0.18236   0.24068   0.27530   0.29334
 Alpha virt. eigenvalues --    0.32749   0.34142   0.34819   0.38516   0.39874
 Alpha virt. eigenvalues --    0.44918   0.47427   0.52526   0.60717   0.69779

 Mulliken charges:
               1
     1  C   -0.546970
     2  C   -0.112644
     3  C   -0.223706
     4  C   -0.112615
     5  C   -0.546952
     6  H    0.180271
     7  H    0.214940
     8  H    0.193918
     9  H    0.186680
    10  H    0.193919
    11  H    0.180253
    12  H    0.177999
    13  H    0.214906
 Sum of Mulliken charges =  -0.00000

 Dipole moment (field-independent basis, Debye):
    X=             -0.0001    Y=              0.1433    Z=             -0.1086  Tot=              0.1799
 Quadrupole moment (field-independent basis, Debye-Ang):
   XX=            -30.3722   YY=            -30.3402   ZZ=            -34.4583
   XY=             -0.0003   XZ=             -0.0015   YZ=             -1.5510

  Exact polarizability:  71.506   0.002  61.101  -0.001  -0.479  28.484
 Approx polarizability:  68.029   0.004  58.572   0.001   1.787  29.477

 ******    1 imaginary frequencies (negative Signs) ******

                      1                      2                      3
                      A                      A                      A
 Frequencies --  -2065.6442               298.1699               494.8592
 Red. masses --      1.2129                 2.1503                 2.7622
 Frc consts  --      3.0493                 0.1126                 0.3985
 IR Inten    --     14.3366                 0.5268                 1.2665
 Raman Activ --     25.4124                 3.5598                 6.1511

                      4                      5                      6
                      A                      A                      A
 Frequencies --    549.0411               590.0692               684.1189
 Red. masses --      2.2140                 3.5256                 1.2765
 Frc consts  --      0.3932                 0.7233                 0.3520
 IR Inten    --      5.6974                 4.2301                28.7394
 Raman Activ --     10.8965                 5.7013                 3.1492

                      7                      8                      9
                      A                      A                      A
 Frequencies --    804.7331               893.3479               902.1465
 Red. masses --      2.0227                 1.2330                 1.2426
 Frc consts  --      0.7718                 0.5798                 0.5959
 IR Inten    --     15.0601                 2.7052                61.1882
 Raman Activ --      2.0730                 4.2968                 9.1418

                     10                     11                     12
                      A                      A                      A
 Frequencies --   1060.0885              1089.8186              1098.6248
 Red. masses --      1.8041                 1.6871                 1.2465
 Frc consts  --      1.1945                 1.1806                 0.8864
 IR Inten    --     19.7407                11.8117                 0.0808
 Raman Activ --     16.4449                15.0745                 4.3939

                     13                     14                     15
                      A                      A                      A
 Frequencies --   1114.1994              1133.0561              1193.0027
 Red. masses --      1.4472                 1.4422                 1.3149
 Frc consts  --      1.0585                 1.0909                 1.1026
 IR Inten    --      0.7835                15.4175                 1.2734
 Raman Activ --     12.5722                 2.8720                 0.6373

                     16                     17                     18
                      A                      A                      A
 Frequencies --   1237.3474              1282.5268              1361.7077
 Red. masses --      1.5523                 1.2060                 1.5341
 Frc consts  --      1.4003                 1.1687                 1.6760
 IR Inten    --      3.2695                 4.4818                 9.2785
 Raman Activ --      9.1826                 6.8156                28.0190

                     19                     20                     21
                      A                      A                      A
 Frequencies --   1382.0307              1517.9946              1569.3883
 Red. masses --      1.2635                 1.0854                 1.3327
 Frc consts  --      1.4218                 1.4736                 1.9340
 IR Inten    --     18.7834                12.7775                 1.4271
 Raman Activ --      2.5024                 8.8229                 9.9338

                     22                     23                     24
                      A                      A                      A
 Frequencies --   1591.8362              1670.9146              1671.8000
 Red. masses --      1.0698                 1.3132                 1.4181
 Frc consts  --      1.5971                 2.1602                 2.3352
 IR Inten    --      1.7777                 2.5852                 0.0266
 Raman Activ --     14.6795                10.4930                 5.0956

                     25                     26                     27
                      A                      A                      A
 Frequencies --   1693.6976              1750.1887              3287.6776
 Red. masses --      4.1281                 2.0595                 1.0591
 Frc consts  --      6.9771                 3.7170                 6.7449
 IR Inten    --     29.4759                 6.4378                21.5487
 Raman Activ --     71.5555                 1.1864                85.4444

                     28                     29                     30
                      A                      A                      A
 Frequencies --   3289.7508              3329.2834              3334.6283
 Red. masses --      1.0611                 1.0877                 1.0936
 Frc consts  --      6.7659                 7.1035                 7.1647
 IR Inten    --     32.3605                 0.3244                18.9104
 Raman Activ --    121.9068               122.9597                71.8856

                     31                     32                     33
                      A                      A                      A
 Frequencies --   3353.2523              3362.1960              3368.9190
 Red. masses --      1.1115                 1.1055                 1.0974
 Frc consts  --      7.3639                 7.3632                 7.3385
 IR Inten    --     33.1153                16.3902                34.7236
 Raman Activ --     38.0195               111.1100               155.1285

 - Thermochemistry -
 -------------------
 Temperature   298.150 Kelvin.  Pressure   1.00000 Atm.
 Atom     1 has atomic number  6 and mass  12.00000

 Molecular mass:    68.06260 amu.
 Principal axes and moments of inertia in atomic units:
                           1         2         3
     Eigenvalues --   219.29394 353.96337 552.72659
           X            1.00000   0.00000  -0.00001
           Y           -0.00000   0.99978  -0.02116
           Z            0.00001   0.02116   0.99978
 This molecule is an asymmetric top.
 Rotational symmetry number  1.
 Rotational temperatures (Kelvin)      0.39497     0.24470     0.15670
 Rotational constants (GHZ):           8.22978     5.09867     3.26516
    1 imaginary frequencies ignored.
 Zero-point vibrational energy     310792.3 (Joules/Mol)
                                   74.28114 (Kcal/Mol)
 Warning -- explicit consideration of   4 degrees of freedom as
           vibrations may cause significant error
 Vibrational temperatures:    429.00   711.99   789.95   848.98   984.29
          (Kelvin)           1157.83  1285.33  1297.99  1525.23  1568.01
                             1580.68  1603.08  1630.21  1716.46  1780.27
                             1845.27  1959.19  1988.43  2184.06  2258.00
                             2290.30  2404.07  2405.35  2436.85  2518.13
                             4730.23  4733.22  4790.10  4797.79  4824.58
                             4837.45  4847.12

 Zero-point correction=                           0.118375 (Hartree/Particle)
 Thermal correction to Energy=                    0.122725
 Thermal correction to Enthalpy=                  0.123669
 Thermal correction to Gibbs Free Energy=         0.091232
 Sum of electronic and zero-point Energies=           -193.743799
 Sum of electronic and thermal Energies=              -193.739449
 Sum of electronic and thermal Enthalpies=            -193.738505
 Sum of electronic and thermal Free Energies=         -193.770941

                     E (Thermal)             CV                S
                      KCal/Mol        Cal/Mol-Kelvin    Cal/Mol-Kelvin
 Total                   77.011             16.125             68.269
 Electronic               0.000              0.000              0.000
 Translational            0.889              2.981             38.571
 Rotational               0.889              2.981             25.265
 Vibrational             75.233             10.163              4.433
 Vibration     1          0.691              1.677              1.427
 Vibration     2          0.850              1.261              0.671
 Vibration     3          0.904              1.142              0.546
 Vibration     4          0.947              1.053              0.467

 Optimization completed.
    -- Stationary point found.
 Normal termination of Gaussian 16 at Wed Oct  7 12:42:32 2020.
