 Gaussian 16, Revision A.03,

 ----------------------------------------------------------------------
 #P Opt(TS,MaxCyc=50,NoEigenTest,MaxStep=10,AddRedundant) HF/6-31G* 5D
 7F Integral=UltraFineGrid SCF=(NoSymm,XQC,MaxCyc=120) IOp(1/33=1)
 ----------------------------------------------------------------------

 TstMul:  Mul=     2
 TstMul:  ICh=     0
 TstMul:  Mul=     2
 Symbolic Z-matrix:
 Charge =  0 Multiplicity = 2

 SCF Done:  E(UHF) =  -399.144456765     A.U. after   15 cycles
 SCF Done:  E(UHF) =  -399.144722273     A.U. after   13 cycles
 SCF Done:  E(UHF) =  -399.145366538     A.U. after   13 cycles
 SCF Done:  E(UHF) =  -399.144432445     A.U. after   13 cycles
 SCF Done:  E(UHF) =  -399.143596747     A.U. after   14 cycles
 SCF Done:  E(UHF) =  -399.143271329     A.U. after   14 cycles
 SCF Done:  E(UHF) =  -399.143299221     A.U. after   12 cycles
 SCF Done:  E(UHF) =  -399.143299737     A.U. after   11 cycles
 Optimization completed.
    -- Stationary point found.
 Normal termination of Gaussian 16 at Wed Oct  7 12:40:06 2020.
 Gaussian 16:  ES64L-G16RevA.03 25-Dec-2016

 ----------------------------------------------------------------------
 #P Freq HF/6-31G* 5D 7F Integral=UltraFineGrid SCF=(NoSymm,XQC,MaxCyc=
 120) IOp(1/33=1) Geom=Check Guess=Read
 ----------------------------------------------------------------------

 TstMul:  Mul=     2
 TstMul:  ICh=     0
 TstMul:  Mul=     2
 Structure from the checkpoint file:  "MN_90_RKT16_BH76_HF_631Gs.chk"
 Charge =  0 Multiplicity = 2

                         Standard orientation:
 ---------------------------------------------------------------------
 Center     Atomic      Atomic             Coordinates (Angstroms)
 Number     Number       Type             X           Y           Z
 ---------------------------------------------------------------------
      1          1           0        1.269613   -0.168721    0.000000
      2         16           0        0.000000    0.221906    0.000000
      3          1           0       -0.489347   -1.182284    0.000000
      4          1           0       -0.780265   -2.199495    0.000000
 ---------------------------------------------------------------------

 SCF Done:  E(UHF) =  -399.143299737     A.U. after    1 cycles

 The electronic state is 2-A'.
 Alpha  occ. eigenvalues --  -91.95268  -8.97176  -6.66158  -6.65105  -6.64777
 Alpha  occ. eigenvalues --   -0.99841  -0.66199  -0.53812  -0.41511  -0.39171
 Alpha virt. eigenvalues --    0.17353   0.23760   0.47572   0.50364   0.53030
 Alpha virt. eigenvalues --    0.53109   0.89815   0.95039   0.98300   1.00372
 Alpha virt. eigenvalues --    1.02197   1.16750   1.28138   1.47206
  Beta  occ. eigenvalues --  -91.94726  -8.96596  -6.64849  -6.64457  -6.63812
  Beta  occ. eigenvalues --   -0.95411  -0.59730  -0.50407  -0.38009
  Beta virt. eigenvalues --    0.02544   0.18845   0.27010   0.48255   0.51243
  Beta virt. eigenvalues --    0.53591   0.59008   0.93690   1.02513   1.02741
  Beta virt. eigenvalues --    1.04675   1.05159   1.17062   1.30354   1.47895

 Mulliken charges and spin densities:
               1          2
     1  H    0.114323  -0.012630
     2  S   -0.103290   0.523182
     3  H   -0.081977  -0.315827
     4  H    0.070945   0.805275
 Sum of Mulliken charges =  -0.00000   1.00000

 Dipole moment (field-independent basis, Debye):
    X=              0.7341    Y=             -1.0787    Z=              0.0000  Tot=              1.3048
 Quadrupole moment (field-independent basis, Debye-Ang):
   XX=            -13.9921   YY=            -15.0848   ZZ=            -18.0930
   XY=              0.4528   XZ=              0.0000   YZ=              0.0000

  Exact polarizability:  18.731   6.358  32.324  -0.000  -0.000  10.943
 Approx polarizability:  15.189   3.394  22.454   0.000  -0.000   9.329

 ******    1 imaginary frequencies (negative Signs) ******

                      1                      2                      3
                     A'                     A'                     A"
 Frequencies --  -2325.8365               596.7999               790.8911
 Red. masses --      1.0131                 1.0207                 1.0123
 Frc consts  --      3.2291                 0.2142                 0.3731
 IR Inten    --     75.4652                 4.3307                 0.5701
 Raman Activ --    316.9140                42.2738                21.8759

                      4                      5                      6
                     A'                     A'                     A'
 Frequencies --   1223.9517              1280.9069              2905.2723
 Red. masses --      1.0775                 1.0177                 1.0385
 Frc consts  --      0.9511                 0.9838                 5.1644
 IR Inten    --      1.6757                 9.5328                12.0163
 Raman Activ --     53.3308                34.0198               171.8290

 - Thermochemistry -
 -------------------
 Temperature   298.150 Kelvin.  Pressure   1.00000 Atm.
 Atom     1 has atomic number  1 and mass   1.00783

 Molecular mass:    34.99555 amu.
 Principal axes and moments of inertia in atomic units:
                           1         2         3
     Eigenvalues --     6.15248  29.60646  35.75894
           X            0.33940   0.94064   0.00000
           Y            0.94064  -0.33940   0.00000
           Z            0.00000   0.00000   1.00000
 This molecule is an asymmetric top.
 Rotational symmetry number  1.
 Rotational temperatures (Kelvin)     14.07789     2.92551     2.42216
 Rotational constants (GHZ):         293.33557    60.95768    50.46965
    1 imaginary frequencies ignored.
 Zero-point vibrational energy      40660.0 (Joules/Mol)
                                    9.71797 (Kcal/Mol)
 Warning -- explicit consideration of   1 degrees of freedom as
           vibrations may cause significant error
 Vibrational temperatures:    858.66  1137.92  1760.99  1842.94  4180.04
          (Kelvin)

 Zero-point correction=                           0.015487 (Hartree/Particle)
 Thermal correction to Energy=                    0.018589
 Thermal correction to Enthalpy=                  0.019533
 Thermal correction to Gibbs Free Energy=        -0.006709
 Sum of electronic and zero-point Energies=           -399.127813
 Sum of electronic and thermal Energies=              -399.124710
 Sum of electronic and thermal Enthalpies=            -399.123766
 Sum of electronic and thermal Free Energies=         -399.150008

                     E (Thermal)             CV                S
                      KCal/Mol        Cal/Mol-Kelvin    Cal/Mol-Kelvin
 Total                   11.665              8.014             55.231
 Electronic               0.000              0.000              1.377
 Translational            0.889              2.981             36.588
 Rotational               0.889              2.981             16.528
 Vibrational              9.887              2.052              0.737
 Vibration     1          0.955              1.039              0.455

 Optimization completed.
    -- Stationary point found.
 Normal termination of Gaussian 16 at Wed Oct  7 12:40:35 2020.
