 Gaussian 16, Revision A.03,
 Gaussian 16:  ES64L-G16RevA.03 25-Dec-2016

 ----------------------------------------------------------------------
 #P Opt(MaxCyc=100) B3LYP/6-31G* 5D 7F Integral=UltraFineGrid SCF=(NoSy
 mm,XQC,MaxCyc=120) IOp(1/33=1) EmpiricalDispersion=GD3BJ
 ----------------------------------------------------------------------

 TstMul:  Mul=     1
 TstMul:  ICh=     0
 TstMul:  Mul=     1
 Symbolic Z-matrix:
 Charge =  0 Multiplicity = 1

 SCF Done:  E(RB3LYP) =  -500.107994291     A.U. after   11 cycles
 SCF Done:  E(RB3LYP) =  -500.108216184     A.U. after    9 cycles
 SCF Done:  E(RB3LYP) =  -500.108225551     A.U. after    7 cycles
 SCF Done:  E(RB3LYP) =  -500.108227469     A.U. after    7 cycles
 Optimization completed.
    -- Stationary point found.

                         Standard orientation:
 ---------------------------------------------------------------------
 Center     Atomic      Atomic             Coordinates (Angstroms)
 Number     Number       Type             X           Y           Z
 ---------------------------------------------------------------------
      1          6           0        0.000000    0.000000   -1.138729
      2         17           0        0.000000    0.000000    0.663903
      3          1           0        0.000000    1.033853   -1.484660
      4          1           0        0.895343   -0.516926   -1.484660
      5          1           0       -0.895343   -0.516926   -1.484660
 ---------------------------------------------------------------------

 The electronic state is 1-A1.
 Alpha  occ. eigenvalues -- -101.51508 -10.23735  -9.44742  -7.21083  -7.20056
 Alpha  occ. eigenvalues --   -7.20056  -0.84862  -0.68024  -0.45247  -0.45247
 Alpha  occ. eigenvalues --   -0.41217  -0.29642  -0.29642
 Alpha virt. eigenvalues --    0.02627   0.10661   0.14271   0.14271   0.40873
 Alpha virt. eigenvalues --    0.44579   0.46110   0.46110   0.52658   0.52658
 Alpha virt. eigenvalues --    0.55595   0.83717   0.83717   0.87676   0.89632

 Mulliken charges:
               1
     1  C   -0.517721
     2  Cl  -0.089251
     3  H    0.202324
     4  H    0.202324
     5  H    0.202324
 Sum of Mulliken charges =  -0.00000

 Dipole moment (field-independent basis, Debye):
    X=              0.0000    Y=             -0.0000    Z=             -2.0802  Tot=              2.0802
 Quadrupole moment (field-independent basis, Debye-Ang):
   XX=            -19.7523   YY=            -19.7523   ZZ=            -17.9533
   XY=             -0.0000   XZ=             -0.0000   YZ=              0.0000

 1\1\GINC-NODE33\FOpt\RB3LYP\6-31G(d)\C1H3Cl1\RPEVERATI\06-Oct-2020\0\\
 #P Opt(MaxCyc=100) B3LYP/6-31G* 5D 7F Integral=UltraFineGrid SCF=(NoSy
 mm,XQC,MaxCyc=120) IOp(1/33=1) EmpiricalDispersion=GD3BJ\\TS search on
  BH76.\\0,1\C,0.,0.,-0.152958601\Cl,0.,0.,1.6496736561\H,-0.5169262623
 ,-0.8953425501,-0.4988890516\H,-0.5169262623,0.8953425501,-0.498889051
 6\H,1.0338525246,0.,-0.4988890516\\Version=ES64L-G16RevA.03\State=1-A1
 \HF=-500.1082275\RMSD=6.454e-09\RMSF=9.510e-06\Dipole=0.,0.,-0.8184232
 \Quadrupole=-0.4458471,-0.4458471,0.8916942,0.,0.,0.\PG=C03V [C3(C1Cl1

 Normal termination of Gaussian 16 at Tue Oct  6 20:14:55 2020.
