 Gaussian 16, Revision A.03,
 Gaussian 16:  ES64L-G16RevA.03 25-Dec-2016

 ----------------------------------------------------------------------
 #P Opt(MaxCyc=100) B3LYP/6-31G* 5D 7F Integral=UltraFineGrid SCF=(NoSy
 mm,XQC,MaxCyc=120) IOp(1/33=1) EmpiricalDispersion=GD3BJ
 ----------------------------------------------------------------------

 TstMul:  Mul=     2
 TstMul:  ICh=     0
 TstMul:  Mul=     2
 Symbolic Z-matrix:
 Charge =  0 Multiplicity = 2

 SCF Done:  E(UB3LYP) =  -118.477754966     A.U. after   14 cycles
 SCF Done:  E(UB3LYP) =  -118.477945201     A.U. after   10 cycles
 SCF Done:  E(UB3LYP) =  -118.477948715     A.U. after    8 cycles
 Optimization completed.
    -- Stationary point found.

                         Standard orientation:
 ---------------------------------------------------------------------
 Center     Atomic      Atomic             Coordinates (Angstroms)
 Number     Number       Type             X           Y           Z
 ---------------------------------------------------------------------
      1          6           0        1.214131   -0.287029    0.000059
      2          6           0       -0.069423    0.576020   -0.000058
      3          6           0       -1.320870   -0.237608   -0.000014
      4          1           0        1.251108   -0.931699    0.885236
      5          1           0        1.251134   -0.931898   -0.884973
      6          1           0        2.110339    0.345332   -0.000001
      7          1           0       -0.048158    1.232007   -0.881062
      8          1           0       -0.048214    1.232194    0.880803
      9          1           0       -1.729802   -0.626805    0.927796
     10          1           0       -1.729431   -0.627431   -0.927726
 ---------------------------------------------------------------------

 The electronic state is 2-A.
 Alpha  occ. eigenvalues --  -10.17733 -10.17706 -10.16752  -0.77778  -0.67111
 Alpha  occ. eigenvalues --   -0.57833  -0.46117  -0.42632  -0.39203  -0.37646
 Alpha  occ. eigenvalues --   -0.34801  -0.33202  -0.19708
 Alpha virt. eigenvalues --    0.10514   0.14064   0.14355   0.15837   0.17856
 Alpha virt. eigenvalues --    0.18025   0.22170   0.23246   0.27606   0.51892
 Alpha virt. eigenvalues --    0.53852   0.53892   0.55591   0.59266   0.60956

  Beta  occ. eigenvalues --  -10.17817 -10.16595 -10.16309  -0.76746  -0.65252
  Beta  occ. eigenvalues --   -0.56464  -0.45687  -0.42073  -0.38707  -0.36476
  Beta  occ. eigenvalues --   -0.34271  -0.32995
  Beta virt. eigenvalues --   -0.03746   0.10897   0.14539   0.15277   0.16042
  Beta virt. eigenvalues --    0.18126   0.18260   0.22588   0.23739   0.28469
  Beta virt. eigenvalues --    0.52396   0.54034   0.55819   0.57284   0.61230

 Mulliken charges and spin densities:
               1          2
     1  C   -0.430938   0.049807
     2  C   -0.257995  -0.074616
     3  C   -0.300580   1.087374
     4  H    0.144599  -0.000716
     5  H    0.144597  -0.000718
     6  H    0.140795   0.013890
     7  H    0.139922   0.013061
     8  H    0.139919   0.013036
     9  H    0.139843  -0.050559
    10  H    0.139838  -0.050558
 Sum of Mulliken charges =  -0.00000   1.00000

 Dipole moment (field-independent basis, Debye):
    X=              0.2358    Y=             -0.0192    Z=              0.0001  Tot=              0.2366
 Quadrupole moment (field-independent basis, Debye-Ang):
   XX=            -21.5854   YY=            -21.0863   ZZ=            -19.9071
   XY=              0.7346   XZ=             -0.0005   YZ=              0.0004

 1\1\GINC-NODE51\FOpt\UB3LYP\6-31G(d)\C3H7(2)\RPEVERATI\06-Oct-2020\0\\
 #P Opt(MaxCyc=100) B3LYP/6-31G* 5D 7F Integral=UltraFineGrid SCF=(NoSy
 mm,XQC,MaxCyc=120) IOp(1/33=1) EmpiricalDispersion=GD3BJ\\TS search on
  BH76.\\0,2\C,1.2112331693,-0.2889196207,0.0000587814\C,-0.0701172196,
 0.577398207,-0.0000580272\C,-1.3236340701,-0.2330376385,-0.0000139578\
 H,1.2465674244,-0.9336818603,0.8852360858\H,1.2465923227,-0.9338801625
 ,-0.884973744\H,2.1090496026,0.3411552121,-0.0000012643\H,-0.047180109
 8,1.2333286004,-0.881062528\H,-0.047236295,1.2335162261,0.8808030132\H

 Normal termination of Gaussian 16 at Tue Oct  6 20:14:31 2020.
