 Gaussian 16, Revision A.03,

 ----------------------------------------------------------------------
 #P Opt(TS,MaxCyc=50,NoEigenTest,MaxStep=10,CalcFC) B3LYP/6-31G* 5D 7F
 Integral=UltraFineGrid SCF=(NoSymm,XQC,MaxCyc=120) IOp(1/33=1) Empiric
 alDispersion=GD3BJ
 ----------------------------------------------------------------------

 TstMul:  Mul=     2
 TstMul:  ICh=     0
 TstMul:  Mul=     2
 Symbolic Z-matrix:
 Charge =  0 Multiplicity = 2

 SCF Done:  E(UB3LYP) =  -118.426168233     A.U. after   17 cycles
 SCF Done:  E(UB3LYP) =  -118.425762027     A.U. after   15 cycles
 SCF Done:  E(UB3LYP) =  -118.425595955     A.U. after   14 cycles
 SCF Done:  E(UB3LYP) =  -118.425586626     A.U. after   11 cycles
 SCF Done:  E(UB3LYP) =  -118.425586429     A.U. after   10 cycles
 Optimization completed.
    -- Stationary point found.
 Normal termination of Gaussian 16 at Tue Oct  6 20:45:04 2020.
 Gaussian 16:  ES64L-G16RevA.03 25-Dec-2016

 ----------------------------------------------------------------------
 #P Freq B3LYP/6-31G* 5D 7F Integral=UltraFineGrid SCF=(NoSymm,XQC,MaxC
 yc=120) IOp(1/33=1) EmpiricalDispersion=GD3BJ Geom=Check Guess=Read
 ----------------------------------------------------------------------

 TstMul:  Mul=     2
 TstMul:  ICh=     0
 TstMul:  Mul=     2
 Structure from the checkpoint file:  "MN_17_c3h7ts_BH76_B3LYP_631Gs.chk"
 Charge =  0 Multiplicity = 2

                         Standard orientation:
 ---------------------------------------------------------------------
 Center     Atomic      Atomic             Coordinates (Angstroms)
 Number     Number       Type             X           Y           Z
 ---------------------------------------------------------------------
      1          6           0       -0.523765    0.647676   -0.000000
      2          6           0       -1.410739   -0.374973    0.000000
      3          1           0       -0.262752    1.161462   -0.920402
      4          1           0       -0.262753    1.161463    0.920401
      5          1           0       -1.758628   -0.827837    0.924517
      6          1           0       -1.758627   -0.827838   -0.924517
      7          6           0        1.684105   -0.234193    0.000000
      8          1           0        2.240750    0.697823   -0.000018
      9          1           0        1.652197   -0.798081   -0.925250
     10          1           0        1.652208   -0.798053    0.925268
 ---------------------------------------------------------------------

 SCF Done:  E(UB3LYP) =  -118.425586429     A.U. after    1 cycles

 The electronic state is 2-A.
 Alpha  occ. eigenvalues --  -10.18008 -10.17537 -10.17205  -0.75288  -0.67236
 Alpha  occ. eigenvalues --   -0.57586  -0.46166  -0.41633  -0.40332  -0.39949
 Alpha  occ. eigenvalues --   -0.35095  -0.29073  -0.18351
 Alpha virt. eigenvalues --    0.03676   0.10261   0.13984   0.14393   0.16893
 Alpha virt. eigenvalues --    0.18447   0.18520   0.24391   0.33032   0.46320
 Alpha virt. eigenvalues --    0.53238   0.53790   0.55831   0.60295   0.60307

  Beta  occ. eigenvalues --  -10.18264 -10.16647 -10.16259  -0.74722  -0.64068
  Beta  occ. eigenvalues --   -0.57071  -0.45985  -0.41205  -0.39496  -0.39254
  Beta  occ. eigenvalues --   -0.34942  -0.26406
  Beta virt. eigenvalues --   -0.04857   0.05766   0.10867   0.14448   0.14714
  Beta virt. eigenvalues --    0.17160   0.19071   0.19157   0.24490   0.33249
  Beta virt. eigenvalues --    0.46854   0.53626   0.55574   0.57927   0.60673

 Mulliken charges and spin densities:
               1          2
     1  C   -0.262911  -0.216549
     2  C   -0.290754   0.422591
     3  H    0.149497   0.012209
     4  H    0.149497   0.012209
     5  H    0.137191  -0.020352
     6  H    0.137191  -0.020352
     7  C   -0.484205   0.917112
     8  H    0.150817  -0.033610
     9  H    0.156838  -0.036629
    10  H    0.156838  -0.036629
 Sum of Mulliken charges =  -0.00000   1.00000

 Dipole moment (field-independent basis, Debye):
    X=              0.1670    Y=              0.0809    Z=              0.0000  Tot=              0.1855
 Quadrupole moment (field-independent basis, Debye-Ang):
   XX=            -22.0266   YY=            -20.3676   ZZ=            -19.3077
   XY=              1.3926   XZ=             -0.0000   YZ=              0.0000

  Exact polarizability:  51.050   7.167  31.742  -0.000  -0.000  30.858
 Approx polarizability:  69.559  13.719  43.747  -0.000   0.000  39.683

 ******    1 imaginary frequencies (negative Signs) ******

                      1                      2                      3
                      A                      A                      A
 Frequencies --   -353.2797                91.0734               212.2502
 Red. masses --      9.7989                 1.0897                 2.4893
 Frc consts  --      0.7206                 0.0053                 0.0661
 IR Inten    --      0.6398                 0.0103                 0.7527

                      4                      5                      6
                      A                      A                      A
 Frequencies --    342.7010               464.5683               487.4892
 Red. masses --      1.0586                 1.1137                 1.0958
 Frc consts  --      0.0733                 0.1416                 0.1534
 IR Inten    --      0.2294                 1.8642                 1.0282

                      7                      8                      9
                      A                      A                      A
 Frequencies --    764.0315               827.6144               868.5903
 Red. masses --      1.0677                 1.0432                 1.4087
 Frc consts  --      0.3672                 0.4210                 0.6262
 IR Inten    --      5.1093                 0.6748                34.4197

                     10                     11                     12
                      A                      A                      A
 Frequencies --    944.1157              1030.1419              1247.9680
 Red. masses --      1.1678                 1.0201                 1.4929
 Frc consts  --      0.6133                 0.6378                 1.3699
 IR Inten    --     41.7894                 0.0857                 0.0410

                     13                     14                     15
                      A                      A                      A
 Frequencies --   1332.6604              1444.7465              1450.4892
 Red. masses --      1.5694                 1.0950                 1.0943
 Frc consts  --      1.6422                 1.3467                 1.3565
 IR Inten    --      0.7072                 1.7706                 1.4638

                     16                     17                     18
                      A                      A                      A
 Frequencies --   1490.5959              1622.6949              3127.0115
 Red. masses --      1.1131                 1.9699                 1.0121
 Frc consts  --      1.4571                 3.0562                 5.8311
 IR Inten    --      4.1196                 0.1995                 0.1669

                     19                     20                     21
                      A                      A                      A
 Frequencies --   3160.2750              3170.6134              3232.6387
 Red. masses --      1.0489                 1.0645                 1.1154
 Frc consts  --      6.1719                 6.3049                 6.8677
 IR Inten    --     14.8512                 1.3032                 0.8128

                     22                     23                     24
                      A                      A                      A
 Frequencies --   3258.3970              3282.5667              3293.9037
 Red. masses --      1.1180                 1.1158                 1.1161
 Frc consts  --      6.9937                 7.0838                 7.1348
 IR Inten    --     25.5005                11.0700                12.0723

 - Thermochemistry -
 -------------------
 Temperature   298.150 Kelvin.  Pressure   1.00000 Atm.
 Atom     1 has atomic number  6 and mass  12.00000

 Molecular mass:    43.05478 amu.
 Principal axes and moments of inertia in atomic units:
                           1         2         3
     Eigenvalues --    65.65906 297.36704 326.20140
           X            0.99983   0.01866  -0.00000
           Y           -0.01866   0.99983   0.00000
           Z            0.00000  -0.00000   1.00000
 This molecule is an asymmetric top.
 Rotational symmetry number  1.
 Rotational temperatures (Kelvin)      1.31915     0.29127     0.26552
 Rotational constants (GHZ):          27.48655     6.06907     5.53260
    1 imaginary frequencies ignored.
 Zero-point vibrational energy     222189.2 (Joules/Mol)
                                   53.10450 (Kcal/Mol)
 Warning -- explicit consideration of   5 degrees of freedom as
           vibrations may cause significant error
 Vibrational temperatures:    131.03   305.38   493.07   668.41   701.39
          (Kelvin)           1099.27  1190.75  1249.71  1358.37  1482.14
                             1795.55  1917.40  2078.67  2086.93  2144.64
                             2334.70  4499.07  4546.93  4561.81  4651.05
                             4688.11  4722.88  4739.19

 Zero-point correction=                           0.084627 (Hartree/Particle)
 Thermal correction to Energy=                    0.089952
 Thermal correction to Enthalpy=                  0.090896
 Thermal correction to Gibbs Free Energy=         0.057092
 Sum of electronic and zero-point Energies=           -118.340959
 Sum of electronic and thermal Energies=              -118.335635
 Sum of electronic and thermal Enthalpies=            -118.334691
 Sum of electronic and thermal Free Energies=         -118.368494

                     E (Thermal)             CV                S
                      KCal/Mol        Cal/Mol-Kelvin    Cal/Mol-Kelvin
 Total                   56.445             17.201             71.146
 Electronic               0.000              0.000              1.377
 Translational            0.889              2.981             37.206
 Rotational               0.889              2.981             23.370
 Vibrational             54.668             11.239              9.193
 Vibration     1          0.602              1.956              3.637
 Vibration     2          0.643              1.822              2.024
 Vibration     3          0.722              1.590              1.200
 Vibration     4          0.822              1.329              0.753
 Vibration     5          0.843              1.278              0.690

 Optimization completed.
    -- Stationary point found.

 1\1\GINC-NODE34\Freq\UB3LYP\6-31G(d)\C3H7(2)\RPEVERATI\06-Oct-2020\0\\
 #P Freq B3LYP/6-31G* 5D 7F Integral=UltraFineGrid SCF=(NoSymm,XQC,MaxC
 yc=120) IOp(1/33=1) EmpiricalDispersion=GD3BJ Geom=Check Guess=Read\\T
 S search on BH76.\\0,2\C,-0.5198665884,0.6544383228,-0.0002395668\C,-1
 .418570392,-0.3579179272,0.000172079\H,-0.2529709805,1.1648268855,-0.9
 208443283\H,-0.2529275465,1.1655368502,0.9199586265\H,-1.7716344038,-0
 .8063858371,0.9248704523\H,-1.7716781433,-0.8070988736,-0.9241634365\C
 ,1.6776905473,-0.2528222174,0.0000574134\H,2.2450425539,0.6727147871,-

 Normal termination of Gaussian 16 at Tue Oct  6 20:45:57 2020.
