 Gaussian 16, Revision A.03,
 Gaussian 16:  ES64L-G16RevA.03 25-Dec-2016

 ----------------------------------------------------------------------
 #P Opt(MaxCyc=100) B3LYP/6-31G* 5D 7F Integral=UltraFineGrid SCF=(NoSy
 mm,XQC,MaxCyc=120) IOp(1/33=1) EmpiricalDispersion=GD3BJ
 ----------------------------------------------------------------------

 TstMul:  Mul=     2
 TstMul:  ICh=     0
 TstMul:  Mul=     2
 Symbolic Z-matrix:
 Charge =  0 Multiplicity = 2

 SCF Done:  E(UB3LYP) =  -79.1608573041     A.U. after   13 cycles
 SCF Done:  E(UB3LYP) =  -79.1610104140     A.U. after    9 cycles
 SCF Done:  E(UB3LYP) =  -79.1610144871     A.U. after    9 cycles
 Optimization completed.
    -- Stationary point found.

                         Standard orientation:
 ---------------------------------------------------------------------
 Center     Atomic      Atomic             Coordinates (Angstroms)
 Number     Number       Type             X           Y           Z
 ---------------------------------------------------------------------
      1          6           0       -0.011192   -0.694456    0.000000
      2          6           0       -0.011192    0.795590   -0.000000
      3          1           0        1.013003   -1.109424    0.000000
      4          1           0       -0.510831   -1.101112    0.887920
      5          1           0       -0.510831   -1.101112   -0.887920
      6          1           0        0.071479    1.352421   -0.927982
      7          1           0        0.071479    1.352421    0.927982
 ---------------------------------------------------------------------

 The electronic state is 2-A'.
 Alpha  occ. eigenvalues --  -10.17867 -10.17218  -0.75080  -0.60476  -0.44632
 Alpha  occ. eigenvalues --   -0.40943  -0.38635  -0.35452  -0.19608
 Alpha virt. eigenvalues --    0.11565   0.13974   0.14860   0.17749   0.21994
 Alpha virt. eigenvalues --    0.26107   0.51372   0.53947   0.55226   0.61582
 Alpha virt. eigenvalues --    0.61662   0.74305   0.79636   0.86806   0.87587

  Beta  occ. eigenvalues --  -10.17311 -10.16457  -0.73398  -0.58052  -0.43995
  Beta  occ. eigenvalues --   -0.39472  -0.37822  -0.35022
  Beta virt. eigenvalues --   -0.03355   0.11936   0.15059   0.15308   0.18412
  Beta virt. eigenvalues --    0.22430   0.26957   0.51840   0.54145   0.59717
  Beta virt. eigenvalues --    0.63258   0.64968   0.74913   0.81371   0.87452

 Mulliken charges and spin densities:
               1          2
     1  C   -0.450930  -0.082553
     2  C   -0.296871   1.090930
     3  H    0.155544   0.063774
     4  H    0.153739   0.015119
     5  H    0.153739   0.015119
     6  H    0.142390  -0.051194
     7  H    0.142390  -0.051194
 Sum of Mulliken charges =  -0.00000   1.00000

 Dipole moment (field-independent basis, Debye):
    X=              0.1315    Y=             -0.2162    Z=              0.0000  Tot=              0.2530
 Quadrupole moment (field-independent basis, Debye-Ang):
   XX=            -14.9017   YY=            -13.9841   ZZ=            -13.4229
   XY=              0.1784   XZ=             -0.0000   YZ=              0.0000

 1\1\GINC-NODE42\FOpt\UB3LYP\6-31G(d)\C2H5(2)\RPEVERATI\06-Oct-2020\0\\
 #P Opt(MaxCyc=100) B3LYP/6-31G* 5D 7F Integral=UltraFineGrid SCF=(NoSy
 mm,XQC,MaxCyc=120) IOp(1/33=1) EmpiricalDispersion=GD3BJ\\TS search on
  BH76.\\0,2\C,-0.0111396671,-0.6932041913,0.\C,-0.0133735743,0.7968397
 069,0.\H,1.0136760308,-1.1066366732,0.\H,-0.510168625,-1.1006095595,0.
 8879197323\H,-0.510168625,-1.1006095595,-0.8879197323\H,0.0684621409,1
 .3537937322,-0.9279823396\H,0.0684621409,1.3537937322,0.9279823396\\Ve
 rsion=ES64L-G16RevA.03\State=2-A'\HF=-79.1610145\S2=0.753915\S2-1=0.\S

 Normal termination of Gaussian 16 at Tue Oct  6 20:13:54 2020.
