 Gaussian 16, Revision A.03,

 ----------------------------------------------------------------------
 #P Opt(TS,MaxCyc=50,NoEigenTest,MaxStep=10,AddRedundant) B3LYP/6-31G*
 5D 7F Integral=UltraFineGrid SCF=(NoSymm,XQC,MaxCyc=120) IOp(1/33=1) E
 mpiricalDispersion=GD3BJ
 ----------------------------------------------------------------------

 TstMul:  Mul=     2
 TstMul:  ICh=     0
 TstMul:  Mul=     2
 Symbolic Z-matrix:
 Charge =  0 Multiplicity = 2

 SCF Done:  E(UB3LYP) =  -79.0928473790     A.U. after   17 cycles
 SCF Done:  E(UB3LYP) =  -79.0928731241     A.U. after    9 cycles
 SCF Done:  E(UB3LYP) =  -79.0924348045     A.U. after   15 cycles
 SCF Done:  E(UB3LYP) =  -79.0921350515     A.U. after   15 cycles
 SCF Done:  E(UB3LYP) =  -79.0919264765     A.U. after   14 cycles
 SCF Done:  E(UB3LYP) =  -79.0917881094     A.U. after   15 cycles
 SCF Done:  E(UB3LYP) =  -79.0917002853     A.U. after   15 cycles
 SCF Done:  E(UB3LYP) =  -79.0916461659     A.U. after   13 cycles
 SCF Done:  E(UB3LYP) =  -79.0916123021     A.U. after   13 cycles
 SCF Done:  E(UB3LYP) =  -79.0915888397     A.U. after   13 cycles
 SCF Done:  E(UB3LYP) =  -79.0915691370     A.U. after   14 cycles
 SCF Done:  E(UB3LYP) =  -79.0915696892     A.U. after   10 cycles
 SCF Done:  E(UB3LYP) =  -79.0915696299     A.U. after   10 cycles
 SCF Done:  E(UB3LYP) =  -79.0915696398     A.U. after    9 cycles
 SCF Done:  E(UB3LYP) =  -79.0915700012     A.U. after    9 cycles
 SCF Done:  E(UB3LYP) =  -79.0915505581     A.U. after   15 cycles
 SCF Done:  E(UB3LYP) =  -79.0915495290     A.U. after    9 cycles
 Optimization completed.
    -- Stationary point found.
 Normal termination of Gaussian 16 at Sat Oct 10 10:20:21 2020.
 Gaussian 16:  ES64L-G16RevA.03 25-Dec-2016

 ----------------------------------------------------------------------
 #P Freq B3LYP/6-31G* 5D 7F Integral=UltraFineGrid SCF=(NoSymm,XQC,MaxC
 yc=120) IOp(1/33=1) EmpiricalDispersion=GD3BJ Geom=Check Guess=Read
 ----------------------------------------------------------------------

 TstMul:  Mul=     2
 TstMul:  ICh=     0
 TstMul:  Mul=     2
 Structure from the checkpoint file:  "MN_13_c2h5ts_BH76_B3LYP_631Gs.chk"
 Charge =  0 Multiplicity = 2

                         Standard orientation:
 ---------------------------------------------------------------------
 Center     Atomic      Atomic             Coordinates (Angstroms)
 Number     Number       Type             X           Y           Z
 ---------------------------------------------------------------------
      1          6           0       -0.523002    0.326873    0.000015
      2          6           0        0.742483   -0.096062   -0.000003
      3          1           0       -1.760934   -1.864406   -0.000098
      4          1           0       -1.062423    0.520921    0.923495
      5          1           0       -1.062406    0.521054   -0.923447
      6          1           0        1.284445   -0.281150   -0.924048
      7          1           0        1.284427   -0.281283    0.924026
 ---------------------------------------------------------------------

 SCF Done:  E(UB3LYP) =  -79.0915495290     A.U. after    1 cycles

 The electronic state is 2-A.
 Alpha  occ. eigenvalues --  -10.18306 -10.18230  -0.75992  -0.58231  -0.46887
 Alpha  occ. eigenvalues --   -0.42089  -0.35766  -0.31303  -0.25276
 Alpha virt. eigenvalues --    0.01595   0.11980   0.13786   0.15505   0.24144
 Alpha virt. eigenvalues --    0.32797   0.47737   0.55393   0.56449   0.62617
 Alpha virt. eigenvalues --    0.65534   0.69369   0.83882   0.84526   0.86843

  Beta  occ. eigenvalues --  -10.18309 -10.18110  -0.75808  -0.58112  -0.46838
  Beta  occ. eigenvalues --   -0.41995  -0.35731  -0.27254
  Beta virt. eigenvalues --   -0.06822   0.02369   0.12025   0.13782   0.15553
  Beta virt. eigenvalues --    0.24135   0.32804   0.47721   0.56221   0.56431
  Beta virt. eigenvalues --    0.63466   0.67291   0.70222   0.84529   0.86872

 Mulliken charges and spin densities:
               1          2
     1  C   -0.282825  -0.061134
     2  C   -0.276719   0.107715
     3  H   -0.028308   0.957410
     4  H    0.148519   0.003042
     5  H    0.148519   0.003042
     6  H    0.145407  -0.005037
     7  H    0.145407  -0.005037
 Sum of Mulliken charges =  -0.00000   1.00000

 Dipole moment (field-independent basis, Debye):
    X=              0.2337    Y=              0.2812    Z=              0.0000  Tot=              0.3656
 Quadrupole moment (field-independent basis, Debye-Ang):
   XX=            -13.9253   YY=            -16.3908   ZZ=            -13.3423
   XY=             -1.4018   XZ=             -0.0001   YZ=             -0.0002

  Exact polarizability:  33.858  -0.567  17.707  -0.000  -0.000  20.321
 Approx polarizability:  48.623  -4.750  20.537  -0.000  -0.001  25.185

                      1                      2                      3
                      A                      A                      A
 Frequencies --     82.2644               156.6111               173.4940
 Red. masses --      1.1645                 1.1215                 1.0299
 Frc consts  --      0.0046                 0.0162                 0.0183
 IR Inten    --     13.4273                13.3189                 0.1267

                      4                      5                      6
                      A                      A                      A
 Frequencies --    835.2516               953.3286               976.5615
 Red. masses --      1.0425                 1.4948                 1.1543
 Frc consts  --      0.4285                 0.8004                 0.6486
 IR Inten    --      0.7907                 0.3605                94.2342

                      7                      8                      9
                      A                      A                      A
 Frequencies --   1063.5198              1248.0276              1390.6964
 Red. masses --      1.0079                 1.5228                 1.2570
 Frc consts  --      0.6717                 1.3975                 1.4324
 IR Inten    --      0.0048                 0.0001                 0.9313

                     10                     11                     12
                      A                      A                      A
 Frequencies --   1494.8116              1705.4342              3157.8179
 Red. masses --      1.1120                 2.9412                 1.0479
 Frc consts  --      1.4640                 5.0402                 6.1568
 IR Inten    --      6.0883                 4.7237                14.9201

                     13                     14                     15
                      A                      A                      A
 Frequencies --   3171.5671              3229.6068              3255.3138
 Red. masses --      1.0719                 1.1153                 1.1177
 Frc consts  --      6.3526                 6.8538                 6.9788
 IR Inten    --      1.3041                 0.1250                27.8796

 - Thermochemistry -
 -------------------
 Temperature   298.150 Kelvin.  Pressure   1.00000 Atm.
 Atom     1 has atomic number  6 and mass  12.00000

 Molecular mass:    29.03913 amu.
 Principal axes and moments of inertia in atomic units:
                           1         2         3
     Eigenvalues --    31.44740  79.19195  86.07046
           X            0.99357   0.11323   0.00000
           Y           -0.11323   0.99357  -0.00001
           Z           -0.00000   0.00001   1.00000
 This molecule is an asymmetric top.
 Rotational symmetry number  1.
 Rotational temperatures (Kelvin)      2.75425     1.09372     1.00631
 Rotational constants (GHZ):          57.38920    22.78945    20.96818
 Zero-point vibrational energy     136938.4 (Joules/Mol)
                                   32.72905 (Kcal/Mol)
 Warning -- explicit consideration of   3 degrees of freedom as
           vibrations may cause significant error
 Vibrational temperatures:    118.36   225.33   249.62  1201.74  1371.63
          (Kelvin)           1405.05  1530.17  1795.63  2000.90  2150.70
                             2453.74  4543.40  4563.18  4646.68  4683.67

 Zero-point correction=                           0.052157 (Hartree/Particle)
 Thermal correction to Energy=                    0.057205
 Thermal correction to Enthalpy=                  0.058149
 Thermal correction to Gibbs Free Energy=         0.026424
 Sum of electronic and zero-point Energies=            -79.039392
 Sum of electronic and thermal Energies=               -79.034345
 Sum of electronic and thermal Enthalpies=             -79.033401
 Sum of electronic and thermal Free Energies=          -79.065126

                     E (Thermal)             CV                S
                      KCal/Mol        Cal/Mol-Kelvin    Cal/Mol-Kelvin
 Total                   35.897             13.832             66.771
 Electronic               0.000              0.000              1.377
 Translational            0.889              2.981             36.032
 Rotational               0.889              2.981             20.000
 Vibrational             34.119              7.871              9.362
 Vibration     1          0.600              1.961              3.836
 Vibration     2          0.620              1.895              2.590
 Vibration     3          0.627              1.875              2.397

                           ! Non-Optimized Parameters !

 1\1\GINC-NODE04\Freq\UB3LYP\6-31G(d)\C2H5(2)\RPEVERATI\10-Oct-2020\0\\
 #P Freq B3LYP/6-31G* 5D 7F Integral=UltraFineGrid SCF=(NoSymm,XQC,MaxC
 yc=120) IOp(1/33=1) EmpiricalDispersion=GD3BJ Geom=Check Guess=Read\\T
 S search on BH76.\\0,2\C,-0.520090889,0.0001408117,-0.3473256333\C,0.7
 640679771,0.0000150485,0.0149758286\H,-1.6524602684,-0.0005501002,1.90
 03219753\H,-1.0681177319,0.9236699227,-0.5152710769\H,-1.0681249125,-0
 .9232716705,-0.5158878778\H,1.314206091,-0.9240769523,0.1738494695\H,1
 .3142123508,0.9239968228,0.174467693\\Version=ES64L-G16RevA.03\State=2

 Normal termination of Gaussian 16 at Sat Oct 10 10:20:35 2020.
