 Gaussian 16, Revision A.03,
 Gaussian 16:  ES64L-G16RevA.03 25-Dec-2016

 ----------------------------------------------------------------------
 #P Opt(MaxCyc=100) B3LYP/6-31G* 5D 7F Integral=UltraFineGrid SCF=(NoSy
 mm,XQC,MaxCyc=120) IOp(1/33=1) EmpiricalDispersion=GD3BJ
 ----------------------------------------------------------------------

 TstMul:  Mul=     1
 TstMul:  ICh=     0
 TstMul:  Mul=     1
 Symbolic Z-matrix:
 Charge =  0 Multiplicity = 1

 SCF Done:  E(RB3LYP) =  -195.321147111     A.U. after   13 cycles
 SCF Done:  E(RB3LYP) =  -195.321405004     A.U. after   10 cycles
 SCF Done:  E(RB3LYP) =  -195.321410979     A.U. after    8 cycles
 SCF Done:  E(RB3LYP) =  -195.321411456     A.U. after    7 cycles
 Optimization completed.
    -- Stationary point found.

                         Standard orientation:
 ---------------------------------------------------------------------
 Center     Atomic      Atomic             Coordinates (Angstroms)
 Number     Number       Type             X           Y           Z
 ---------------------------------------------------------------------
      1          6           0       -2.063703   -0.610238    0.000001
      2          6           0       -1.233711    0.639878    0.000050
      3          6           0        0.108635    0.732251    0.000034
      4          6           0        1.060368   -0.369578   -0.000035
      5          6           0        2.391293   -0.201922   -0.000044
      6          1           0       -2.720251   -0.640715    0.880137
      7          1           0       -2.720284   -0.640625   -0.880114
      8          1           0       -1.461973   -1.522508   -0.000057
      9          1           0       -1.800436    1.570532    0.000104
     10          1           0        0.551530    1.728189    0.000076
     11          1           0        0.660741   -1.381726   -0.000080
     12          1           0        3.074928   -1.045314   -0.000096
     13          1           0        2.838452    0.789829   -0.000000
 ---------------------------------------------------------------------

 The electronic state is 1-A.
 Alpha  occ. eigenvalues --  -10.18288 -10.18168 -10.17673 -10.17520 -10.17150
 Alpha  occ. eigenvalues --   -0.80476  -0.75122  -0.68065  -0.58916  -0.52862
 Alpha  occ. eigenvalues --   -0.47510  -0.44392  -0.41165  -0.40175  -0.37898
 Alpha  occ. eigenvalues --   -0.36745  -0.33047  -0.30919  -0.21796
 Alpha virt. eigenvalues --   -0.01620   0.09101   0.10480   0.11118   0.13483
 Alpha virt. eigenvalues --    0.16359   0.17441   0.17703   0.19663   0.23408
 Alpha virt. eigenvalues --    0.25329   0.33513   0.38094   0.44013   0.47869

 Mulliken charges:
               1
     1  C   -0.487134
     2  C   -0.109866
     3  C   -0.112899
     4  C   -0.054361
     5  C   -0.354454
     6  H    0.158981
     7  H    0.158981
     8  H    0.156185
     9  H    0.125530
    10  H    0.118422
    11  H    0.122851
    12  H    0.139662
    13  H    0.138104
 Sum of Mulliken charges =  -0.00000

 Dipole moment (field-independent basis, Debye):
    X=             -0.5035    Y=             -0.1337    Z=              0.0000  Tot=              0.5209
 Quadrupole moment (field-independent basis, Debye-Ang):
   XX=            -28.9574   YY=            -29.4868   ZZ=            -34.1583
   XY=              0.0626   XZ=             -0.0001   YZ=              0.0002

 Normal termination of Gaussian 16 at Tue Oct  6 20:15:18 2020.
