 Gaussian 16, Revision A.03,
 Gaussian 16:  ES64L-G16RevA.03 25-Dec-2016

 ----------------------------------------------------------------------
 #P Opt(MaxCyc=100) B3LYP/6-31G* 5D 7F Integral=UltraFineGrid SCF=(NoSy
 mm,XQC,MaxCyc=120) IOp(1/33=1) EmpiricalDispersion=GD3BJ
 ----------------------------------------------------------------------

 TstMul:  Mul=     2
 TstMul:  ICh=     0
 TstMul:  Mul=     2
 Symbolic Z-matrix:
 Charge =  0 Multiplicity = 2

 SCF Done:  E(UB3LYP) =  -79.1608727068     A.U. after   13 cycles
 SCF Done:  E(UB3LYP) =  -79.1610117538     A.U. after    9 cycles
 SCF Done:  E(UB3LYP) =  -79.1610144213     A.U. after    8 cycles
 Optimization completed.
    -- Stationary point found.

                         Standard orientation:
 ---------------------------------------------------------------------
 Center     Atomic      Atomic             Coordinates (Angstroms)
 Number     Number       Type             X           Y           Z
 ---------------------------------------------------------------------
      1          6           0        0.795277   -0.000001   -0.023149
      2          6           0       -0.694506    0.000175   -0.000728
      3          1           0       -1.108463    0.893765   -0.483722
      4          1           0        1.352980   -0.928190    0.050941
      5          1           0       -1.094081   -0.012331    1.029474
      6          1           0       -1.108931   -0.881876   -0.504518
      7          1           0        1.353868    0.927587    0.051088
 ---------------------------------------------------------------------

 The electronic state is 2-A.
 Alpha  occ. eigenvalues --  -10.17866 -10.17217  -0.75081  -0.60477  -0.44631
 Alpha  occ. eigenvalues --   -0.40944  -0.38639  -0.35451  -0.19607
 Alpha virt. eigenvalues --    0.11566   0.13974   0.14861   0.17750   0.21996
 Alpha virt. eigenvalues --    0.26112   0.51370   0.53945   0.55226   0.61582
 Alpha virt. eigenvalues --    0.61666   0.74308   0.79642   0.86806   0.87587

  Beta  occ. eigenvalues --  -10.17310 -10.16456  -0.73399  -0.58053  -0.43994
  Beta  occ. eigenvalues --   -0.39472  -0.37827  -0.35021
  Beta virt. eigenvalues --   -0.03355   0.11937   0.15055   0.15312   0.18412
  Beta virt. eigenvalues --    0.22432   0.26962   0.51839   0.54143   0.59717
  Beta virt. eigenvalues --    0.63263   0.64969   0.74915   0.81376   0.87452

 Mulliken charges and spin densities:
               1          2
     1  C   -0.296876   1.090908
     2  C   -0.450941  -0.082563
     3  H    0.153685   0.014558
     4  H    0.142312  -0.051177
     5  H    0.155547   0.063785
     6  H    0.153808   0.015701
     7  H    0.142465  -0.051213
 Sum of Mulliken charges =  -0.00000   1.00000

 Dipole moment (field-independent basis, Debye):
    X=             -0.2142    Y=             -0.0004    Z=              0.1345  Tot=              0.2530
 Quadrupole moment (field-independent basis, Debye-Ang):
   XX=            -13.9780   YY=            -13.4233   ZZ=            -14.9069
   XY=              0.0012   XZ=              0.1643   YZ=              0.0002

 1\1\GINC-NODE62\FOpt\UB3LYP\6-31G(d)\C2H5(2)\RPEVERATI\06-Oct-2020\0\\
 #P Opt(MaxCyc=100) B3LYP/6-31G* 5D 7F Integral=UltraFineGrid SCF=(NoSy
 mm,XQC,MaxCyc=120) IOp(1/33=1) EmpiricalDispersion=GD3BJ\\TS search on
  BH76.\\0,2\C,0.7963422868,0.0000333061,-0.0245786567\C,-0.693421288,0
 .0001791302,-0.0009552502\H,-1.1077773287,0.894087449,-0.4830176983\H,
 1.3541143886,-0.9281993064,0.0484416123\H,-1.0921653717,-0.0130179788,
 1.0295611666\H,-1.1082449109,-0.8815390775,-0.5049991846\H,1.354985087
 4,0.9275770866,0.0498269126\\Version=ES64L-G16RevA.03\State=2-A\HF=-79

 Normal termination of Gaussian 16 at Tue Oct  6 20:14:11 2020.
