 Gaussian 16, Revision A.03,
 Gaussian 16:  ES64L-G16RevA.03 25-Dec-2016

 ----------------------------------------------------------------------
 #P Opt(MaxCyc=100) B3LYP/6-31G* 5D 7F Integral=UltraFineGrid SCF=(NoSy
 mm,XQC,MaxCyc=120) IOp(1/33=1) EmpiricalDispersion=GD3BJ
 ----------------------------------------------------------------------

 TstMul:  Mul=     1
 TstMul:  ICh=     0
 TstMul:  Mul=     1
 Symbolic Z-matrix:
 Charge =  0 Multiplicity = 1

 SCF Done:  E(RB3LYP) =  -78.5896602957     A.U. after    9 cycles
 SCF Done:  E(RB3LYP) =  -78.5897621232     A.U. after    6 cycles
 SCF Done:  E(RB3LYP) =  -78.5897645908     A.U. after    6 cycles
 Optimization completed.
    -- Stationary point found.

                         Standard orientation:
 ---------------------------------------------------------------------
 Center     Atomic      Atomic             Coordinates (Angstroms)
 Number     Number       Type             X           Y           Z
 ---------------------------------------------------------------------
      1          6           0        0.000000    0.000000    0.665656
      2          6           0        0.000000    0.000000   -0.665656
      3          1           0        0.000000    0.924090    1.238878
      4          1           0       -0.000000   -0.924090    1.238878
      5          1           0        0.000000    0.924090   -1.238878
      6          1           0       -0.000000   -0.924090   -1.238878
 ---------------------------------------------------------------------

 The electronic state is 1-AG.
 Alpha  occ. eigenvalues --  -10.17724 -10.17646  -0.75456  -0.57723  -0.46480
 Alpha  occ. eigenvalues --   -0.41609  -0.35337  -0.26652
 Alpha virt. eigenvalues --    0.01874   0.12232   0.14039   0.15778   0.24406
 Alpha virt. eigenvalues --    0.33214   0.48084   0.54876   0.56896   0.63750
 Alpha virt. eigenvalues --    0.66154   0.70169   0.84782   0.87254   0.93262

 Mulliken charges:
               1
     1  C   -0.283219
     2  C   -0.283219
     3  H    0.141609
     4  H    0.141609
     5  H    0.141609
     6  H    0.141609
 Sum of Mulliken charges =   0.00000

 Dipole moment (field-independent basis, Debye):
    X=             -0.0000    Y=              0.0000    Z=              0.0000  Tot=              0.0000
 Quadrupole moment (field-independent basis, Debye-Ang):
   XX=            -15.0299   YY=            -12.1115   ZZ=            -12.0037
   XY=              0.0000   XZ=             -0.0000   YZ=             -0.0000

 Normal termination of Gaussian 16 at Tue Oct  6 20:13:25 2020.
