 Gaussian 16, Revision A.03,
 Gaussian 16:  ES64L-G16RevA.03 25-Dec-2016

 ----------------------------------------------------------------------
 #P Opt(MaxCyc=100) B3LYP/6-31G* 5D 7F Integral=UltraFineGrid SCF=(NoSy
 mm,XQC,MaxCyc=120) IOp(1/33=1) EmpiricalDispersion=GD3BJ
 ----------------------------------------------------------------------

 TstMul:  Mul=     1
 TstMul:  ICh=     0
 TstMul:  Mul=     1
 Symbolic Z-matrix:
 Charge =  0 Multiplicity = 1

 SCF Done:  E(RB3LYP) =  -79.8342812540     A.U. after    9 cycles
 SCF Done:  E(RB3LYP) =  -79.8344226931     A.U. after    7 cycles
 SCF Done:  E(RB3LYP) =  -79.8344231606     A.U. after    6 cycles
 Optimization completed.
    -- Stationary point found.

                         Standard orientation:
 ---------------------------------------------------------------------
 Center     Atomic      Atomic             Coordinates (Angstroms)
 Number     Number       Type             X           Y           Z
 ---------------------------------------------------------------------
      1          6           0       -0.765185   -0.000000   -0.000000
      2          6           0        0.765185    0.000000    0.000000
      3          1           0        1.163521   -0.535453   -0.869506
      4          1           0       -1.163524   -1.020752    0.028527
      5          1           0        1.163521   -0.485290    0.898467
      6          1           0        1.163524    1.020740   -0.028961
      7          1           0       -1.163521    0.535082    0.869734
      8          1           0       -1.163521    0.485673   -0.898260
 ---------------------------------------------------------------------

 The electronic state is 1-A.
 Alpha  occ. eigenvalues --  -10.16438 -10.16424  -0.74745  -0.61184  -0.43024
 Alpha  occ. eigenvalues --   -0.43024  -0.36265  -0.34013  -0.34013
 Alpha virt. eigenvalues --    0.10489   0.15650   0.16378   0.16378   0.19019
 Alpha virt. eigenvalues --    0.19019   0.24253   0.51346   0.54397   0.54397
 Alpha virt. eigenvalues --    0.63671   0.63672   0.66900   0.88319   0.88319

 Mulliken charges:
               1
     1  C   -0.431812
     2  C   -0.431812
     3  H    0.143937
     4  H    0.143937
     5  H    0.143937
     6  H    0.143937
     7  H    0.143937
     8  H    0.143937
 Sum of Mulliken charges =  -0.00000

 Dipole moment (field-independent basis, Debye):
    X=             -0.0000    Y=              0.0000    Z=              0.0000  Tot=              0.0000
 Quadrupole moment (field-independent basis, Debye-Ang):
   XX=            -15.2433   YY=            -14.7118   ZZ=            -14.7118
   XY=              0.0000   XZ=              0.0000   YZ=             -0.0000

 Normal termination of Gaussian 16 at Tue Oct  6 20:14:06 2020.
