 Gaussian 16, Revision A.03,
 Gaussian 16:  ES64L-G16RevA.03 25-Dec-2016

 ----------------------------------------------------------------------
 #P Opt(MaxCyc=100) B3LYP/6-31G* 5D 7F Integral=UltraFineGrid SCF=(NoSy
 mm,XQC,MaxCyc=120) IOp(1/33=1) EmpiricalDispersion=GD3BJ
 ----------------------------------------------------------------------

 TstMul:  Mul=     1
 TstMul:  ICh=     0
 TstMul:  Mul=     1
 Symbolic Z-matrix:
 Charge =  0 Multiplicity = 1

 SCF Done:  E(RB3LYP) =  -40.5194811292     A.U. after    8 cycles
 SCF Done:  E(RB3LYP) =  -40.5195705189     A.U. after    6 cycles
 Optimization completed.
    -- Stationary point found.

                         Standard orientation:
 ---------------------------------------------------------------------
 Center     Atomic      Atomic             Coordinates (Angstroms)
 Number     Number       Type             X           Y           Z
 ---------------------------------------------------------------------
      1          6           0        0.000000    0.000000    0.000000
      2          1           0        0.631343    0.631343    0.631343
      3          1           0       -0.631343   -0.631343    0.631343
      4          1           0        0.631343   -0.631343   -0.631343
      5          1           0       -0.631343    0.631343   -0.631343
 ---------------------------------------------------------------------

 The electronic state is 1-A1.
 Alpha  occ. eigenvalues --  -10.15815  -0.69021  -0.38908  -0.38908  -0.38908
 Alpha virt. eigenvalues --    0.11810   0.17646   0.17646   0.17646   0.53341
 Alpha virt. eigenvalues --    0.53341   0.53341   0.89767   0.89767   0.89767
 Alpha virt. eigenvalues --    0.94750   1.11114   1.65630   1.65630   2.24305

 Mulliken charges:
               1
     1  C   -0.628579
     2  H    0.157145
     3  H    0.157145
     4  H    0.157145
     5  H    0.157145
 Sum of Mulliken charges =   0.00000

 Dipole moment (field-independent basis, Debye):
    X=              0.0000    Y=              0.0000    Z=              0.0000  Tot=              0.0000
 Quadrupole moment (field-independent basis, Debye-Ang):
   XX=             -8.2545   YY=             -8.2545   ZZ=             -8.2545
   XY=              0.0000   XZ=              0.0000   YZ=             -0.0000

 Normal termination of Gaussian 16 at Tue Oct  6 20:15:19 2020.
