 Gaussian 16, Revision A.03,

 ----------------------------------------------------------------------
 #P Opt(TS,MaxCyc=50,NoEigenTest,MaxStep=10,CalcFC) B3LYP/6-31G* 5D 7F
 Integral=UltraFineGrid SCF=(NoSymm,XQC,MaxCyc=120) IOp(1/33=1) Empiric
 alDispersion=GD3BJ
 ----------------------------------------------------------------------

 TstMul:  Mul=     1
 TstMul:  ICh=    -1
 TstMul:  Mul=     1
 Symbolic Z-matrix:
 Charge = -1 Multiplicity = 1

 SCF Done:  E(RB3LYP) =  -960.368146222     A.U. after   12 cycles
 SCF Done:  E(RB3LYP) =  -960.368500970     A.U. after   10 cycles
 SCF Done:  E(RB3LYP) =  -960.368503161     A.U. after    7 cycles
 Optimization completed.
    -- Stationary point found.
 Normal termination of Gaussian 16 at Tue Oct  6 20:44:13 2020.
 Gaussian 16:  ES64L-G16RevA.03 25-Dec-2016

 ----------------------------------------------------------------------
 #P Freq B3LYP/6-31G* 5D 7F Integral=UltraFineGrid SCF=(NoSymm,XQC,MaxC
 yc=120) IOp(1/33=1) EmpiricalDispersion=GD3BJ Geom=Check Guess=Read
 ----------------------------------------------------------------------

 TstMul:  Mul=     1
 TstMul:  ICh=    -1
 TstMul:  Mul=     1
 Structure from the checkpoint file:  "MN_28_clch3clts_BH76_B3LYP_631Gs.chk"
 Charge = -1 Multiplicity = 1

                         Standard orientation:
 ---------------------------------------------------------------------
 Center     Atomic      Atomic             Coordinates (Angstroms)
 Number     Number       Type             X           Y           Z
 ---------------------------------------------------------------------
      1         17           0        2.360364    0.000001    0.000032
      2          6           0        0.000001   -0.000002   -0.000117
      3          1           0        0.000001   -0.938956    0.521106
      4          1           0       -0.000002    0.920876    0.552414
      5          1           0        0.000001    0.018073   -1.073894
      6         17           0       -2.360364    0.000001    0.000032
 ---------------------------------------------------------------------

 SCF Done:  E(RB3LYP) =  -960.368503161     A.U. after    1 cycles

 The electronic state is 1-A.
 Alpha  occ. eigenvalues -- -101.27868-101.27867 -10.08529  -9.20804  -9.20803
 Alpha  occ. eigenvalues --   -6.96779  -6.96777  -6.96360  -6.96360  -6.96359
 Alpha  occ. eigenvalues --   -6.96359  -0.58729  -0.55486  -0.50651  -0.29044
 Alpha  occ. eigenvalues --   -0.29044  -0.15724  -0.09107  -0.09107  -0.08433
 Alpha  occ. eigenvalues --   -0.08433  -0.07517
 Alpha virt. eigenvalues --    0.13488   0.25350   0.32028   0.32028   0.57686
 Alpha virt. eigenvalues --    0.58092   0.63708   0.63709   0.64525   0.64525
 Alpha virt. eigenvalues --    0.69439   0.72606   0.72607   0.74513   0.88695

 Mulliken charges:
               1
     1  Cl  -0.644289
     2  C   -0.361068
     3  H    0.216555
     4  H    0.216555
     5  H    0.216537
     6  Cl  -0.644290
 Sum of Mulliken charges =  -1.00000

 Dipole moment (field-independent basis, Debye):
    X=              0.0000    Y=             -0.0000    Z=             -0.0003  Tot=              0.0003
 Quadrupole moment (field-independent basis, Debye-Ang):
   XX=            -72.6174   YY=            -35.4311   ZZ=            -35.4312
   XY=             -0.0000   XZ=             -0.0000   YZ=              0.0000

  Exact polarizability:  99.315  -0.000  22.332  -0.000  -0.000  22.332
 Approx polarizability: 152.294  -0.000  28.749  -0.000   0.000  28.749

 ******    1 imaginary frequencies (negative Signs) ******

                      1                      2                      3
                      A                      A                      A
 Frequencies --   -325.7482               195.6602               195.7002
 Red. masses --     13.2604                 4.3477                 4.3477
 Frc consts  --      0.8290                 0.0981                 0.0981
 IR Inten    --    965.2600                14.7007                14.7004

                      4                      5                      6
                      A                      A                      A
 Frequencies --    208.8596               929.7597               929.8194
 Red. masses --     34.9638                 1.0122                 1.0122
 Frc consts  --      0.8986                 0.5155                 0.5156
 IR Inten    --      0.0000                 0.0000                 0.0000

                      7                      8                      9
                      A                      A                      A
 Frequencies --   1029.5903              1424.2554              1424.2819
 Red. masses --      1.0437                 1.1041                 1.1041
 Frc consts  --      0.6519                 1.3196                 1.3196
 IR Inten    --     90.9604                 5.1030                 5.1023

                     10                     11                     12
                      A                      A                      A
 Frequencies --   3234.0643              3429.3270              3429.3908
 Red. masses --      1.0078                 1.1235                 1.1235
 Frc consts  --      6.2106                 7.7848                 7.7851
 IR Inten    --      0.0000                 0.4351                 0.4360

 - Thermochemistry -
 -------------------
 Temperature   298.150 Kelvin.  Pressure   1.00000 Atm.
 Atom     1 has atomic number 17 and mass  34.96885

 Molecular mass:    84.96118 amu.
 Principal axes and moments of inertia in atomic units:
                           1         2         3
     Eigenvalues --    12.452361397.673981397.67404
           X            1.00000  -0.00000  -0.00000
           Y            0.00000   1.00000  -0.00015
           Z            0.00000   0.00015   1.00000
 This molecule is an asymmetric top.
 Rotational symmetry number  1.
 Rotational temperatures (Kelvin)      6.95562     0.06197     0.06197
 Rotational constants (GHZ):         144.93169     1.29125     1.29125
    1 imaginary frequencies ignored.
 Zero-point vibrational energy      98277.5 (Joules/Mol)
                                   23.48888 (Kcal/Mol)
 Warning -- explicit consideration of   3 degrees of freedom as
           vibrations may cause significant error
 Vibrational temperatures:    281.51   281.57   300.50  1337.72  1337.80
          (Kelvin)           1481.35  2049.19  2049.22  4653.10  4934.04
                             4934.13

 Zero-point correction=                           0.037432 (Hartree/Particle)
 Thermal correction to Energy=                    0.042089
 Thermal correction to Enthalpy=                  0.043033
 Thermal correction to Gibbs Free Energy=         0.009443
 Sum of electronic and zero-point Energies=           -960.331071
 Sum of electronic and thermal Energies=              -960.326414
 Sum of electronic and thermal Enthalpies=            -960.325470
 Sum of electronic and thermal Free Energies=         -960.359060

                     E (Thermal)             CV                S
                      KCal/Mol        Cal/Mol-Kelvin    Cal/Mol-Kelvin
 Total                   26.411             12.943             70.697
 Electronic               0.000              0.000              0.000
 Translational            0.889              2.981             39.232
 Rotational               0.889              2.981             24.701
 Vibrational             24.634              6.981              6.764
 Vibration     1          0.636              1.846              2.174
 Vibration     2          0.636              1.846              2.173
 Vibration     3          0.642              1.827              2.054

 Optimization completed.
    -- Stationary point found.
 Normal termination of Gaussian 16 at Tue Oct  6 20:44:46 2020.
