 Gaussian 16, Revision A.03,
 Gaussian 16:  ES64L-G16RevA.03 25-Dec-2016

 ----------------------------------------------------------------------
 #P Opt(MaxCyc=100) B3LYP/6-31G* 5D 7F Integral=UltraFineGrid SCF=(NoSy
 mm,XQC,MaxCyc=120) IOp(1/33=1) EmpiricalDispersion=GD3BJ
 ----------------------------------------------------------------------

 TstMul:  Mul=     1
 TstMul:  ICh=     0
 TstMul:  Mul=     1
 Symbolic Z-matrix:
 Charge =  0 Multiplicity = 1

 SCF Done:  E(RB3LYP) =  -139.733836457     A.U. after    9 cycles
 SCF Done:  E(RB3LYP) =  -139.734052481     A.U. after    9 cycles
 SCF Done:  E(RB3LYP) =  -139.734059207     A.U. after    7 cycles
 SCF Done:  E(RB3LYP) =  -139.734059888     A.U. after    7 cycles
 Optimization completed.
    -- Stationary point found.

                         Standard orientation:
 ---------------------------------------------------------------------
 Center     Atomic      Atomic             Coordinates (Angstroms)
 Number     Number       Type             X           Y           Z
 ---------------------------------------------------------------------
      1          6           0        0.000000    0.000000   -0.630042
      2          9           0        0.000000    0.000000    0.752568
      3          1           0        0.000000    1.032964   -0.997620
      4          1           0        0.894573   -0.516482   -0.997620
      5          1           0       -0.894573   -0.516482   -0.997620
 ---------------------------------------------------------------------

 The electronic state is 1-A1.
 Alpha  occ. eigenvalues --  -24.65944 -10.24736  -1.17229  -0.69496  -0.47508
 Alpha  occ. eigenvalues --   -0.47181  -0.47181  -0.33197  -0.33197
 Alpha virt. eigenvalues --    0.10605   0.13422   0.16476   0.16476   0.51896
 Alpha virt. eigenvalues --    0.54855   0.54855   0.84242   0.84242   0.87269
 Alpha virt. eigenvalues --    0.98172   1.25268   1.26301   1.26301   1.52286

 Mulliken charges:
               1
     1  C   -0.086628
     2  F   -0.336864
     3  H    0.141164
     4  H    0.141164
     5  H    0.141164
 Sum of Mulliken charges =  -0.00000

 Dipole moment (field-independent basis, Debye):
    X=             -0.0000    Y=             -0.0000    Z=             -1.7136  Tot=              1.7136
 Quadrupole moment (field-independent basis, Debye-Ang):
   XX=            -11.6888   YY=            -11.6888   ZZ=            -11.9801
   XY=              0.0000   XZ=              0.0000   YZ=             -0.0000

 Normal termination of Gaussian 16 at Tue Oct  6 20:15:10 2020.
