 Gaussian 16, Revision A.03,
 Gaussian 16:  ES64L-G16RevA.03 25-Dec-2016

 ----------------------------------------------------------------------
 #P Opt(MaxCyc=100) B3LYP/6-31G* 5D 7F Integral=UltraFineGrid SCF=(NoSy
 mm,XQC,MaxCyc=120) IOp(1/33=1) EmpiricalDispersion=GD3BJ
 ----------------------------------------------------------------------

 TstMul:  Mul=     1
 TstMul:  ICh=    -1
 TstMul:  Mul=     1
 Symbolic Z-matrix:
 Charge = -1 Multiplicity = 1

 SCF Done:  E(RB3LYP) =  -960.377935828     A.U. after   12 cycles
 SCF Done:  E(RB3LYP) =  -960.378456608     A.U. after    9 cycles
 SCF Done:  E(RB3LYP) =  -960.378632075     A.U. after    9 cycles
 SCF Done:  E(RB3LYP) =  -960.378758402     A.U. after    9 cycles
 SCF Done:  E(RB3LYP) =  -960.378792640     A.U. after    9 cycles
 SCF Done:  E(RB3LYP) =  -960.378794276     A.U. after    8 cycles
 Optimization completed.
    -- Stationary point found.

                         Standard orientation:
 ---------------------------------------------------------------------
 Center     Atomic      Atomic             Coordinates (Angstroms)
 Number     Number       Type             X           Y           Z
 ---------------------------------------------------------------------
      1         17           0        0.000000    0.000000   -2.359158
      2          6           0        0.000000    0.000000   -0.488112
      3          1           0       -0.000000    1.032044   -0.155226
      4          1           0       -0.893777   -0.516022   -0.155226
      5          1           0        0.893777   -0.516022   -0.155226
      6         17           0        0.000000    0.000000    2.558826
 ---------------------------------------------------------------------

 The electronic state is 1-A1.
 Alpha  occ. eigenvalues -- -101.37164-101.20412 -10.07758  -9.30399  -9.13158
 Alpha  occ. eigenvalues --   -7.06618  -7.05783  -7.05783  -6.88925  -6.88855
 Alpha  occ. eigenvalues --   -6.88855  -0.69107  -0.52667  -0.47335  -0.28973
 Alpha  occ. eigenvalues --   -0.28973  -0.25413  -0.15992  -0.15992  -0.02315
 Alpha  occ. eigenvalues --   -0.02110  -0.02110
 Alpha virt. eigenvalues --    0.16574   0.26784   0.30928   0.30928   0.53044
 Alpha virt. eigenvalues --    0.57645   0.58849   0.58849   0.62598   0.66620
 Alpha virt. eigenvalues --    0.66620   0.71811   0.72586   0.72586   0.94390

 Mulliken charges:
               1
     1  Cl  -0.253200
     2  C   -0.457588
     3  H    0.209299
     4  H    0.209299
     5  H    0.209299
     6  Cl  -0.917110
 Sum of Mulliken charges =  -1.00000

 Dipole moment (field-independent basis, Debye):
    X=             -0.0000    Y=             -0.0000    Z=             -7.4621  Tot=              7.4621
 Quadrupole moment (field-independent basis, Debye-Ang):
   XX=            -35.4916   YY=            -35.4916   ZZ=            -74.0133
   XY=             -0.0000   XZ=              0.0000   YZ=             -0.0000

 Normal termination of Gaussian 16 at Tue Oct  6 20:16:04 2020.
