 Gaussian 16, Revision A.03,
 Gaussian 16:  ES64L-G16RevA.03 25-Dec-2016

 ----------------------------------------------------------------------
 #P Opt(MaxCyc=100) B3LYP/6-31G* 5D 7F Integral=UltraFineGrid SCF=(NoSy
 mm,XQC,MaxCyc=120) IOp(1/33=1) EmpiricalDispersion=GD3BJ
 ----------------------------------------------------------------------

 TstMul:  Mul=     1
 TstMul:  ICh=     0
 TstMul:  Mul=     1
 Symbolic Z-matrix:
 Charge =  0 Multiplicity = 1

 SCF Done:  E(RB3LYP) =  -115.714984835     A.U. after   11 cycles
 SCF Done:  E(RB3LYP) =  -115.715302693     A.U. after    8 cycles
 SCF Done:  E(RB3LYP) =  -115.715307593     A.U. after    7 cycles
 Optimization completed.
    -- Stationary point found.

                         Standard orientation:
 ---------------------------------------------------------------------
 Center     Atomic      Atomic             Coordinates (Angstroms)
 Number     Number       Type             X           Y           Z
 ---------------------------------------------------------------------
      1          6           0       -0.046920    0.660824    0.000000
      2          8           0       -0.046920   -0.757282    0.000000
      3          1           0       -1.094162    0.975625    0.000000
      4          1           0        0.875695   -1.052604    0.000000
      5          1           0        0.437670    1.085145    0.893318
      6          1           0        0.437670    1.085145   -0.893318
 ---------------------------------------------------------------------

 The electronic state is 1-A'.
 Alpha  occ. eigenvalues --  -19.13296 -10.21684  -1.00996  -0.67794  -0.50196
 Alpha  occ. eigenvalues --   -0.43381  -0.41899  -0.32943  -0.26394
 Alpha virt. eigenvalues --    0.07693   0.13182   0.16697   0.17533   0.20670
 Alpha virt. eigenvalues --    0.53522   0.56898   0.57774   0.78713   0.84912
 Alpha virt. eigenvalues --    0.87261   0.90725   0.97773   1.00016   1.03266

 Mulliken charges:
               1
     1  C   -0.191736
     2  O   -0.620128
     3  H    0.159051
     4  H    0.396924
     5  H    0.127945
     6  H    0.127945
 Sum of Mulliken charges =  -0.00000

 Dipole moment (field-independent basis, Debye):
    X=              1.4345    Y=              0.8856    Z=              0.0000  Tot=              1.6859
 Quadrupole moment (field-independent basis, Debye-Ang):
   XX=            -11.5360   YY=            -13.0059   ZZ=            -13.5809
   XY=             -2.1164   XZ=             -0.0000   YZ=             -0.0000

 Normal termination of Gaussian 16 at Tue Oct  6 20:15:18 2020.
