 Gaussian 16, Revision A.03,
 Gaussian 16:  ES64L-G16RevA.03 25-Dec-2016

 ----------------------------------------------------------------------
 #P Opt(MaxCyc=100) B3LYP/6-31G* 5D 7F Integral=UltraFineGrid SCF=(NoSy
 mm,XQC,MaxCyc=120) IOp(1/33=1) EmpiricalDispersion=GD3BJ
 ----------------------------------------------------------------------

 TstMul:  Mul=     2
 TstMul:  ICh=     0
 TstMul:  Mul=     2
 Symbolic Z-matrix:
 Charge =  0 Multiplicity = 2

 SCF Done:  E(UB3LYP) =  -460.132788064     A.U. after    9 cycles

 Unable to determine electronic state:  an orbital has unidentified symmetry.
 Alpha  occ. eigenvalues -- -101.57845  -9.50714  -7.28123  -7.25786  -7.25786
 Alpha  occ. eigenvalues --   -0.84501  -0.40759  -0.35218  -0.35218
 Alpha virt. eigenvalues --    0.32826   0.39595   0.42588   0.42588   0.78039
 Alpha virt. eigenvalues --    0.79408   0.79408   0.84017   0.84017
  Beta  occ. eigenvalues -- -101.57156  -9.50058  -7.25943  -7.25390  -7.25390
  Beta  occ. eigenvalues --   -0.79143  -0.33603  -0.33603
  Beta virt. eigenvalues --   -0.24574   0.34455   0.43225   0.43225   0.43743
  Beta virt. eigenvalues --    0.84910   0.84910   0.85497   0.85497   0.86435

 Mulliken charges and spin densities:
               1          2
     1  Cl  -0.000000   1.000000
 Sum of Mulliken charges =  -0.00000   1.00000

 Dipole moment (field-independent basis, Debye):
    X=             -0.0000    Y=              0.0000    Z=              0.0000  Tot=              0.0000
 Quadrupole moment (field-independent basis, Debye-Ang):
   XX=            -12.9344   YY=            -12.9338   ZZ=            -10.7314
   XY=             -0.0000   XZ=             -0.0000   YZ=              0.0356

 Optimization completed.
    -- Stationary point found.

                         Standard orientation:
 ---------------------------------------------------------------------
 Center     Atomic      Atomic             Coordinates (Angstroms)
 Number     Number       Type             X           Y           Z
 ---------------------------------------------------------------------
      1         17           0        0.000000    0.000000    0.000000
 ---------------------------------------------------------------------

 Normal termination of Gaussian 16 at Tue Oct  6 20:15:10 2020.
