 Gaussian 16, Revision A.03,

 ----------------------------------------------------------------------
 #P Opt(TS,MaxCyc=50,NoEigenTest,MaxStep=10,CalcFC) B3LYP/6-31G* 5D 7F
 Integral=UltraFineGrid SCF=(NoSymm,XQC,MaxCyc=120) IOp(1/33=1) Empiric
 alDispersion=GD3BJ
 ----------------------------------------------------------------------

 TstMul:  Mul=     1
 TstMul:  ICh=    -1
 TstMul:  Mul=     1
 Symbolic Z-matrix:
 Charge = -1 Multiplicity = 1

 SCF Done:  E(RB3LYP) =  -239.522169622     A.U. after   12 cycles
 SCF Done:  E(RB3LYP) =  -239.522349011     A.U. after    9 cycles
 Optimization completed.
    -- Stationary point found.
 Normal termination of Gaussian 16 at Tue Oct  6 20:44:09 2020.
 Gaussian 16:  ES64L-G16RevA.03 25-Dec-2016

 ----------------------------------------------------------------------
 #P Freq B3LYP/6-31G* 5D 7F Integral=UltraFineGrid SCF=(NoSymm,XQC,MaxC
 yc=120) IOp(1/33=1) EmpiricalDispersion=GD3BJ Geom=Check Guess=Read
 ----------------------------------------------------------------------

 TstMul:  Mul=     1
 TstMul:  ICh=    -1
 TstMul:  Mul=     1
 Structure from the checkpoint file:  "MN_39_fch3fts_BH76_B3LYP_631Gs.chk"
 Charge = -1 Multiplicity = 1

                         Standard orientation:
 ---------------------------------------------------------------------
 Center     Atomic      Atomic             Coordinates (Angstroms)
 Number     Number       Type             X           Y           Z
 ---------------------------------------------------------------------
      1          9           0        1.811266   -0.000000    0.000000
      2          6           0        0.000001    0.000003   -0.000002
      3          1           0       -0.000006   -0.261800    1.045390
      4          1           0       -0.000014    1.036241   -0.295973
      5          1           0       -0.000001   -0.774450   -0.749413
      6          9           0       -1.811264   -0.000001    0.000000
 ---------------------------------------------------------------------

 SCF Done:  E(RB3LYP) =  -239.522349011     A.U. after    2 cycles

 The electronic state is 1-A.
 Alpha  occ. eigenvalues --  -24.29160 -24.29156 -10.01044  -0.76754  -0.76131
 Alpha  occ. eigenvalues --   -0.44531  -0.21601  -0.21600  -0.11391  -0.03090
 Alpha  occ. eigenvalues --   -0.03090  -0.01462  -0.01462  -0.00515
 Alpha virt. eigenvalues --    0.31928   0.32047   0.37733   0.37733   0.77988
 Alpha virt. eigenvalues --    0.77989   0.85524   1.03314   1.11346   1.11346
 Alpha virt. eigenvalues --    1.34328   1.43525   1.43525   1.57616   1.57616

 Mulliken charges:
               1
     1  F   -0.642453
     2  C   -0.050712
     3  H    0.111874
     4  H    0.111874
     5  H    0.111873
     6  F   -0.642456
 Sum of Mulliken charges =  -1.00000

 Dipole moment (field-independent basis, Debye):
    X=              0.0000    Y=              0.0000    Z=              0.0000  Tot=              0.0000
 Quadrupole moment (field-independent basis, Debye-Ang):
   XX=            -37.9295   YY=            -17.5768   ZZ=            -17.5768
   XY=             -0.0000   XZ=             -0.0000   YZ=             -0.0000

  Exact polarizability:  30.052  -0.000  14.629  -0.000  -0.000  14.629
 Approx polarizability:  47.726  -0.000  17.882  -0.000   0.000  17.882

 ******    1 imaginary frequencies (negative Signs) ******

                      1                      2                      3
                      A                      A                      A
 Frequencies --   -487.3995               331.0781               331.1838
 Red. masses --     10.2922                 4.3478                 4.3484
 Frc consts  --      1.4406                 0.2808                 0.2810
 IR Inten    --    715.5082                17.3959                17.3954

                      4                      5                      6
                      A                      A                      A
 Frequencies --    362.0426              1015.0894              1015.1009
 Red. masses --     18.9655                 1.0213                 1.0213
 Frc consts  --      1.4647                 0.6200                 0.6200
 IR Inten    --      0.0000                 0.0000                 0.0000

                      7                      8                      9
                      A                      A                      A
 Frequencies --   1140.3363              1383.1782              1383.2671
 Red. masses --      1.0895                 1.1222                 1.1222
 Frc consts  --      0.8347                 1.2650                 1.2651
 IR Inten    --      0.0014                 1.4577                 1.4574

                     10                     11                     12
                      A                      A                      A
 Frequencies --   3137.6637              3321.9030              3321.9260
 Red. masses --      1.0079                 1.1284                 1.1284
 Frc consts  --      5.8464                 7.3366                 7.3367
 IR Inten    --      0.0000                54.7168                54.7032

 - Thermochemistry -
 -------------------
 Temperature   298.150 Kelvin.  Pressure   1.00000 Atm.
 Atom     1 has atomic number  9 and mass  18.99840

 Molecular mass:    53.02028 amu.
 Principal axes and moments of inertia in atomic units:
                           1         2         3
     Eigenvalues --    12.53955 451.42207 451.42224
           X            1.00000  -0.00000  -0.00000
           Y            0.00000   1.00000   0.00000
           Z            0.00000  -0.00000   1.00000
 This molecule is an asymmetric top.
 Rotational symmetry number  1.
 Rotational temperatures (Kelvin)      6.90726     0.19187     0.19187
 Rotational constants (GHZ):         143.92395     3.99790     3.99790
    1 imaginary frequencies ignored.
 Zero-point vibrational energy     100144.0 (Joules/Mol)
                                   23.93499 (Kcal/Mol)
 Warning -- explicit consideration of   3 degrees of freedom as
           vibrations may cause significant error
 Vibrational temperatures:    476.35   476.50   520.90  1460.49  1460.50
          (Kelvin)           1640.69  1990.08  1990.21  4514.40  4779.48
                             4779.51

 Zero-point correction=                           0.038143 (Hartree/Particle)
 Thermal correction to Energy=                    0.042196
 Thermal correction to Enthalpy=                  0.043140
 Thermal correction to Gibbs Free Energy=         0.012646
 Sum of electronic and zero-point Energies=           -239.484206
 Sum of electronic and thermal Energies=              -239.480153
 Sum of electronic and thermal Enthalpies=            -239.479209
 Sum of electronic and thermal Free Energies=         -239.509703

                     E (Thermal)             CV                S
                      KCal/Mol        Cal/Mol-Kelvin    Cal/Mol-Kelvin
 Total                   26.478             11.932             64.179
 Electronic               0.000              0.000              0.000
 Translational            0.889              2.981             37.827
 Rotational               0.889              2.981             22.462
 Vibrational             24.701              5.971              3.890
 Vibration     1          0.713              1.613              1.255
 Vibration     2          0.714              1.613              1.254
 Vibration     3          0.736              1.550              1.113

 Optimization completed.
    -- Stationary point found.
 Normal termination of Gaussian 16 at Tue Oct  6 20:44:38 2020.
