 Gaussian 16, Revision A.03,
 Gaussian 16:  ES64L-G16RevA.03 25-Dec-2016

 ----------------------------------------------------------------------
 #P Opt(MaxCyc=100) B3LYP/6-31G* 5D 7F Integral=UltraFineGrid SCF=(NoSy
 mm,XQC,MaxCyc=120) IOp(1/33=1) EmpiricalDispersion=GD3BJ
 ----------------------------------------------------------------------

 TstMul:  Mul=     1
 TstMul:  ICh=    -1
 TstMul:  Mul=     1
 Symbolic Z-matrix:
 Charge = -1 Multiplicity = 1

 SCF Done:  E(RB3LYP) =  -599.919385542     A.U. after   14 cycles
 SCF Done:  E(RB3LYP) =  -599.922192791     A.U. after   11 cycles
 SCF Done:  E(RB3LYP) =  -599.926152754     A.U. after   13 cycles
 SCF Done:  E(RB3LYP) =  -599.926882332     A.U. after   14 cycles
 SCF Done:  E(RB3LYP) =  -599.932157015     A.U. after   12 cycles
 SCF Done:  E(RB3LYP) =  -599.949532470     A.U. after   13 cycles
 SCF Done:  E(RB3LYP) =  -599.957027373     A.U. after   12 cycles
 SCF Done:  E(RB3LYP) =  -599.986509484     A.U. after   13 cycles
 SCF Done:  E(RB3LYP) =  -599.997245234     A.U. after   12 cycles
 SCF Done:  E(RB3LYP) =  -599.994414703     A.U. after   12 cycles
 SCF Done:  E(RB3LYP) =  -599.999385926     A.U. after   10 cycles
 SCF Done:  E(RB3LYP) =  -599.999692601     A.U. after   10 cycles
 SCF Done:  E(RB3LYP) =  -599.999859004     A.U. after    9 cycles
 SCF Done:  E(RB3LYP) =  -599.999919851     A.U. after    9 cycles
 SCF Done:  E(RB3LYP) =  -599.999921922     A.U. after    7 cycles
 Optimization completed.
    -- Stationary point found.

                         Standard orientation:
 ---------------------------------------------------------------------
 Center     Atomic      Atomic             Coordinates (Angstroms)
 Number     Number       Type             X           Y           Z
 ---------------------------------------------------------------------
      1         17           0        0.000000    0.000000    1.974605
      2          6           0        0.000000    0.000000   -1.221204
      3          1           0        0.000000    1.026004   -0.848960
      4          1           0        0.888545   -0.513002   -0.848960
      5          1           0       -0.888545   -0.513002   -0.848960
      6          9           0        0.000000    0.000000   -2.632687
 ---------------------------------------------------------------------

 The electronic state is 1-A1.
 Alpha  occ. eigenvalues -- -101.19023 -24.50913 -10.07906  -9.11745  -6.87490
 Alpha  occ. eigenvalues --   -6.87458  -6.87458  -1.01530  -0.53097  -0.46007
 Alpha  occ. eigenvalues --   -0.31591  -0.30922  -0.30922  -0.18012  -0.18012
 Alpha  occ. eigenvalues --   -0.00989  -0.00797  -0.00797
 Alpha virt. eigenvalues --    0.26694   0.30320   0.33277   0.33277   0.62018
 Alpha virt. eigenvalues --    0.69410   0.69410   0.69668   0.73432   0.73432
 Alpha virt. eigenvalues --    0.82300   1.01834   1.01834   1.10608   1.14255

 Mulliken charges:
               1
     1  Cl  -0.952968
     2  C   -0.098152
     3  H    0.148576
     4  H    0.148576
     5  H    0.148576
     6  F   -0.394608
 Sum of Mulliken charges =  -1.00000

 Dipole moment (field-independent basis, Debye):
    X=             -0.0000    Y=             -0.0000    Z=             -6.4233  Tot=              6.4233
 Quadrupole moment (field-independent basis, Debye-Ang):
   XX=            -27.2786   YY=            -27.2786   ZZ=            -54.1567
   XY=             -0.0000   XZ=              0.0000   YZ=              0.0000

 Normal termination of Gaussian 16 at Tue Oct  6 20:18:49 2020.
