 Gaussian 16, Revision A.03,
 Gaussian 16:  ES64L-G16RevA.03 25-Dec-2016

 ----------------------------------------------------------------------
 #P Opt(MaxCyc=100) B3LYP/6-31G* 5D 7F Integral=UltraFineGrid SCF=(NoSy
 mm,XQC,MaxCyc=120) IOp(1/33=1) EmpiricalDispersion=GD3BJ
 ----------------------------------------------------------------------

 TstMul:  Mul=     1
 TstMul:  ICh=    -1
 TstMul:  Mul=     1
 Symbolic Z-matrix:
 Charge = -1 Multiplicity = 1

 SCF Done:  E(RB3LYP) =  -599.999661070     A.U. after   11 cycles
 SCF Done:  E(RB3LYP) =  -599.999872606     A.U. after    8 cycles
 SCF Done:  E(RB3LYP) =  -599.999901490     A.U. after    7 cycles
 SCF Done:  E(RB3LYP) =  -599.999918969     A.U. after    9 cycles
 SCF Done:  E(RB3LYP) =  -599.999921273     A.U. after    7 cycles
 SCF Done:  E(RB3LYP) =  -599.999921818     A.U. after    7 cycles
 Optimization completed.
    -- Stationary point found.

                         Standard orientation:
 ---------------------------------------------------------------------
 Center     Atomic      Atomic             Coordinates (Angstroms)
 Number     Number       Type             X           Y           Z
 ---------------------------------------------------------------------
      1          9           0        0.000000    0.000000   -2.633024
      2          6           0        0.000000    0.000000   -1.222002
      3          1           0       -0.000000    1.025856   -0.849480
      4          1           0       -0.888418   -0.512928   -0.849480
      5          1           0        0.888418   -0.512928   -0.849480
      6         17           0        0.000000    0.000000    1.975157
 ---------------------------------------------------------------------

 The electronic state is 1-A1.
 Alpha  occ. eigenvalues -- -101.19020 -24.50927 -10.07907  -9.11743  -6.87488
 Alpha  occ. eigenvalues --   -6.87455  -6.87455  -1.01556  -0.53102  -0.46005
 Alpha  occ. eigenvalues --   -0.31612  -0.30936  -0.30936  -0.18016  -0.18016
 Alpha  occ. eigenvalues --   -0.00986  -0.00794  -0.00794
 Alpha virt. eigenvalues --    0.26699   0.30329   0.33278   0.33278   0.62019
 Alpha virt. eigenvalues --    0.69407   0.69407   0.69661   0.73428   0.73428
 Alpha virt. eigenvalues --    0.82295   1.01831   1.01831   1.10620   1.14270

 Mulliken charges:
               1
     1  F   -0.394357
     2  C   -0.098201
     3  H    0.148536
     4  H    0.148536
     5  H    0.148536
     6  Cl  -0.953050
 Sum of Mulliken charges =  -1.00000

 Dipole moment (field-independent basis, Debye):
    X=             -0.0000    Y=             -0.0000    Z=             -6.4290  Tot=              6.4290
 Quadrupole moment (field-independent basis, Debye-Ang):
   XX=            -27.2793   YY=            -27.2793   ZZ=            -54.1607
   XY=             -0.0000   XZ=             -0.0000   YZ=              0.0000

 Normal termination of Gaussian 16 at Tue Oct  6 20:16:35 2020.
