 Gaussian 16, Revision A.03,
 Gaussian 16:  ES64L-G16RevA.03 25-Dec-2016

 ----------------------------------------------------------------------
 #P Opt(MaxCyc=100) B3LYP/6-31G* 5D 7F Integral=UltraFineGrid SCF=(NoSy
 mm,XQC,MaxCyc=120) IOp(1/33=1) EmpiricalDispersion=GD3BJ
 ----------------------------------------------------------------------

 TstMul:  Mul=     1
 TstMul:  ICh=     0
 TstMul:  Mul=     1
 Symbolic Z-matrix:
 Charge =  0 Multiplicity = 1

 SCF Done:  E(RB3LYP) =  -113.307487967     A.U. after   10 cycles
 SCF Done:  E(RB3LYP) =  -113.307637700     A.U. after    7 cycles
 SCF Done:  E(RB3LYP) =  -113.307640225     A.U. after    6 cycles
 Optimization completed.
    -- Stationary point found.

                         Standard orientation:
 ---------------------------------------------------------------------
 Center     Atomic      Atomic             Coordinates (Angstroms)
 Number     Number       Type             X           Y           Z
 ---------------------------------------------------------------------
      1          8           0        0.000000    0.000000    0.487599
      2          6           0        0.000000    0.000000   -0.650132
 ---------------------------------------------------------------------

 The electronic state is 1-SG.
 Alpha  occ. eigenvalues --  -19.25322 -10.30125  -1.15748  -0.56929  -0.46702
 Alpha  occ. eigenvalues --   -0.46702  -0.37084
 Alpha virt. eigenvalues --   -0.02124  -0.02124   0.26405   0.51223   0.51223
 Alpha virt. eigenvalues --    0.58464   0.75138   0.83281   0.91691   0.91691
 Alpha virt. eigenvalues --    1.47934   1.47934   1.50769   1.54094   1.54094

 Mulliken charges:
               1
     1  O   -0.157378
     2  C    0.157378
 Sum of Mulliken charges =  -0.00000

 Dipole moment (field-independent basis, Debye):
    X=              0.0000    Y=              0.0000    Z=              0.0642  Tot=              0.0642
 Quadrupole moment (field-independent basis, Debye-Ang):
   XX=             -9.8472   YY=             -9.8472   ZZ=            -11.9108
   XY=             -0.0000   XZ=              0.0000   YZ=              0.0000

 Normal termination of Gaussian 16 at Tue Oct  6 20:15:51 2020.
