 Gaussian 16, Revision A.03,
 Gaussian 16:  ES64L-G16RevA.03 25-Dec-2016

 ----------------------------------------------------------------------
 #P Opt(MaxCyc=100) B3LYP/6-31G* 5D 7F Integral=UltraFineGrid SCF=(NoSy
 mm,XQC,MaxCyc=120) IOp(1/33=1) EmpiricalDispersion=GD3BJ
 ----------------------------------------------------------------------

 TstMul:  Mul=     1
 TstMul:  ICh=     0
 TstMul:  Mul=     1
 Symbolic Z-matrix:
 Charge =  0 Multiplicity = 1

 SCF Done:  E(RB3LYP) =  -199.495647067     A.U. after    9 cycles
 SCF Done:  E(RB3LYP) =  -199.495728734     A.U. after    6 cycles
 SCF Done:  E(RB3LYP) =  -199.495729727     A.U. after    5 cycles
 Optimization completed.
    -- Stationary point found.

                         Standard orientation:
 ---------------------------------------------------------------------
 Center     Atomic      Atomic             Coordinates (Angstroms)
 Number     Number       Type             X           Y           Z
 ---------------------------------------------------------------------
      1          9           0        0.000000    0.000000    0.702925
      2          9           0        0.000000    0.000000   -0.702925
 ---------------------------------------------------------------------

 The electronic state is 1-SGG.
 Alpha  occ. eigenvalues --  -24.79109 -24.79105  -1.33538  -1.09160  -0.58727
 Alpha  occ. eigenvalues --   -0.52323  -0.52323  -0.39279  -0.39279
 Alpha virt. eigenvalues --   -0.12940   1.06170   1.06170   1.08191   1.21823
 Alpha virt. eigenvalues --    1.24061   1.24061   1.26502   1.53946   1.53946
 Alpha virt. eigenvalues --    1.69340   1.69340   1.74475   1.93234   1.93235

 Mulliken charges:
               1
     1  F   -0.000000
     2  F   -0.000000
 Sum of Mulliken charges =  -0.00000

 Dipole moment (field-independent basis, Debye):
    X=             -0.0000    Y=              0.0000    Z=              0.0000  Tot=              0.0000
 Quadrupole moment (field-independent basis, Debye-Ang):
   XX=             -9.2550   YY=             -9.2550   ZZ=             -8.3412
   XY=             -0.0000   XZ=              0.0000   YZ=              0.0000

 Normal termination of Gaussian 16 at Tue Oct  6 20:15:44 2020.
