 Gaussian 16, Revision A.03,
 Gaussian 16:  ES64L-G16RevA.03 25-Dec-2016

 ----------------------------------------------------------------------
 #P Opt(MaxCyc=100) B3LYP/6-31G* 5D 7F Integral=UltraFineGrid SCF=(NoSy
 mm,XQC,MaxCyc=120) IOp(1/33=1) EmpiricalDispersion=GD3BJ
 ----------------------------------------------------------------------

 TstMul:  Mul=     1
 TstMul:  ICh=    -1
 TstMul:  Mul=     1
 Symbolic Z-matrix:
 Charge = -1 Multiplicity = 1

 SCF Done:  E(RB3LYP) =  -239.533415650     A.U. after   13 cycles
 SCF Done:  E(RB3LYP) =  -239.534508721     A.U. after   10 cycles
 SCF Done:  E(RB3LYP) =  -239.535502267     A.U. after   11 cycles
 SCF Done:  E(RB3LYP) =  -239.535718220     A.U. after   11 cycles
 SCF Done:  E(RB3LYP) =  -239.535763870     A.U. after    9 cycles
 SCF Done:  E(RB3LYP) =  -239.535775300     A.U. after    9 cycles
 SCF Done:  E(RB3LYP) =  -239.535776556     A.U. after    8 cycles
 Optimization completed.
    -- Stationary point found.

                         Standard orientation:
 ---------------------------------------------------------------------
 Center     Atomic      Atomic             Coordinates (Angstroms)
 Number     Number       Type             X           Y           Z
 ---------------------------------------------------------------------
      1          9           0        0.000000    0.000000   -1.803021
      2          6           0        0.000000    0.000000   -0.353925
      3          1           0       -0.000000    1.020679    0.018946
      4          1           0       -0.883934   -0.510339    0.018946
      5          1           0        0.883934   -0.510339    0.018946
      6          9           0        0.000000    0.000000    2.032655
 ---------------------------------------------------------------------

 The electronic state is 1-A1.
 Alpha  occ. eigenvalues --  -24.44819 -24.17855 -10.01971  -0.94754  -0.64473
 Alpha  occ. eigenvalues --   -0.47056  -0.25150  -0.24742  -0.24742  -0.12772
 Alpha  occ. eigenvalues --   -0.12772   0.07092   0.07509   0.07509
 Alpha virt. eigenvalues --    0.31689   0.35755   0.38411   0.38411   0.75374
 Alpha virt. eigenvalues --    0.75374   0.77309   1.07084   1.07084   1.12139
 Alpha virt. eigenvalues --    1.24010   1.44561   1.44867   1.44867   1.61090

 Mulliken charges:
               1
     1  F   -0.434387
     2  C   -0.120285
     3  H    0.121155
     4  H    0.121155
     5  H    0.121155
     6  F   -0.808794
 Sum of Mulliken charges =  -1.00000

 Dipole moment (field-independent basis, Debye):
    X=             -0.0000    Y=              0.0000    Z=             -5.1163  Tot=              5.1163
 Quadrupole moment (field-independent basis, Debye-Ang):
   XX=            -17.7994   YY=            -17.7994   ZZ=            -40.0786
   XY=             -0.0000   XZ=             -0.0000   YZ=             -0.0000

 Normal termination of Gaussian 16 at Tue Oct  6 20:17:02 2020.
