 Gaussian 16, Revision A.03,
 Gaussian 16:  ES64L-G16RevA.03 25-Dec-2016

 ----------------------------------------------------------------------
 #P Opt(MaxCyc=100) B3LYP/6-31G* 5D 7F Integral=UltraFineGrid SCF=(NoSy
 mm,XQC,MaxCyc=120) IOp(1/33=1) EmpiricalDispersion=GD3BJ
 ----------------------------------------------------------------------

 TstMul:  Mul=     2
 TstMul:  ICh=     0
 TstMul:  Mul=     2
 Symbolic Z-matrix:
 Charge =  0 Multiplicity = 2

 SCF Done:  E(UB3LYP) =  -99.7145779336     A.U. after    9 cycles

 Unable to determine electronic state:  an orbital has unidentified symmetry.
 Alpha  occ. eigenvalues --  -24.77554  -1.20623  -0.53618  -0.44702  -0.44702
 Alpha virt. eigenvalues --    1.07734   1.13380   1.13380   1.28288   1.76487
 Alpha virt. eigenvalues --    1.77963   1.77963   1.82711   1.82711
  Beta  occ. eigenvalues --  -24.74472  -1.11584  -0.41510  -0.41510
  Beta virt. eigenvalues --   -0.24159   1.15220   1.15220   1.19067   1.32832
  Beta virt. eigenvalues --    1.83462   1.83462   1.83745   1.83745   1.84699

 Mulliken charges and spin densities:
               1          2
     1  F   -0.000000   1.000000
 Sum of Mulliken charges =  -0.00000   1.00000

 Dipole moment (field-independent basis, Debye):
    X=              0.0000    Y=              0.0000    Z=              0.0000  Tot=              0.0000
 Quadrupole moment (field-independent basis, Debye-Ang):
   XX=             -4.7006   YY=             -4.7005   ZZ=             -3.8889
   XY=             -0.0000   XZ=             -0.0000   YZ=              0.0056

 Optimization completed.
    -- Stationary point found.

                         Standard orientation:
 ---------------------------------------------------------------------
 Center     Atomic      Atomic             Coordinates (Angstroms)
 Number     Number       Type             X           Y           Z
 ---------------------------------------------------------------------
      1          9           0        0.000000    0.000000    0.000000
 ---------------------------------------------------------------------

 Normal termination of Gaussian 16 at Tue Oct  6 20:15:34 2020.
