 Gaussian 16, Revision A.03,
 Gaussian 16:  ES64L-G16RevA.03 25-Dec-2016

 ----------------------------------------------------------------------
 #P Opt(MaxCyc=100) B3LYP/6-31G* 5D 7F Integral=UltraFineGrid SCF=(NoSy
 mm,XQC,MaxCyc=120) IOp(1/33=1) EmpiricalDispersion=GD3BJ
 ----------------------------------------------------------------------

 TstMul:  Mul=     1
 TstMul:  ICh=     0
 TstMul:  Mul=     1
 Symbolic Z-matrix:
 Charge =  0 Multiplicity = 1

 SCF Done:  E(RB3LYP) =  -93.4212898484     A.U. after   10 cycles
 SCF Done:  E(RB3LYP) =  -93.4213394760     A.U. after    7 cycles
 Optimization completed.
    -- Stationary point found.

                         Standard orientation:
 ---------------------------------------------------------------------
 Center     Atomic      Atomic             Coordinates (Angstroms)
 Number     Number       Type             X           Y           Z
 ---------------------------------------------------------------------
      1          6           0        0.000000    0.000000   -0.501994
      2          7           0        0.000000    0.000000    0.654920
      3          1           0        0.000000    0.000000   -1.572476
 ---------------------------------------------------------------------

 The electronic state is 1-SG.
 Alpha  occ. eigenvalues --  -14.35931 -10.24012  -0.91936  -0.60874  -0.37964
 Alpha  occ. eigenvalues --   -0.35896  -0.35896
 Alpha virt. eigenvalues --    0.02074   0.02074   0.08120   0.27937   0.51992
 Alpha virt. eigenvalues --    0.51992   0.64479   0.69472   0.77155   0.77155
 Alpha virt. eigenvalues --    0.81895   1.09274   1.47867   1.50641   1.50641

 Mulliken charges:
               1
     1  C    0.018708
     2  N   -0.264015
     3  H    0.245306
 Sum of Mulliken charges =  -0.00000

 Dipole moment (field-independent basis, Debye):
    X=              0.0000    Y=             -0.0000    Z=             -2.9012  Tot=              2.9012
 Quadrupole moment (field-independent basis, Debye-Ang):
   XX=            -11.3787   YY=            -11.3787   ZZ=             -9.5396
   XY=              0.0000   XZ=              0.0000   YZ=             -0.0000

 Normal termination of Gaussian 16 at Tue Oct  6 20:16:00 2020.
