 Gaussian 16, Revision A.03,
 Gaussian 16:  ES64L-G16RevA.03 25-Dec-2016

 ----------------------------------------------------------------------
 #P Opt(MaxCyc=100) B3LYP/6-31G* 5D 7F Integral=UltraFineGrid SCF=(NoSy
 mm,XQC,MaxCyc=120) IOp(1/33=1) EmpiricalDispersion=GD3BJ
 ----------------------------------------------------------------------

 TstMul:  Mul=     1
 TstMul:  ICh=     0
 TstMul:  Mul=     1
 Symbolic Z-matrix:
 Charge =  0 Multiplicity = 1

 SCF Done:  E(RB3LYP) =  -460.792700972     A.U. after    9 cycles
 SCF Done:  E(RB3LYP) =  -460.792833265     A.U. after    7 cycles
 Optimization completed.
    -- Stationary point found.

                         Standard orientation:
 ---------------------------------------------------------------------
 Center     Atomic      Atomic             Coordinates (Angstroms)
 Number     Number       Type             X           Y           Z
 ---------------------------------------------------------------------
      1         17           0        0.000000    0.000000    0.071660
      2          1           0        0.000000    0.000000   -1.218212
 ---------------------------------------------------------------------

 The electronic state is 1-SG.
 Alpha  occ. eigenvalues -- -101.53520  -9.46929  -7.23270  -7.22217  -7.22217
 Alpha  occ. eigenvalues --   -0.84920  -0.47614  -0.33145  -0.33145
 Alpha virt. eigenvalues --    0.00995   0.37739   0.40609   0.43677   0.43677
 Alpha virt. eigenvalues --    0.68295   0.83324   0.83324   0.86415   0.86415
 Alpha virt. eigenvalues --    1.17454

 Mulliken charges:
               1
     1  Cl  -0.226758
     2  H    0.226758
 Sum of Mulliken charges =  -0.00000

 Dipole moment (field-independent basis, Debye):
    X=              0.0000    Y=              0.0000    Z=             -1.4681  Tot=              1.4681
 Quadrupole moment (field-independent basis, Debye-Ang):
   XX=            -13.8989   YY=            -13.8989   ZZ=            -10.3327
   XY=             -0.0000   XZ=              0.0000   YZ=             -0.0000

 Normal termination of Gaussian 16 at Tue Oct  6 20:15:51 2020.
