 Gaussian 16, Revision A.03,

 ----------------------------------------------------------------------
 #P Opt(TS,MaxCyc=50,NoEigenTest,MaxStep=10,CalcFC) B3LYP/6-31G* 5D 7F
 Integral=UltraFineGrid SCF=(NoSymm,XQC,MaxCyc=120) IOp(1/33=1) Empiric
 alDispersion=GD3BJ
 ----------------------------------------------------------------------

 TstMul:  Mul=     1
 TstMul:  ICh=     0
 TstMul:  Mul=     1
 Symbolic Z-matrix:
 Charge =  0 Multiplicity = 1

 SCF Done:  E(RB3LYP) =  -93.3414711060     A.U. after   12 cycles
 SCF Done:  E(RB3LYP) =  -93.3414343436     A.U. after    9 cycles
 Optimization completed.
    -- Stationary point found.
 Normal termination of Gaussian 16 at Tue Oct  6 20:44:43 2020.
 Gaussian 16:  ES64L-G16RevA.03 25-Dec-2016

 ----------------------------------------------------------------------
 #P Freq B3LYP/6-31G* 5D 7F Integral=UltraFineGrid SCF=(NoSymm,XQC,MaxC
 yc=120) IOp(1/33=1) EmpiricalDispersion=GD3BJ Geom=Check Guess=Read
 ----------------------------------------------------------------------

 TstMul:  Mul=     1
 TstMul:  ICh=     0
 TstMul:  Mul=     1
 Structure from the checkpoint file:  "MN_49_hcnts_BH76_B3LYP_631Gs.chk"
 Charge =  0 Multiplicity = 1

                         Standard orientation:
 ---------------------------------------------------------------------
 Center     Atomic      Atomic             Coordinates (Angstroms)
 Number     Number       Type             X           Y           Z
 ---------------------------------------------------------------------
      1          6           0        0.080474    0.624117    0.000000
      2          7           0        0.080474   -0.567507    0.000000
      3          1           0       -1.046167    0.227850    0.000000
 ---------------------------------------------------------------------

 SCF Done:  E(RB3LYP) =  -93.3414343436     A.U. after    1 cycles

 The electronic state is 1-A'.
 Alpha  occ. eigenvalues --  -14.40621 -10.24641  -0.98910  -0.52361  -0.45162
 Alpha  occ. eigenvalues --   -0.38355  -0.33383
 Alpha virt. eigenvalues --   -0.05697   0.00888   0.06165   0.31800   0.52556
 Alpha virt. eigenvalues --    0.52724   0.56804   0.66927   0.70659   0.73894
 Alpha virt. eigenvalues --    0.77178   0.83225   1.25639   1.47194   1.49193

 Mulliken charges:
               1
     1  C   -0.043576
     2  N   -0.220074
     3  H    0.263650
 Sum of Mulliken charges =  -0.00000

 Dipole moment (field-independent basis, Debye):
    X=             -1.2574    Y=              0.1289    Z=              0.0000  Tot=              1.2640
 Quadrupole moment (field-independent basis, Debye-Ang):
   XX=             -9.4604   YY=            -14.0941   ZZ=            -11.7801
   XY=             -0.2821   XZ=              0.0000   YZ=              0.0000

  Exact polarizability:  12.956   0.288  17.423   0.000  -0.000   8.569
 Approx polarizability:  19.444   1.166  35.031   0.000   0.000  11.783

 ******    1 imaginary frequencies (negative Signs) ******

                      1                      2                      3
                     A'                     A'                     A'
 Frequencies --  -1144.9184              2065.4690              2599.3487
 Red. masses --      1.1655                12.1233                 1.0580
 Frc consts  --      0.9001                30.4725                 4.2118
 IR Inten    --     64.2710                 9.9651               108.5600

 - Thermochemistry -
 -------------------
 Temperature   298.150 Kelvin.  Pressure   1.00000 Atm.
 Atom     1 has atomic number  6 and mass  12.00000

 Molecular mass:    27.01090 amu.
 Principal axes and moments of inertia in atomic units:
                           1         2         3
     Eigenvalues --     4.36576  33.00925  37.37501
           X           -0.03347   0.99944   0.00000
           Y            0.99944   0.03347   0.00000
           Z            0.00000   0.00000   1.00000
 This molecule is an asymmetric top.
 Rotational symmetry number  1.
 Rotational temperatures (Kelvin)     19.83936     2.62393     2.31743
 Rotational constants (GHZ):         413.38512    54.67380    48.28737
    1 imaginary frequencies ignored.
 Zero-point vibrational energy      27901.8 (Joules/Mol)
                                    6.66869 (Kcal/Mol)
 Vibrational temperatures:   2971.75  3739.88
          (Kelvin)

 Zero-point correction=                           0.010627 (Hartree/Particle)
 Thermal correction to Energy=                    0.013460
 Thermal correction to Enthalpy=                  0.014404
 Thermal correction to Gibbs Free Energy=        -0.010377
 Sum of electronic and zero-point Energies=            -93.330807
 Sum of electronic and thermal Energies=               -93.327974
 Sum of electronic and thermal Enthalpies=             -93.327030
 Sum of electronic and thermal Free Energies=          -93.351811

                     E (Thermal)             CV                S
                      KCal/Mol        Cal/Mol-Kelvin    Cal/Mol-Kelvin
 Total                    8.446              5.972             52.157
 Electronic               0.000              0.000              0.000
 Translational            0.889              2.981             35.816
 Rotational               0.889              2.981             16.340
 Vibrational              6.669              0.010              0.001

 Optimization completed.
    -- Stationary point found.
 Normal termination of Gaussian 16 at Tue Oct  6 20:45:12 2020.
