 Gaussian 16, Revision A.03,

 ----------------------------------------------------------------------
 #P Opt(TS,MaxCyc=50,NoEigenTest,MaxStep=10,CalcFC) B3LYP/6-31G* 5D 7F
 Integral=UltraFineGrid SCF=(NoSymm,XQC,MaxCyc=120) IOp(1/33=1) Empiric
 alDispersion=GD3BJ
 ----------------------------------------------------------------------

 TstMul:  Mul=     2
 TstMul:  ICh=     0
 TstMul:  Mul=     2
 Symbolic Z-matrix:
 Charge =  0 Multiplicity = 2

 SCF Done:  E(UB3LYP) =  -461.271202636     A.U. after   10 cycles
 SCF Done:  E(UB3LYP) =  -461.271432305     A.U. after    9 cycles
 SCF Done:  E(UB3LYP) =  -461.271433090     A.U. after    7 cycles
 Optimization completed.
    -- Stationary point found.

 1\1\GINC-NODE52\FTS\UB3LYP\6-31G(d)\Cl1H2(2)\RPEVERATI\06-Oct-2020\0\\
 #P Opt(TS,MaxCyc=50,NoEigenTest,MaxStep=10,CalcFC) B3LYP/6-31G* 5D 7F
 Integral=UltraFineGrid SCF=(NoSymm,XQC,MaxCyc=120) IOp(1/33=1) Empiric
 alDispersion=GD3BJ\\TS search on BH76.\\0,2\H,0.,0.,1.5085200404\Cl,0.
 ,0.,0.\H,0.,0.,-1.5085200404\\Version=ES64L-G16RevA.03\State=2-SGG\HF=
 -461.2714331\S2=0.765178\S2-1=0.\S2A=0.75001\RMSD=8.857e-10\RMSF=8.266
 e-06\Dipole=0.,0.,0.\Quadrupole=-0.8316703,-0.8316703,1.6633406,0.,0.,
 0.\PG=D*H [O(Cl1),C*(H1.H1)]\\@

 Normal termination of Gaussian 16 at Tue Oct  6 20:44:20 2020.
 Gaussian 16:  ES64L-G16RevA.03 25-Dec-2016

 ----------------------------------------------------------------------
 #P Freq B3LYP/6-31G* 5D 7F Integral=UltraFineGrid SCF=(NoSymm,XQC,MaxC
 yc=120) IOp(1/33=1) EmpiricalDispersion=GD3BJ Geom=Check Guess=Read
 ----------------------------------------------------------------------

 TstMul:  Mul=     2
 TstMul:  ICh=     0
 TstMul:  Mul=     2
 Structure from the checkpoint file:  "MN_45_hclhts_BH76_B3LYP_631Gs.chk"
 Charge =  0 Multiplicity = 2

                         Standard orientation:
 ---------------------------------------------------------------------
 Center     Atomic      Atomic             Coordinates (Angstroms)
 Number     Number       Type             X           Y           Z
 ---------------------------------------------------------------------
      1          1           0        0.000000    0.000000    1.508520
      2         17           0        0.000000    0.000000    0.000000
      3          1           0        0.000000    0.000000   -1.508520
 ---------------------------------------------------------------------

 SCF Done:  E(UB3LYP) =  -461.271433090     A.U. after    1 cycles

 The electronic state is 2-SGG.
 Alpha  occ. eigenvalues -- -101.55203  -9.48326  -7.24683  -7.23573  -7.23573
 Alpha  occ. eigenvalues --   -0.84985  -0.53435  -0.34226  -0.34226  -0.25765
 Alpha virt. eigenvalues --    0.01470   0.39214   0.42608   0.42608   0.61850
 Alpha virt. eigenvalues --    0.63080   0.70094   0.82626   0.82626   0.85206
 Alpha virt. eigenvalues --    0.85206   1.06980
  Beta  occ. eigenvalues -- -101.55146  -9.48202  -7.24861  -7.23458  -7.23458
  Beta  occ. eigenvalues --   -0.84097  -0.49322  -0.33650  -0.33650
  Beta virt. eigenvalues --   -0.11574   0.07219   0.39194   0.42971   0.42971
  Beta virt. eigenvalues --    0.62029   0.68136   0.79269   0.82022   0.82022
  Beta virt. eigenvalues --    0.86137   0.86137   1.11279

 Mulliken charges and spin densities:
               1          2
     1  H    0.121277   0.555836
     2  Cl  -0.242555  -0.111672
     3  H    0.121277   0.555836
 Sum of Mulliken charges =  -0.00000   1.00000

 Dipole moment (field-independent basis, Debye):
    X=              0.0000    Y=              0.0000    Z=              0.0000  Tot=              0.0000
 Quadrupole moment (field-independent basis, Debye-Ang):
   XX=            -15.1787   YY=            -15.1787   ZZ=            -11.8228
   XY=              0.0000   XZ=             -0.0000   YZ=              0.0000

  Exact polarizability:   6.311  -0.000   6.311   0.000  -0.000  37.983
 Approx polarizability:   7.806  -0.000   7.806  -0.000  -0.000  59.332

 ******    1 imaginary frequencies (negative Signs) ******

                      1                      2                      3
                     SGU                    PIU                    PIU
 Frequencies --  -1276.3834               203.1059               203.1059
 Red. masses --      1.0641                 1.0641                 1.0641
 Frc consts  --      1.0214                 0.0259                 0.0259
 IR Inten    --    982.9189                41.8944                41.8944

                      4
                     SGG
 Frequencies --   1769.8020
 Red. masses --      1.0078
 Frc consts  --      1.8599
 IR Inten    --      0.0000

 - Thermochemistry -
 -------------------
 Temperature   298.150 Kelvin.  Pressure   1.00000 Atm.
 Atom     1 has atomic number  1 and mass   1.00783

 Molecular mass:    36.98450 amu.
 Principal axes and moments of inertia in atomic units:
                           1         2         3
     Eigenvalues --     0.00000  16.38004  16.38004
           X           -0.00000   1.00000   0.00000
           Y            0.00000   0.00000   1.00000
           Z            1.00000   0.00000   0.00000
 This molecule is a prolate symmetric top.
 Rotational symmetry number  2.
 Rotational temperature (Kelvin)      5.28777
 Rotational constant (GHZ):         110.179271
    1 imaginary frequencies ignored.
 Zero-point vibrational energy      13015.5 (Joules/Mol)
                                    3.11077 (Kcal/Mol)
 Warning -- explicit consideration of   2 degrees of freedom as
           vibrations may cause significant error
 Vibrational temperatures:    292.22   292.22  2546.35
          (Kelvin)

 Zero-point correction=                           0.004957 (Hartree/Particle)
 Thermal correction to Energy=                    0.008431
 Thermal correction to Enthalpy=                  0.009375
 Thermal correction to Gibbs Free Energy=        -0.014840
 Sum of electronic and zero-point Energies=           -461.266476
 Sum of electronic and thermal Energies=              -461.263002
 Sum of electronic and thermal Enthalpies=            -461.262058
 Sum of electronic and thermal Free Energies=         -461.286274

                     E (Thermal)             CV                S
                      KCal/Mol        Cal/Mol-Kelvin    Cal/Mol-Kelvin
 Total                    5.291              8.667             50.966
 Electronic               0.000              0.000              1.377
 Translational            0.889              2.981             36.753
 Rotational               0.592              1.987              8.623
 Vibrational              3.809              3.699              4.213
 Vibration     1          0.639              1.835              2.105
 Vibration     2          0.639              1.835              2.105

 Optimization completed.
    -- Stationary point found.
 Normal termination of Gaussian 16 at Tue Oct  6 20:44:43 2020.
