 Gaussian 16, Revision A.03,

 ----------------------------------------------------------------------
 #P Opt(TS,MaxCyc=50,NoEigenTest,MaxStep=10,CalcFC) B3LYP/6-31G* 5D 7F
 Integral=UltraFineGrid SCF=(NoSymm,XQC,MaxCyc=120) IOp(1/33=1) Empiric
 alDispersion=GD3BJ
 ----------------------------------------------------------------------

 TstMul:  Mul=     2
 TstMul:  ICh=     0
 TstMul:  Mul=     2
 Symbolic Z-matrix:
 Charge =  0 Multiplicity = 2

 SCF Done:  E(UB3LYP) =  -113.810535838     A.U. after   15 cycles
 SCF Done:  E(UB3LYP) =  -113.809836179     A.U. after   14 cycles
 SCF Done:  E(UB3LYP) =  -113.809319047     A.U. after   14 cycles
 SCF Done:  E(UB3LYP) =  -113.808953966     A.U. after   13 cycles
 SCF Done:  E(UB3LYP) =  -113.808713604     A.U. after   13 cycles
 SCF Done:  E(UB3LYP) =  -113.808570833     A.U. after   13 cycles
 SCF Done:  E(UB3LYP) =  -113.808500573     A.U. after   13 cycles
 SCF Done:  E(UB3LYP) =  -113.808483185     A.U. after   13 cycles
 SCF Done:  E(UB3LYP) =  -113.808481350     A.U. after   10 cycles
 SCF Done:  E(UB3LYP) =  -113.808481282     A.U. after    9 cycles
 Optimization completed.
    -- Stationary point found.
 Normal termination of Gaussian 16 at Tue Oct  6 20:46:07 2020.
 Gaussian 16:  ES64L-G16RevA.03 25-Dec-2016

 ----------------------------------------------------------------------
 #P Freq B3LYP/6-31G* 5D 7F Integral=UltraFineGrid SCF=(NoSymm,XQC,MaxC
 yc=120) IOp(1/33=1) EmpiricalDispersion=GD3BJ Geom=Check Guess=Read
 ----------------------------------------------------------------------

 TstMul:  Mul=     2
 TstMul:  ICh=     0
 TstMul:  Mul=     2
 Structure from the checkpoint file:  "MN_51_hcots_BH76_B3LYP_631Gs.chk"
 Charge =  0 Multiplicity = 2

                         Standard orientation:
 ---------------------------------------------------------------------
 Center     Atomic      Atomic             Coordinates (Angstroms)
 Number     Number       Type             X           Y           Z
 ---------------------------------------------------------------------
      1          1           0       -1.838053    1.529234    0.000000
      2          6           0        0.131290    0.541845    0.000000
      3          8           0        0.131290   -0.597538    0.000000
 ---------------------------------------------------------------------

 SCF Done:  E(UB3LYP) =  -113.808481282     A.U. after    1 cycles

 The electronic state is 2-A'.
 Alpha  occ. eigenvalues --  -19.25331 -10.30602  -1.15794  -0.57123  -0.47195
 Alpha  occ. eigenvalues --   -0.46755  -0.39522  -0.29166
 Alpha virt. eigenvalues --   -0.02541  -0.01105   0.25891   0.50869   0.52908
 Alpha virt. eigenvalues --    0.63053   0.73635   0.77381   0.83417   0.91619
 Alpha virt. eigenvalues --    0.93063   1.47760   1.48319   1.50643   1.53674

  Beta  occ. eigenvalues --  -19.25224 -10.30466  -1.15605  -0.56888  -0.46652
  Beta  occ. eigenvalues --   -0.46574  -0.37638
  Beta virt. eigenvalues --   -0.09683  -0.02320   0.01398   0.25850   0.50901
  Beta virt. eigenvalues --    0.53487   0.64069   0.74692   0.83251   0.91314
  Beta virt. eigenvalues --    0.91657   0.94533   1.47930   1.48571   1.50748

 Mulliken charges and spin densities:
               1          2
     1  H   -0.003661   0.931012
     2  C    0.160585   0.034701
     3  O   -0.156924   0.034287
 Sum of Mulliken charges =   0.00000   1.00000

 Dipole moment (field-independent basis, Debye):
    X=              0.0223    Y=             -0.0335    Z=              0.0000  Tot=              0.0402
 Quadrupole moment (field-independent basis, Debye-Ang):
   XX=            -11.2747   YY=            -13.1350   ZZ=            -11.1190
   XY=              0.0268   XZ=              0.0000   YZ=              0.0000

  Exact polarizability:  15.072  -3.931  14.957  -0.000   0.000   7.914
 Approx polarizability:  18.614  -3.948  25.684  -0.000   0.000  10.938

 ******    1 imaginary frequencies (negative Signs) ******

                      1                      2                      3
                     A'                     A'                     A'
 Frequencies --   -307.4711               225.0874              2188.7535
 Red. masses --      1.0816                 1.5952                13.3910
 Frc consts  --      0.0602                 0.0476                37.7969
 IR Inten    --      0.7565                 0.7062               100.2758

 - Thermochemistry -
 -------------------
 Temperature   298.150 Kelvin.  Pressure   1.00000 Atm.
 Atom     1 has atomic number  1 and mass   1.00783

 Molecular mass:    29.00274 amu.
 Principal axes and moments of inertia in atomic units:
                           1         2         3
     Eigenvalues --     9.49863  45.08436  54.58299
           X           -0.33419   0.94250   0.00000
           Y            0.94250   0.33419   0.00000
           Z            0.00000   0.00000   1.00000
 This molecule is an asymmetric top.
 Rotational symmetry number  1.
 Rotational temperatures (Kelvin)      9.11857     1.92115     1.58683
 Rotational constants (GHZ):         190.00019    40.03031    33.06417
    1 imaginary frequencies ignored.
 Zero-point vibrational energy      14438.0 (Joules/Mol)
                                    3.45076 (Kcal/Mol)
 Warning -- explicit consideration of   1 degrees of freedom as
           vibrations may cause significant error
 Vibrational temperatures:    323.85  3149.13
          (Kelvin)

 Zero-point correction=                           0.005499 (Hartree/Particle)
 Thermal correction to Energy=                    0.008854
 Thermal correction to Enthalpy=                  0.009799
 Thermal correction to Gibbs Free Energy=        -0.017342
 Sum of electronic and zero-point Energies=           -113.802982
 Sum of electronic and thermal Energies=              -113.799627
 Sum of electronic and thermal Enthalpies=            -113.798683
 Sum of electronic and thermal Free Energies=         -113.825823

                     E (Thermal)             CV                S
                      KCal/Mol        Cal/Mol-Kelvin    Cal/Mol-Kelvin
 Total                    5.556              7.770             57.122
 Electronic               0.000              0.000              1.377
 Translational            0.889              2.981             36.028
 Rotational               0.889              2.981             17.798
 Vibrational              3.779              1.809              1.918
 Vibration     1          0.650              1.803              1.918

 Optimization completed.
    -- Stationary point found.
 Normal termination of Gaussian 16 at Tue Oct  6 20:46:32 2020.
