 Gaussian 16, Revision A.03,

 ----------------------------------------------------------------------
 #P Opt(TS,MaxCyc=50,NoEigenTest,MaxStep=10,CalcFC) B3LYP/6-31G* 5D 7F
 Integral=UltraFineGrid SCF=(NoSymm,XQC,MaxCyc=120) IOp(1/33=1) Empiric
 alDispersion=GD3BJ
 ----------------------------------------------------------------------

 TstMul:  Mul=     2
 TstMul:  ICh=     0
 TstMul:  Mul=     2
 Symbolic Z-matrix:
 Charge =  0 Multiplicity = 2

 SCF Done:  E(UB3LYP) =  -100.867685667     A.U. after   10 cycles
 SCF Done:  E(UB3LYP) =  -100.869293128     A.U. after   10 cycles
 SCF Done:  E(UB3LYP) =  -100.869410720     A.U. after    9 cycles
 SCF Done:  E(UB3LYP) =  -100.869412668     A.U. after    7 cycles
 Optimization completed.
    -- Stationary point found.
 Normal termination of Gaussian 16 at Tue Oct  6 20:45:43 2020.
 Gaussian 16:  ES64L-G16RevA.03 25-Dec-2016

 ----------------------------------------------------------------------
 #P Freq B3LYP/6-31G* 5D 7F Integral=UltraFineGrid SCF=(NoSymm,XQC,MaxC
 yc=120) IOp(1/33=1) EmpiricalDispersion=GD3BJ Geom=Check Guess=Read
 ----------------------------------------------------------------------

 TstMul:  Mul=     2
 TstMul:  ICh=     0
 TstMul:  Mul=     2
 Structure from the checkpoint file:  "MN_54_hfhts_BH76_B3LYP_631Gs.chk"
 Charge =  0 Multiplicity = 2

                         Standard orientation:
 ---------------------------------------------------------------------
 Center     Atomic      Atomic             Coordinates (Angstroms)
 Number     Number       Type             X           Y           Z
 ---------------------------------------------------------------------
      1          1           0        0.000000    0.000000    1.188567
      2          9           0        0.000000    0.000000    0.000000
      3          1           0        0.000000    0.000000   -1.188567
 ---------------------------------------------------------------------

 SCF Done:  E(UB3LYP) =  -100.869412668     A.U. after    1 cycles

 The electronic state is 2-SGG.
 Alpha  occ. eigenvalues --  -24.70298  -1.17110  -0.58129  -0.40591  -0.40591
 Alpha  occ. eigenvalues --   -0.19479
 Alpha virt. eigenvalues --    0.00933   0.58881   0.74028   1.14841   1.14841
 Alpha virt. eigenvalues --    1.59096   1.66315   1.77532   1.77532   1.84758
 Alpha virt. eigenvalues --    1.84758   2.31856
  Beta  occ. eigenvalues --  -24.70094  -1.16558  -0.55678  -0.40217  -0.40217
  Beta virt. eigenvalues --   -0.05381   0.06873   0.66445   0.82221   1.15228
  Beta virt. eigenvalues --    1.15228   1.59665   1.68526   1.77105   1.77105
  Beta virt. eigenvalues --    1.84842   1.84842   2.34586

 Mulliken charges and spin densities:
               1          2
     1  H    0.188815   0.558537
     2  F   -0.377629  -0.117075
     3  H    0.188815   0.558537
 Sum of Mulliken charges =  -0.00000   1.00000

 Dipole moment (field-independent basis, Debye):
    X=              0.0000    Y=             -0.0000    Z=              0.0000  Tot=              0.0000
 Quadrupole moment (field-independent basis, Debye-Ang):
   XX=             -6.9728   YY=             -6.9728   ZZ=             -4.7568
   XY=             -0.0000   XZ=             -0.0000   YZ=              0.0000

  Exact polarizability:   1.928  -0.000   1.928   0.000  -0.000  36.216
 Approx polarizability:   2.226   0.000   2.226  -0.000   0.000  53.310

 ******    1 imaginary frequencies (negative Signs) ******

                      1                      2                      3
                     SGU                    PIU                    PIU
 Frequencies --  -2340.2998               256.7525               256.7525
 Red. masses --      1.1085                 1.1085                 1.1085
 Frc consts  --      3.5771                 0.0431                 0.0431
 IR Inten    --   4422.6199                44.6505                44.6505

                      4
                     SGG
 Frequencies --   2089.8720
 Red. masses --      1.0078
 Frc consts  --      2.5934
 IR Inten    --      0.0000

 - Thermochemistry -
 -------------------
 Temperature   298.150 Kelvin.  Pressure   1.00000 Atm.
 Atom     1 has atomic number  1 and mass   1.00783

 Molecular mass:    21.01405 amu.
 Principal axes and moments of inertia in atomic units:
                           1         2         3
     Eigenvalues --     0.00000  10.16857  10.16857
           X           -0.00000   1.00000   0.00000
           Y            0.00000   0.00000   1.00000
           Z            1.00000   0.00000   0.00000
 This molecule is a prolate symmetric top.
 Rotational symmetry number  2.
 Rotational temperature (Kelvin)      8.51781
 Rotational constant (GHZ):         177.482265
    1 imaginary frequencies ignored.
 Zero-point vibrational energy      15571.7 (Joules/Mol)
                                    3.72171 (Kcal/Mol)
 Warning -- explicit consideration of   2 degrees of freedom as
           vibrations may cause significant error
 Vibrational temperatures:    369.41   369.41  3006.86
          (Kelvin)

 Zero-point correction=                           0.005931 (Hartree/Particle)
 Thermal correction to Energy=                    0.009246
 Thermal correction to Enthalpy=                  0.010190
 Thermal correction to Gibbs Free Energy=        -0.012373
 Sum of electronic and zero-point Energies=           -100.863482
 Sum of electronic and thermal Energies=              -100.860167
 Sum of electronic and thermal Enthalpies=            -100.859223
 Sum of electronic and thermal Free Energies=         -100.881786

                     E (Thermal)             CV                S
                      KCal/Mol        Cal/Mol-Kelvin    Cal/Mol-Kelvin
 Total                    5.802              8.479             47.489
 Electronic               0.000              0.000              1.377
 Translational            0.889              2.981             35.068
 Rotational               0.592              1.987              7.675
 Vibrational              4.321              3.511              3.368
 Vibration     1          0.666              1.751              1.684
 Vibration     2          0.666              1.751              1.684

 Optimization completed.
    -- Stationary point found.

 1\1\GINC-NODE52\Freq\UB3LYP\6-31G(d)\F1H2(2)\RPEVERATI\06-Oct-2020\0\\
 #P Freq B3LYP/6-31G* 5D 7F Integral=UltraFineGrid SCF=(NoSymm,XQC,MaxC
 yc=120) IOp(1/33=1) EmpiricalDispersion=GD3BJ Geom=Check Guess=Read\\T
 S search on BH76.\\0,2\H,0.,0.,1.1885666746\F,0.,0.,0.\H,0.,0.,-1.1885
 666746\\Version=ES64L-G16RevA.03\State=2-SGG\HF=-100.8694127\S2=0.7614
 98\S2-1=0.\S2A=0.750002\RMSD=0.000e+00\RMSF=1.006e-05\ZeroPoint=0.0059
 309\Thermal=0.0092459\Dipole=0.,0.,0.\DipoleDeriv=0.1444503,0.,0.,0.,0
 .1444503,0.,0.,0.,-1.4376243,-0.2889007,0.,0.,0.,-0.2889007,0.,0.,0.,2

 Normal termination of Gaussian 16 at Tue Oct  6 20:46:04 2020.
