 Gaussian 16, Revision A.03,
 Gaussian 16:  ES64L-G16RevA.03 25-Dec-2016

 ----------------------------------------------------------------------
 #P Opt(MaxCyc=100) B3LYP/6-31G* 5D 7F Integral=UltraFineGrid SCF=(NoSy
 mm,XQC,MaxCyc=120) IOp(1/33=1) EmpiricalDispersion=GD3BJ
 ----------------------------------------------------------------------

 TstMul:  Mul=     2
 TstMul:  ICh=     0
 TstMul:  Mul=     2
 Symbolic Z-matrix:
 Charge =  0 Multiplicity = 2

 SCF Done:  E(UB3LYP) =  -110.027546813     A.U. after   16 cycles
 SCF Done:  E(UB3LYP) =  -110.027688867     A.U. after   14 cycles
 SCF Done:  E(UB3LYP) =  -110.027698883     A.U. after   11 cycles
 SCF Done:  E(UB3LYP) =  -110.027699254     A.U. after   10 cycles
 Optimization completed.
    -- Stationary point found.

                         Standard orientation:
 ---------------------------------------------------------------------
 Center     Atomic      Atomic             Coordinates (Angstroms)
 Number     Number       Type             X           Y           Z
 ---------------------------------------------------------------------
      1          7           0       -0.063051    0.661481    0.000000
      2          7           0       -0.063051   -0.518403    0.000000
      3          1           0        0.882716   -1.001543    0.000000
 ---------------------------------------------------------------------

 The electronic state is 2-A'.
 Alpha  occ. eigenvalues --  -14.41844 -14.41028  -1.07280  -0.67596  -0.48648
 Alpha  occ. eigenvalues --   -0.42528  -0.41939  -0.21448
 Alpha virt. eigenvalues --   -0.04602   0.07511   0.37645   0.61764   0.62835
 Alpha virt. eigenvalues --    0.65278   0.67736   0.74779   0.74895   0.80476
 Alpha virt. eigenvalues --    0.93623   1.25554   1.46977   1.48851   1.50271

  Beta  occ. eigenvalues --  -14.41521 -14.39473  -1.05449  -0.64759  -0.44038
  Beta  occ. eigenvalues --   -0.41653  -0.38288
  Beta virt. eigenvalues --   -0.06369  -0.03195   0.09416   0.39026   0.62577
  Beta virt. eigenvalues --    0.63228   0.67699   0.73261   0.75768   0.76204
  Beta virt. eigenvalues --    0.83588   0.94466   1.27027   1.48851   1.51372

 Mulliken charges and spin densities:
               1          2
     1  N   -0.076849   0.732828
     2  N   -0.236992   0.102639
     3  H    0.313841   0.164533
 Sum of Mulliken charges =  -0.00000   1.00000

 Dipole moment (field-independent basis, Debye):
    X=              1.4291    Y=             -1.2626    Z=              0.0000  Tot=              1.9069
 Quadrupole moment (field-independent basis, Debye-Ang):
   XX=            -10.6655   YY=            -11.8866   ZZ=            -10.9863
   XY=             -1.3927   XZ=              0.0000   YZ=              0.0000

 1\1\GINC-NODE59\FOpt\UB3LYP\6-31G(d)\H1N2(2)\RPEVERATI\06-Oct-2020\0\\
 #P Opt(MaxCyc=100) B3LYP/6-31G* 5D 7F Integral=UltraFineGrid SCF=(NoSy
 mm,XQC,MaxCyc=120) IOp(1/33=1) EmpiricalDispersion=GD3BJ\\TS search on
  BH76.\\0,2\N,-0.0674788958,0.6654063849,0.\N,-0.0649957362,-0.5144753
 114,0.\H,0.8817863875,-0.995623846,0.\\Version=ES64L-G16RevA.03\State=
 2-A'\HF=-110.0276993\S2=0.754659\S2-1=0.\S2A=0.750016\RMSD=4.515e-09\R
 MSF=5.319e-05\Dipole=0.5632852,-0.495542,0.\Quadrupole=0.3864689,-0.53
 00959,0.143627,-1.0335334,0.,0.\PG=CS [SG(H1N2)]\\@

 Normal termination of Gaussian 16 at Tue Oct  6 20:16:40 2020.
