 Gaussian 16, Revision A.03,
 Gaussian 16:  ES64L-G16RevA.03 25-Dec-2016

 ----------------------------------------------------------------------
 #P Opt(MaxCyc=100) B3LYP/6-31G* 5D 7F Integral=UltraFineGrid SCF=(NoSy
 mm,XQC,MaxCyc=120) IOp(1/33=1) EmpiricalDispersion=GD3BJ
 ----------------------------------------------------------------------

 TstMul:  Mul=     2
 TstMul:  ICh=     0
 TstMul:  Mul=     2
 Symbolic Z-matrix:
 Charge =  0 Multiplicity = 2

 SCF Done:  E(UB3LYP) =  -113.848846214     A.U. after   14 cycles
 SCF Done:  E(UB3LYP) =  -113.849027587     A.U. after   11 cycles
 SCF Done:  E(UB3LYP) =  -113.849030372     A.U. after   10 cycles
 Optimization completed.
    -- Stationary point found.

                         Standard orientation:
 ---------------------------------------------------------------------
 Center     Atomic      Atomic             Coordinates (Angstroms)
 Number     Number       Type             X           Y           Z
 ---------------------------------------------------------------------
      1          1           0       -0.876804    1.213901    0.000000
      2          6           0        0.062629    0.589130    0.000000
      3          8           0        0.062629   -0.593585    0.000000
 ---------------------------------------------------------------------

 The electronic state is 2-A'.
 Alpha  occ. eigenvalues --  -19.21362 -10.28802  -1.10652  -0.61653  -0.49741
 Alpha  occ. eigenvalues --   -0.43435  -0.42956  -0.21629
 Alpha virt. eigenvalues --   -0.04296   0.12534   0.23711   0.50873   0.51826
 Alpha virt. eigenvalues --    0.64378   0.70462   0.80472   0.86988   0.93724
 Alpha virt. eigenvalues --    0.97654   1.49143   1.50803   1.51202   1.51437

  Beta  occ. eigenvalues --  -19.20503 -10.27837  -1.09012  -0.58893  -0.47359
  Beta  occ. eigenvalues --   -0.42145  -0.38134
  Beta virt. eigenvalues --   -0.07315  -0.02554   0.14679   0.24769   0.51792
  Beta virt. eigenvalues --    0.56106   0.66132   0.72397   0.82634   0.88422
  Beta virt. eigenvalues --    0.94143   1.00286   1.50702   1.52215   1.53548

 Mulliken charges and spin densities:
               1          2
     1  H    0.148261   0.168747
     2  C    0.086410   0.568811
     3  O   -0.234671   0.262442
 Sum of Mulliken charges =  -0.00000   1.00000

 Dipole moment (field-independent basis, Debye):
    X=             -0.8908    Y=              1.2735    Z=              0.0000  Tot=              1.5541
 Quadrupole moment (field-independent basis, Debye-Ang):
   XX=            -11.0978   YY=            -11.3189   ZZ=            -10.5988
   XY=             -0.9637   XZ=              0.0000   YZ=              0.0000

 Normal termination of Gaussian 16 at Tue Oct  6 20:16:21 2020.
