 Gaussian 16, Revision A.03,

 ----------------------------------------------------------------------
 #P Opt(TS,MaxCyc=50,NoEigenTest,MaxStep=10,CalcFC) B3LYP/6-31G* 5D 7F
 Integral=UltraFineGrid SCF=(NoSymm,XQC,MaxCyc=120) IOp(1/33=1) Empiric
 alDispersion=GD3BJ
 ----------------------------------------------------------------------

 TstMul:  Mul=     2
 TstMul:  ICh=     0
 TstMul:  Mul=     2
 Symbolic Z-matrix:
 Charge =  0 Multiplicity = 2

 SCF Done:  E(UB3LYP) =  -110.010791236     A.U. after   16 cycles
 SCF Done:  E(UB3LYP) =  -110.010349317     A.U. after   15 cycles
 SCF Done:  E(UB3LYP) =  -110.010260433     A.U. after   14 cycles
 SCF Done:  E(UB3LYP) =  -110.010259792     A.U. after   11 cycles
 Optimization completed.
    -- Stationary point found.
 Normal termination of Gaussian 16 at Tue Oct  6 20:45:59 2020.
 Gaussian 16:  ES64L-G16RevA.03 25-Dec-2016

 ----------------------------------------------------------------------
 #P Freq B3LYP/6-31G* 5D 7F Integral=UltraFineGrid SCF=(NoSymm,XQC,MaxC
 yc=120) IOp(1/33=1) EmpiricalDispersion=GD3BJ Geom=Check Guess=Read
 ----------------------------------------------------------------------

 TstMul:  Mul=     2
 TstMul:  ICh=     0
 TstMul:  Mul=     2
 Structure from the checkpoint file:  "MN_59_hn2ts_BH76_B3LYP_631Gs.chk"
 Charge =  0 Multiplicity = 2

                         Standard orientation:
 ---------------------------------------------------------------------
 Center     Atomic      Atomic             Coordinates (Angstroms)
 Number     Number       Type             X           Y           Z
 ---------------------------------------------------------------------
      1          7           0        0.089008   -0.648325    0.000000
      2          7           0        0.089008    0.476222    0.000000
      3          1           0       -1.246118    1.204723    0.000000
 ---------------------------------------------------------------------

 SCF Done:  E(UB3LYP) =  -110.010259792     A.U. after    1 cycles

 The electronic state is 2-A'.
 Alpha  occ. eigenvalues --  -14.44965 -14.43550  -1.11469  -0.59141  -0.48912
 Alpha  occ. eigenvalues --   -0.45739  -0.43905  -0.24618
 Alpha virt. eigenvalues --   -0.03592  -0.00642   0.40496   0.58690   0.60706
 Alpha virt. eigenvalues --    0.61699   0.64387   0.74364   0.77050   0.78621
 Alpha virt. eigenvalues --    0.92558   1.28908   1.45150   1.47171   1.52958

  Beta  occ. eigenvalues --  -14.44874 -14.42835  -1.10751  -0.56917  -0.46165
  Beta  occ. eigenvalues --   -0.45314  -0.42267
  Beta virt. eigenvalues --   -0.09450  -0.02965   0.03374   0.41008   0.59638
  Beta virt. eigenvalues --    0.60873   0.64311   0.69446   0.74733   0.78061
  Beta virt. eigenvalues --    0.82155   0.95310   1.29808   1.45955   1.48386

 Mulliken charges and spin densities:
               1          2
     1  N    0.003585   0.319924
     2  N   -0.073014  -0.043576
     3  H    0.069429   0.723652
 Sum of Mulliken charges =   0.00000   1.00000

 Dipole moment (field-independent basis, Debye):
    X=             -0.2896    Y=              0.2954    Z=              0.0000  Tot=              0.4137
 Quadrupole moment (field-independent basis, Debye-Ang):
   XX=            -11.4051   YY=            -12.7029   ZZ=            -11.2339
   XY=             -0.1825   XZ=              0.0000   YZ=              0.0000

  Exact polarizability:  15.460  -7.317  19.786   0.000   0.000   6.045
 Approx polarizability:  20.372 -10.343  37.558   0.000   0.000   8.391

 ******    1 imaginary frequencies (negative Signs) ******

                      1                      2                      3
                     A'                     A'                     A'
 Frequencies --  -1151.1462               684.1946              2228.2490
 Red. masses --      1.0993                 1.3645                 9.5129
 Frc consts  --      0.8583                 0.3763                27.8287
 IR Inten    --    323.9965                 3.2460                73.2372

 - Thermochemistry -
 -------------------
 Temperature   298.150 Kelvin.  Pressure   1.00000 Atm.
 Atom     1 has atomic number  7 and mass  14.00307

 Molecular mass:    29.01397 amu.
 Principal axes and moments of inertia in atomic units:
                           1         2         3
     Eigenvalues --     5.08372  38.51576  43.59948
           X           -0.18212   0.98328   0.00000
           Y            0.98328   0.18212   0.00000
           Z            0.00000   0.00000   1.00000
 This molecule is an asymmetric top.
 Rotational symmetry number  1.
 Rotational temperatures (Kelvin)     17.03751     2.24879     1.98658
 Rotational constants (GHZ):         355.00414    46.85721    41.39364
    1 imaginary frequencies ignored.
 Zero-point vibrational energy      17420.3 (Joules/Mol)
                                    4.16355 (Kcal/Mol)
 Vibrational temperatures:    984.40  3205.95
          (Kelvin)

 Zero-point correction=                           0.006635 (Hartree/Particle)
 Thermal correction to Energy=                    0.009587
 Thermal correction to Enthalpy=                  0.010531
 Thermal correction to Gibbs Free Energy=        -0.015378
 Sum of electronic and zero-point Energies=           -110.003625
 Sum of electronic and thermal Energies=              -110.000673
 Sum of electronic and thermal Enthalpies=            -109.999729
 Sum of electronic and thermal Free Energies=         -110.025638

                     E (Thermal)             CV                S
                      KCal/Mol        Cal/Mol-Kelvin    Cal/Mol-Kelvin
 Total                    6.016              6.826             54.530
 Electronic               0.000              0.000              1.377
 Translational            0.889              2.981             36.030
 Rotational               0.889              2.981             16.797
 Vibrational              4.238              0.865              0.326

 Optimization completed.
    -- Stationary point found.

 1\1\GINC-NODE51\Freq\UB3LYP\6-31G(d)\H1N2(2)\RPEVERATI\06-Oct-2020\0\\
 #P Freq B3LYP/6-31G* 5D 7F Integral=UltraFineGrid SCF=(NoSymm,XQC,MaxC
 yc=120) IOp(1/33=1) EmpiricalDispersion=GD3BJ Geom=Check Guess=Read\\T
 S search on BH76.\\0,2\N,0.107866941,-0.6659339261,0.\N,0.1066452684,0
 .4586120837,0.\H,-1.2292719539,1.185662553,0.\\Version=ES64L-G16RevA.0
 3\State=2-A'\HF=-110.0102598\S2=0.761908\S2-1=0.\S2A=0.750016\RMSD=6.3
 88e-10\RMSF=2.769e-05\ZeroPoint=0.006635\Thermal=0.009587\Dipole=-0.11
 40681,0.1161094,0.\DipoleDeriv=-0.0003407,0.0030138,0.,0.7315029,-0.49

 Normal termination of Gaussian 16 at Tue Oct  6 20:46:27 2020.
