 Gaussian 16, Revision A.03,
 Gaussian 16:  ES64L-G16RevA.03 25-Dec-2016

 ----------------------------------------------------------------------
 #P Opt(MaxCyc=100) B3LYP/6-31G* 5D 7F Integral=UltraFineGrid SCF=(NoSy
 mm,XQC,MaxCyc=120) IOp(1/33=1) EmpiricalDispersion=GD3BJ
 ----------------------------------------------------------------------

 TstMul:  Mul=     1
 TstMul:  ICh=     0
 TstMul:  Mul=     1
 Symbolic Z-matrix:
 Charge =  0 Multiplicity = 1

 SCF Done:  E(RB3LYP) =  -100.417959202     A.U. after    9 cycles
 SCF Done:  E(RB3LYP) =  -100.418354280     A.U. after    7 cycles
 SCF Done:  E(RB3LYP) =  -100.418357067     A.U. after    6 cycles
 Optimization completed.
    -- Stationary point found.

                         Standard orientation:
 ---------------------------------------------------------------------
 Center     Atomic      Atomic             Coordinates (Angstroms)
 Number     Number       Type             X           Y           Z
 ---------------------------------------------------------------------
      1          9           0        0.000000    0.000000    0.093477
      2          1           0        0.000000    0.000000   -0.841293
 ---------------------------------------------------------------------

 The electronic state is 1-SG.
 Alpha  occ. eigenvalues --  -24.65614  -1.16600  -0.51756  -0.37513  -0.37513
 Alpha virt. eigenvalues --    0.06347   0.80663   1.17989   1.17989   1.26175
 Alpha virt. eigenvalues --    1.64874   1.80242   1.80242   1.87092   1.87092
 Alpha virt. eigenvalues --    2.61009

 Mulliken charges:
               1
     1  F   -0.485835
     2  H    0.485835
 Sum of Mulliken charges =  -0.00000

 Dipole moment (field-independent basis, Debye):
    X=              0.0000    Y=             -0.0000    Z=             -1.8642  Tot=              1.8642
 Quadrupole moment (field-independent basis, Debye-Ang):
   XX=             -5.4004   YY=             -5.4004   ZZ=             -3.3750
   XY=              0.0000   XZ=              0.0000   YZ=             -0.0000

 Normal termination of Gaussian 16 at Tue Oct  6 20:16:41 2020.
