 Gaussian 16, Revision A.03,

 ----------------------------------------------------------------------
 #P Opt(TS,MaxCyc=50,NoEigenTest,MaxStep=10,CalcFC) B3LYP/6-31G* 5D 7F
 Integral=UltraFineGrid SCF=(NoSymm,XQC,MaxCyc=120) IOp(1/33=1) Empiric
 alDispersion=GD3BJ
 ----------------------------------------------------------------------

 TstMul:  Mul=     2
 TstMul:  ICh=     0
 TstMul:  Mul=     2
 Symbolic Z-matrix:
 Charge =  0 Multiplicity = 2

 SCF Done:  E(UB3LYP) =  -200.003799005     A.U. after   17 cycles
 SCF Done:  E(UB3LYP) =  -200.001953503     A.U. after   16 cycles
 SCF Done:  E(UB3LYP) =  -200.000570696     A.U. after   15 cycles
 SCF Done:  E(UB3LYP) =  -199.999576697     A.U. after   15 cycles
 SCF Done:  E(UB3LYP) =  -199.998885447     A.U. after   15 cycles
 SCF Done:  E(UB3LYP) =  -199.998413169     A.U. after   15 cycles
 SCF Done:  E(UB3LYP) =  -199.998089893     A.U. after   15 cycles
 SCF Done:  E(UB3LYP) =  -199.997864308     A.U. after   15 cycles
 SCF Done:  E(UB3LYP) =  -199.997701499     A.U. after   15 cycles
 SCF Done:  E(UB3LYP) =  -199.997577724     A.U. after   15 cycles
 SCF Done:  E(UB3LYP) =  -199.996127513     A.U. after   10 cycles
 SCF Done:  E(UB3LYP) =  -199.996112544     A.U. after   10 cycles
 SCF Done:  E(UB3LYP) =  -199.996099460     A.U. after   10 cycles
 SCF Done:  E(UB3LYP) =  -199.996088281     A.U. after   10 cycles
 SCF Done:  E(UB3LYP) =  -199.996078624     A.U. after   10 cycles
 SCF Done:  E(UB3LYP) =  -199.996070209     A.U. after    9 cycles
 SCF Done:  E(UB3LYP) =  -199.996062996     A.U. after   10 cycles
 SCF Done:  E(UB3LYP) =  -199.996056910     A.U. after   10 cycles
 SCF Done:  E(UB3LYP) =  -199.996051747     A.U. after   10 cycles
 Optimization completed.
    -- Stationary point found.
 Normal termination of Gaussian 16 at Tue Oct  6 20:56:06 2020.
 Gaussian 16:  ES64L-G16RevA.03 25-Dec-2016

 ----------------------------------------------------------------------
 #P Freq B3LYP/6-31G* 5D 7F Integral=UltraFineGrid SCF=(NoSymm,XQC,MaxC
 yc=120) IOp(1/33=1) EmpiricalDispersion=GD3BJ Geom=Check Guess=Read
 ----------------------------------------------------------------------

 TstMul:  Mul=     2
 TstMul:  ICh=     0
 TstMul:  Mul=     2
 Structure from the checkpoint file:  "MN_52_hf2ts_BH76_B3LYP_631Gs.chk"
 Charge =  0 Multiplicity = 2

                         Standard orientation:
 ---------------------------------------------------------------------
 Center     Atomic      Atomic             Coordinates (Angstroms)
 Number     Number       Type             X           Y           Z
 ---------------------------------------------------------------------
      1          1           0        0.000000    0.000000   -4.464240
      2          9           0        0.000000    0.000000   -0.454900
      3          9           0        0.000000    0.000000    0.950926
 ---------------------------------------------------------------------

 SCF Done:  E(UB3LYP) =  -199.996051747     A.U. after    1 cycles

 The electronic state is 2-SG.
 Alpha  occ. eigenvalues --  -24.79108 -24.79104  -1.33538  -1.09158  -0.58727
 Alpha  occ. eigenvalues --   -0.52322  -0.52322  -0.39277  -0.39277  -0.31736
 Alpha virt. eigenvalues --   -0.12937   0.70944   1.06171   1.06171   1.08228
 Alpha virt. eigenvalues --    1.21842   1.24063   1.24063   1.26503   1.53947
 Alpha virt. eigenvalues --    1.53947   1.69341   1.69341   1.74480   1.93236

  Beta  occ. eigenvalues --  -24.79107 -24.79104  -1.33538  -1.09158  -0.58727
  Beta  occ. eigenvalues --   -0.52322  -0.52322  -0.39277  -0.39277
  Beta virt. eigenvalues --   -0.12939  -0.01355   1.02324   1.06171   1.06171
  Beta virt. eigenvalues --    1.08338   1.21856   1.24063   1.24063   1.26504
  Beta virt. eigenvalues --    1.53947   1.53947   1.69341   1.69341   1.74479

 Mulliken charges and spin densities:
               1          2
     1  H    0.000042   0.999945
     2  F   -0.000021  -0.000058
     3  F   -0.000021   0.000113
 Sum of Mulliken charges =  -0.00000   1.00000

 Dipole moment (field-independent basis, Debye):
    X=              0.0000    Y=             -0.0000    Z=             -0.0010  Tot=              0.0010
 Quadrupole moment (field-independent basis, Debye-Ang):
   XX=            -10.5339   YY=            -10.5339   ZZ=             -9.6151
   XY=             -0.0000   XZ=              0.0000   YZ=             -0.0000

  Exact polarizability:   2.729  -0.000   2.729  -0.000   0.000   9.831
 Approx polarizability:   3.296  -0.000   3.296  -0.000   0.000  18.812

 ******    1 imaginary frequencies (negative Signs) ******

                      1                      2                      3
                     SG                     PI                     PI
 Frequencies --    -45.8783                12.4161                12.4161
 Red. masses --      1.0331                 2.1002                 2.1002
 Frc consts  --      0.0013                 0.0002                 0.0002
 IR Inten    --      0.0008                 0.0000                 0.0000

                      4
                     SG
 Frequencies --   1055.1856
 Red. masses --     18.9983
 Frc consts  --     12.4630
 IR Inten    --      0.0003

 - Thermochemistry -
 -------------------
 Temperature   298.150 Kelvin.  Pressure   1.00000 Atm.
 Atom     1 has atomic number  1 and mass   1.00783

 Molecular mass:    39.00463 amu.
 Principal axes and moments of inertia in atomic units:
                           1         2         3
     Eigenvalues --     0.00000 144.89436 144.89436
           X            0.00000   0.00000   1.00000
           Y            0.00000   1.00000   0.00000
           Z            1.00000   0.00000   0.00000
 This molecule is a prolate symmetric top.
 Rotational symmetry number  1.
 Rotational temperature (Kelvin)      0.59777
 Rotational constant (GHZ):          12.455566
    1 imaginary frequencies ignored.
 Zero-point vibrational energy       6459.9 (Joules/Mol)
                                    1.54396 (Kcal/Mol)
 Warning -- explicit consideration of   2 degrees of freedom as
           vibrations may cause significant error
 Vibrational temperatures:     17.86    17.86  1518.18
          (Kelvin)

 Zero-point correction=                           0.002460 (Hartree/Particle)
 Thermal correction to Energy=                    0.006683
 Thermal correction to Enthalpy=                  0.007627
 Thermal correction to Gibbs Free Energy=        -0.024614
 Sum of electronic and zero-point Energies=           -199.993591
 Sum of electronic and thermal Energies=              -199.989369
 Sum of electronic and thermal Enthalpies=            -199.988425
 Sum of electronic and thermal Free Energies=         -200.020666

                     E (Thermal)             CV                S
                      KCal/Mol        Cal/Mol-Kelvin    Cal/Mol-Kelvin
 Total                    4.194              9.262             67.858
 Electronic               0.000              0.000              1.377
 Translational            0.889              2.981             36.912
 Rotational               0.592              1.987             14.332
 Vibrational              2.712              4.294             15.237
 Vibration     1          0.593              1.987              7.581
 Vibration     2          0.593              1.987              7.581

                           ! Non-Optimized Parameters !

 1\1\GINC-NODE62\Freq\UB3LYP\6-31G(d)\F2H1(2)\RPEVERATI\06-Oct-2020\0\\
 #P Freq B3LYP/6-31G* 5D 7F Integral=UltraFineGrid SCF=(NoSymm,XQC,MaxC
 yc=120) IOp(1/33=1) EmpiricalDispersion=GD3BJ Geom=Check Guess=Read\\T
 S search on BH76.\\0,2\H,0.,0.,-3.8026207119\F,0.,0.,0.2067193637\F,0.
 ,0.,1.6125451622\\Version=ES64L-G16RevA.03\State=2-SG\HF=-199.9960517\
 S2=0.75\S2-1=0.\S2A=0.75\RMSD=9.169e-11\RMSF=2.928e-05\ZeroPoint=0.002
 4605\Thermal=0.006683\Dipole=0.,0.,-0.000409\DipoleDeriv=0.000048,0.,0
 .,0.,0.000048,0.,0.,0.,-0.0009037,-0.0000324,0.,0.,0.,-0.0000324,0.,0.

 Normal termination of Gaussian 16 at Tue Oct  6 20:56:28 2020.
