 Gaussian 16, Revision A.03,

 ----------------------------------------------------------------------
 #P Opt(TS,MaxCyc=50,NoEigenTest,MaxStep=10,CalcFC) B3LYP/6-31G* 5D 7F
 Integral=UltraFineGrid SCF=(NoSymm,XQC,MaxCyc=120) IOp(1/33=1) Empiric
 alDispersion=GD3BJ
 ----------------------------------------------------------------------

 TstMul:  Mul=     2
 TstMul:  ICh=     0
 TstMul:  Mul=     2
 Symbolic Z-matrix:
 Charge =  0 Multiplicity = 2

 SCF Done:  E(UB3LYP) =  -140.191727398     A.U. after   14 cycles
 SCF Done:  E(UB3LYP) =  -140.192275856     A.U. after   12 cycles
 SCF Done:  E(UB3LYP) =  -140.192278232     A.U. after    8 cycles
 Optimization completed.
    -- Stationary point found.
 Normal termination of Gaussian 16 at Tue Oct  6 20:45:36 2020.
 Gaussian 16:  ES64L-G16RevA.03 25-Dec-2016

 ----------------------------------------------------------------------
 #P Freq B3LYP/6-31G* 5D 7F Integral=UltraFineGrid SCF=(NoSymm,XQC,MaxC
 yc=120) IOp(1/33=1) EmpiricalDispersion=GD3BJ Geom=Check Guess=Read
 ----------------------------------------------------------------------

 TstMul:  Mul=     2
 TstMul:  ICh=     0
 TstMul:  Mul=     2
 Structure from the checkpoint file:  "MN_53_hfch3ts_BH76_B3LYP_631Gs.chk"
 Charge =  0 Multiplicity = 2

                         Standard orientation:
 ---------------------------------------------------------------------
 Center     Atomic      Atomic             Coordinates (Angstroms)
 Number     Number       Type             X           Y           Z
 ---------------------------------------------------------------------
      1          1           0        0.000002    2.044876   -0.000000
      2          9           0       -0.000001    0.775685   -0.000000
      3          6           0       -0.000001   -0.920125    0.000000
      4          1           0        1.056402   -1.168436    0.000000
      5          1           0       -0.528198   -1.168427    0.914875
      6          1           0       -0.528198   -1.168427   -0.914875
 ---------------------------------------------------------------------

 SCF Done:  E(UB3LYP) =  -140.192278232     A.U. after    1 cycles

 The electronic state is 2-A'.
 Alpha  occ. eigenvalues --  -24.66495 -10.22739  -1.12597  -0.70695  -0.48859
 Alpha  occ. eigenvalues --   -0.44532  -0.44532  -0.35389  -0.35389  -0.17664
 Alpha virt. eigenvalues --    0.02280   0.10984   0.16597   0.16597   0.49109
 Alpha virt. eigenvalues --    0.54443   0.54443   0.68894   0.82888   0.87525
 Alpha virt. eigenvalues --    0.87525   1.01022   1.21468   1.21468   1.54210

  Beta  occ. eigenvalues --  -24.66405 -10.21890  -1.12340  -0.68748  -0.47078
  Beta  occ. eigenvalues --   -0.43961  -0.43960  -0.35157  -0.35157
  Beta virt. eigenvalues --   -0.04353   0.07554   0.11565   0.17052   0.17052
  Beta virt. eigenvalues --    0.52631   0.54807   0.54807   0.77305   0.84053
  Beta virt. eigenvalues --    0.88114   0.88114   1.02359   1.21934   1.21934

 Mulliken charges and spin densities:
               1          2
     1  H    0.103273   0.645758
     2  F   -0.338546  -0.112736
     3  C   -0.280787   0.529435
     4  H    0.172019  -0.020819
     5  H    0.172020  -0.020819
     6  H    0.172020  -0.020819
 Sum of Mulliken charges =  -0.00000   1.00000

 Dipole moment (field-independent basis, Debye):
    X=              0.0000    Y=             -1.4324    Z=              0.0000  Tot=              1.4324
 Quadrupole moment (field-independent basis, Debye-Ang):
   XX=            -12.7818   YY=            -12.0106   ZZ=            -12.7818
   XY=             -0.0000   XZ=             -0.0000   YZ=             -0.0000

  Exact polarizability:  12.861  -0.000  52.005   0.000  -0.000  12.861
 Approx polarizability:  15.422  -0.000  72.881   0.000  -0.000  15.422

 ******    1 imaginary frequencies (negative Signs) ******

                      1                      2                      3
                     A'                     A'                     A"
 Frequencies --  -1489.1569               269.1609               269.1668
 Red. masses --      1.8201                 1.1531                 1.1531
 Frc consts  --      2.3781                 0.0492                 0.0492
 IR Inten    --   2055.4587                 8.5246                 8.5246

                      4                      5                      6
                     A"                     A'                     A'
 Frequencies --    804.9488               804.9679               938.5938
 Red. masses --      1.1369                 1.1369                 1.6444
 Frc consts  --      0.4340                 0.4340                 0.8535
 IR Inten    --      0.4154                 0.4156               204.0562

                      7                      8                      9
                     A'                     A'                     A"
 Frequencies --   1198.9106              1475.5832              1475.5983
 Red. masses --      1.2495                 1.0861                 1.0861
 Frc consts  --      1.0582                 1.3933                 1.3933
 IR Inten    --     45.9803                 2.8944                 2.8949

                     10                     11                     12
                     A'                     A"                     A'
 Frequencies --   3127.9597              3272.4803              3272.4864
 Red. masses --      1.0167                 1.1152                 1.1152
 Frc consts  --      5.8611                 7.0367                 7.0368
 IR Inten    --      1.2682                12.2929                12.2928

 - Thermochemistry -
 -------------------
 Temperature   298.150 Kelvin.  Pressure   1.00000 Atm.
 Atom     1 has atomic number  1 and mass   1.00783

 Molecular mass:    35.02970 amu.
 Principal axes and moments of inertia in atomic units:
                           1         2         3
     Eigenvalues --    12.04935 112.41203 112.41211
           X           -0.00000   0.00000   1.00000
           Y            1.00000   0.00000   0.00000
           Z            0.00000   1.00000   0.00000
 This molecule is an asymmetric top.
 Rotational symmetry number  1.
 Rotational temperatures (Kelvin)      7.18826     0.77050     0.77050
 Rotational constants (GHZ):         149.77907    16.05470    16.05469
    1 imaginary frequencies ignored.
 Zero-point vibrational energy     101143.4 (Joules/Mol)
                                   24.17385 (Kcal/Mol)
 Warning -- explicit consideration of   2 degrees of freedom as
           vibrations may cause significant error
 Vibrational temperatures:    387.26   387.27  1158.14  1158.17  1350.43
          (Kelvin)           1724.96  2123.04  2123.06  4500.44  4708.37
                             4708.38

 Zero-point correction=                           0.038523 (Hartree/Particle)
 Thermal correction to Energy=                    0.042505
 Thermal correction to Enthalpy=                  0.043449
 Thermal correction to Gibbs Free Energy=         0.014264
 Sum of electronic and zero-point Energies=           -140.153755
 Sum of electronic and thermal Energies=              -140.149774
 Sum of electronic and thermal Enthalpies=            -140.148829
 Sum of electronic and thermal Free Energies=         -140.178015

                     E (Thermal)             CV                S
                      KCal/Mol        Cal/Mol-Kelvin    Cal/Mol-Kelvin
 Total                   26.672             11.525             61.426
 Electronic               0.000              0.000              1.377
 Translational            0.889              2.981             36.591
 Rotational               0.889              2.981             19.660
 Vibrational             24.895              5.563              3.797
 Vibration     1          0.674              1.730              1.602
 Vibration     2          0.674              1.730              1.602

 Optimization completed.
    -- Stationary point found.
 Normal termination of Gaussian 16 at Tue Oct  6 20:46:05 2020.
