 Gaussian 16, Revision A.03,
 Gaussian 16:  ES64L-G16RevA.03 25-Dec-2016

 ----------------------------------------------------------------------
 #P Opt(MaxCyc=100) B3LYP/6-31G* 5D 7F Integral=UltraFineGrid SCF=(NoSy
 mm,XQC,MaxCyc=120) IOp(1/33=1) EmpiricalDispersion=GD3BJ
 ----------------------------------------------------------------------

 TstMul:  Mul=     1
 TstMul:  ICh=    -1
 TstMul:  Mul=     1
 Symbolic Z-matrix:
 Charge = -1 Multiplicity = 1

 SCF Done:  E(RB3LYP) =  -215.483722282     A.U. after   14 cycles
 SCF Done:  E(RB3LYP) =  -215.486628844     A.U. after   13 cycles
 SCF Done:  E(RB3LYP) =  -215.488600542     A.U. after   13 cycles
 SCF Done:  E(RB3LYP) =  -215.489854233     A.U. after   13 cycles
 SCF Done:  E(RB3LYP) =  -215.490558022     A.U. after   12 cycles
 SCF Done:  E(RB3LYP) =  -215.490800458     A.U. after   12 cycles
 SCF Done:  E(RB3LYP) =  -215.490868180     A.U. after   12 cycles
 SCF Done:  E(RB3LYP) =  -215.490938000     A.U. after   11 cycles
 SCF Done:  E(RB3LYP) =  -215.490988063     A.U. after   12 cycles
 SCF Done:  E(RB3LYP) =  -215.490999581     A.U. after   11 cycles
 SCF Done:  E(RB3LYP) =  -215.496184930     A.U. after   12 cycles
 SCF Done:  E(RB3LYP) =  -215.496201056     A.U. after    9 cycles
 SCF Done:  E(RB3LYP) =  -215.496207828     A.U. after    9 cycles
 SCF Done:  E(RB3LYP) =  -215.496215695     A.U. after   11 cycles
 SCF Done:  E(RB3LYP) =  -215.496218422     A.U. after    9 cycles
 SCF Done:  E(RB3LYP) =  -215.496220246     A.U. after    9 cycles
 SCF Done:  E(RB3LYP) =  -215.496220933     A.U. after    8 cycles
 SCF Done:  E(RB3LYP) =  -215.496221398     A.U. after    8 cycles
 SCF Done:  E(RB3LYP) =  -215.496221530     A.U. after    8 cycles
 SCF Done:  E(RB3LYP) =  -215.496221550     A.U. after    8 cycles
 Optimization completed.
    -- Stationary point found.

                         Standard orientation:
 ---------------------------------------------------------------------
 Center     Atomic      Atomic             Coordinates (Angstroms)
 Number     Number       Type             X           Y           Z
 ---------------------------------------------------------------------
      1          9           0        1.634569    0.447188   -0.020183
      2          6           0        0.585297   -0.515993    0.022998
      3          1           0       -0.492933   -0.078734   -0.085717
      4          1           0        0.785430   -1.246494   -0.780913
      5          1           0        0.684596   -1.053641    0.983052
      6          8           0       -2.127894    0.131953   -0.112722
      7          1           0       -2.176842    0.394514    0.829009
 ---------------------------------------------------------------------

 The electronic state is 1-A.
 Alpha  occ. eigenvalues --  -24.46098 -18.74801 -10.01812  -0.96322  -0.57231
 Alpha  occ. eigenvalues --   -0.47385  -0.26675  -0.26129  -0.24139  -0.13606
 Alpha  occ. eigenvalues --   -0.12614  -0.06891   0.07825   0.07995
 Alpha virt. eigenvalues --    0.29673   0.32242   0.34601   0.36978   0.51696
 Alpha virt. eigenvalues --    0.72400   0.75201   0.77779   1.03420   1.05634
 Alpha virt. eigenvalues --    1.10055   1.14793   1.19971   1.26334   1.34658

 Mulliken charges:
               1
     1  F   -0.409096
     2  C   -0.172366
     3  H    0.254921
     4  H    0.049099
     5  H    0.046328
     6  O   -0.991692
     7  H    0.222807
 Sum of Mulliken charges =  -1.00000

 Dipole moment (field-independent basis, Debye):
    X=              5.5440    Y=             -0.8836    Z=              1.3040  Tot=              5.7634
 Quadrupole moment (field-independent basis, Debye-Ang):
   XX=            -41.7666   YY=            -20.7738   ZZ=            -19.2241
   XY=             -0.3109   XZ=             -2.8901   YZ=              0.6198

 Normal termination of Gaussian 16 at Tue Oct  6 20:25:47 2020.
