 Gaussian 16, Revision A.03,
 Gaussian 16:  ES64L-G16RevA.03 25-Dec-2016

 ----------------------------------------------------------------------
 #P Opt(MaxCyc=100) B3LYP/6-31G* 5D 7F Integral=UltraFineGrid SCF=(NoSy
 mm,XQC,MaxCyc=120) IOp(1/33=1) EmpiricalDispersion=GD3BJ
 ----------------------------------------------------------------------

 TstMul:  Mul=     3
 TstMul:  ICh=     0
 TstMul:  Mul=     3
 Symbolic Z-matrix:
 Charge =  0 Multiplicity = 3

 SCF Done:  E(UB3LYP) =  -55.2177222577     A.U. after   11 cycles
 SCF Done:  E(UB3LYP) =  -55.2178074195     A.U. after    8 cycles
 SCF Done:  E(UB3LYP) =  -55.2178079252     A.U. after    7 cycles
 Optimization completed.
    -- Stationary point found.

                         Standard orientation:
 ---------------------------------------------------------------------
 Center     Atomic      Atomic             Coordinates (Angstroms)
 Number     Number       Type             X           Y           Z
 ---------------------------------------------------------------------
      1          7           0        0.000000    0.000000    0.130995
      2          1           0        0.000000    0.000000   -0.916965
 ---------------------------------------------------------------------

 The electronic state is 3-SG.
 Alpha  occ. eigenvalues --  -14.40215  -0.83867  -0.39738  -0.32928  -0.32928
 Alpha virt. eigenvalues --    0.08954   0.63956   0.63956   0.71474   0.74222
 Alpha virt. eigenvalues --    0.96234   1.65291   1.65291   1.65644   1.65644
 Alpha virt. eigenvalues --    2.20871
  Beta  occ. eigenvalues --  -14.36408  -0.72752  -0.35197
  Beta virt. eigenvalues --   -0.09431  -0.09431   0.10698   0.73931   0.73931
  Beta virt. eigenvalues --    0.74276   0.76053   1.02363   1.73014   1.73014
  Beta virt. eigenvalues --    1.79939   1.79939   2.26213

 Mulliken charges and spin densities:
               1          2
     1  N   -0.293866   2.068270
     2  H    0.293866  -0.068270
 Sum of Mulliken charges =  -0.00000   2.00000

 Dipole moment (field-independent basis, Debye):
    X=              0.0000    Y=              0.0000    Z=             -1.5917  Tot=              1.5917
 Quadrupole moment (field-independent basis, Debye-Ang):
   XX=             -6.1488   YY=             -6.1488   ZZ=             -5.7557
   XY=              0.0000   XZ=              0.0000   YZ=              0.0000

 1\1\GINC-NODE34\FOpt\UB3LYP\6-31G(d)\H1N1(3)\RPEVERATI\06-Oct-2020\0\\
 #P Opt(MaxCyc=100) B3LYP/6-31G* 5D 7F Integral=UltraFineGrid SCF=(NoSy
 mm,XQC,MaxCyc=120) IOp(1/33=1) EmpiricalDispersion=GD3BJ\\TS search on
  BH76.\\0,3\N,0.,0.,0.1352046279\H,0.,0.,-0.912755396\\Version=ES64L-G
 16RevA.03\State=3-SG\HF=-55.2178079\S2=2.004998\S2-1=0.\S2A=2.000006\R
 MSD=3.853e-09\RMSF=7.124e-08\Dipole=0.,0.,-0.6262182\Quadrupole=-0.097
 4108,-0.0974108,0.1948217,0.,0.,0.\PG=C*V [C*(H1N1)]\\@

 Normal termination of Gaussian 16 at Tue Oct  6 20:16:52 2020.
