 Gaussian 16, Revision A.03,
 Gaussian 16:  ES64L-G16RevA.03 25-Dec-2016

 ----------------------------------------------------------------------
 #P Opt(MaxCyc=100) B3LYP/6-31G* 5D 7F Integral=UltraFineGrid SCF=(NoSy
 mm,XQC,MaxCyc=120) IOp(1/33=1) EmpiricalDispersion=GD3BJ
 ----------------------------------------------------------------------

 TstMul:  Mul=     1
 TstMul:  ICh=     0
 TstMul:  Mul=     1
 Symbolic Z-matrix:
 Charge =  0 Multiplicity = 1

 SCF Done:  E(RB3LYP) =  -93.3949234204     A.U. after   11 cycles
 SCF Done:  E(RB3LYP) =  -93.3950548049     A.U. after    8 cycles
 SCF Done:  E(RB3LYP) =  -93.3950550285     A.U. after    7 cycles
 Optimization completed.
    -- Stationary point found.

                         Standard orientation:
 ---------------------------------------------------------------------
 Center     Atomic      Atomic             Coordinates (Angstroms)
 Number     Number       Type             X           Y           Z
 ---------------------------------------------------------------------
      1          6           0        0.000000    0.000000   -0.743749
      2          7           0        0.000000    0.000000    0.432792
      3          1           0        0.000000    0.000000    1.432951
 ---------------------------------------------------------------------

 The electronic state is 1-SG.
 Alpha  occ. eigenvalues --  -14.37037 -10.23304  -0.94170  -0.66450  -0.37031
 Alpha  occ. eigenvalues --   -0.37031  -0.31159
 Alpha virt. eigenvalues --    0.02676   0.02676   0.06622   0.34931   0.51121
 Alpha virt. eigenvalues --    0.55296   0.55296   0.64486   0.72950   0.72950
 Alpha virt. eigenvalues --    0.92648   1.18498   1.42961   1.50868   1.50868

 Mulliken charges:
               1
     1  C    0.039911
     2  N   -0.404297
     3  H    0.364386
 Sum of Mulliken charges =  -0.00000

 Dipole moment (field-independent basis, Debye):
    X=              0.0000    Y=              0.0000    Z=              2.9387  Tot=              2.9387
 Quadrupole moment (field-independent basis, Debye-Ang):
   XX=            -11.5106   YY=            -11.5106   ZZ=             -9.9077
   XY=              0.0000   XZ=              0.0000   YZ=             -0.0000

 Normal termination of Gaussian 16 at Tue Oct  6 20:16:37 2020.
