 Gaussian 16, Revision A.03,
 Gaussian 16:  ES64L-G16RevA.03 25-Dec-2016

 ----------------------------------------------------------------------
 #P Opt(MaxCyc=100) B3LYP/6-31G* 5D 7F Integral=UltraFineGrid SCF=(NoSy
 mm,XQC,MaxCyc=120) IOp(1/33=1) EmpiricalDispersion=GD3BJ
 ----------------------------------------------------------------------

 TstMul:  Mul=     1
 TstMul:  ICh=     0
 TstMul:  Mul=     1
 Symbolic Z-matrix:
 Charge =  0 Multiplicity = 1

 SCF Done:  E(RB3LYP) =  -184.657511368     A.U. after   12 cycles
 SCF Done:  E(RB3LYP) =  -184.658022678     A.U. after    9 cycles
 SCF Done:  E(RB3LYP) =  -184.658030321     A.U. after    8 cycles
 Optimization completed.
    -- Stationary point found.

                         Standard orientation:
 ---------------------------------------------------------------------
 Center     Atomic      Atomic             Coordinates (Angstroms)
 Number     Number       Type             X           Y           Z
 ---------------------------------------------------------------------
      1          7           0        0.000000    0.000000   -1.207188
      2          7           0        0.000000    0.000000   -0.072875
      3          8           0        0.000000    0.000000    1.120055
 ---------------------------------------------------------------------

 The electronic state is 1-SG.
 Alpha  occ. eigenvalues --  -19.25114 -14.56893 -14.43804  -1.24228  -1.08681
 Alpha  occ. eigenvalues --   -0.60304  -0.56101  -0.56101  -0.47642  -0.34154
 Alpha  occ. eigenvalues --   -0.34154
 Alpha virt. eigenvalues --   -0.01858  -0.01858   0.13132   0.41429   0.59272
 Alpha virt. eigenvalues --    0.59272   0.59872   0.73689   0.73994   0.73994
 Alpha virt. eigenvalues --    0.74531   0.95145   0.95145   1.05115   1.33165

 Mulliken charges:
               1
     1  N   -0.099153
     2  N    0.529003
     3  O   -0.429850
 Sum of Mulliken charges =  -0.00000

 Dipole moment (field-independent basis, Debye):
    X=              0.0000    Y=             -0.0000    Z=             -0.0185  Tot=              0.0185
 Quadrupole moment (field-independent basis, Debye-Ang):
   XX=            -14.9827   YY=            -14.9827   ZZ=            -18.8757
   XY=              0.0000   XZ=              0.0000   YZ=              0.0000

 Normal termination of Gaussian 16 at Tue Oct  6 20:16:56 2020.
