 Gaussian 16, Revision A.03,

 ----------------------------------------------------------------------
 #P Opt(TS,MaxCyc=50,NoEigenTest,MaxStep=10,CalcFC) B3LYP/6-31G* 5D 7F
 Integral=UltraFineGrid SCF=(NoSymm,XQC,MaxCyc=120) IOp(1/33=1) Empiric
 alDispersion=GD3BJ
 ----------------------------------------------------------------------

 TstMul:  Mul=     2
 TstMul:  ICh=     0
 TstMul:  Mul=     2
 Symbolic Z-matrix:
 Charge =  0 Multiplicity = 2

 SCF Done:  E(UB3LYP) =  -185.138717103     A.U. after   19 cycles
 SCF Done:  E(UB3LYP) =  -185.139300224     A.U. after   17 cycles
 SCF Done:  E(UB3LYP) =  -185.139324931     A.U. after   15 cycles
 SCF Done:  E(UB3LYP) =  -185.139325309     A.U. after    9 cycles
 Optimization completed.
    -- Stationary point found.
 Normal termination of Gaussian 16 at Tue Oct  6 20:46:42 2020.
 Gaussian 16:  ES64L-G16RevA.03 25-Dec-2016

 ----------------------------------------------------------------------
 #P Freq B3LYP/6-31G* 5D 7F Integral=UltraFineGrid SCF=(NoSymm,XQC,MaxC
 yc=120) IOp(1/33=1) EmpiricalDispersion=GD3BJ Geom=Check Guess=Read
 ----------------------------------------------------------------------

 TstMul:  Mul=     2
 TstMul:  ICh=     0
 TstMul:  Mul=     2
 Structure from the checkpoint file:  "MN_68_n2ohts_BH76_B3LYP_631Gs.chk"
 Charge =  0 Multiplicity = 2

                         Standard orientation:
 ---------------------------------------------------------------------
 Center     Atomic      Atomic             Coordinates (Angstroms)
 Number     Number       Type             X           Y           Z
 ---------------------------------------------------------------------
      1          1           0       -0.357996   -2.012975   -0.000000
      2          8           0       -0.864740   -0.621621   -0.000000
      3          7           0       -0.000000    0.258031    0.000000
      4          7           0        1.039416    0.739960    0.000000
 ---------------------------------------------------------------------

 SCF Done:  E(UB3LYP) =  -185.139325309     A.U. after    1 cycles

 The electronic state is 2-A'.
 Alpha  occ. eigenvalues --  -19.27037 -14.54615 -14.43965  -1.22482  -1.07210
 Alpha  occ. eigenvalues --   -0.64506  -0.55395  -0.54653  -0.48511  -0.38551
 Alpha  occ. eigenvalues --   -0.35087  -0.22428
 Alpha virt. eigenvalues --   -0.05388  -0.03134   0.15106   0.44386   0.57867
 Alpha virt. eigenvalues --    0.59903   0.60106   0.68742   0.71067   0.74001
 Alpha virt. eigenvalues --    0.74225   0.76242   0.92641   0.94008   1.10924

  Beta  occ. eigenvalues --  -19.26981 -14.54442 -14.43351  -1.21933  -1.06471
  Beta  occ. eigenvalues --   -0.63499  -0.54381  -0.54290  -0.47188  -0.36298
  Beta  occ. eigenvalues --   -0.34776
  Beta virt. eigenvalues --   -0.09432  -0.02565  -0.00112   0.15718   0.44860
  Beta virt. eigenvalues --    0.60126   0.60318   0.61237   0.71223   0.74061
  Beta virt. eigenvalues --    0.74338   0.76144   0.78389   0.92666   0.94512

 Mulliken charges and spin densities:
               1          2
     1  H    0.047457   0.728363
     2  O   -0.375564  -0.098446
     3  N    0.421867   0.067435
     4  N   -0.093760   0.302648
 Sum of Mulliken charges =  -0.00000   1.00000

 Dipole moment (field-independent basis, Debye):
    X=             -0.1416    Y=             -0.0828    Z=              0.0000  Tot=              0.1641
 Quadrupole moment (field-independent basis, Debye-Ang):
   XX=            -18.8898   YY=            -17.4337   ZZ=            -16.3521
   XY=             -1.5428   XZ=             -0.0000   YZ=             -0.0000

  Exact polarizability:  21.998  12.104  39.436  -0.000   0.000   7.508
 Approx polarizability:  53.895  34.986  72.932  -0.000  -0.000  10.338

 ******    1 imaginary frequencies (negative Signs) ******

                      1                      2                      3
                     A'                     A'                     A"
 Frequencies --  -1328.8824               468.2704               571.6790
 Red. masses --      1.4694                 1.3444                 4.6082
 Frc consts  --      1.5289                 0.1737                 0.8873
 IR Inten    --    715.5981                12.0239                 6.6475

                      4                      5                      6
                     A'                     A'                     A'
 Frequencies --    817.4089              1218.2031              2174.9094
 Red. masses --      2.5295                 5.8628                14.0193
 Frc consts  --      0.9958                 5.1262                39.0715
 IR Inten    --      0.9196                40.4599               276.1367

 - Thermochemistry -
 -------------------
 Temperature   298.150 Kelvin.  Pressure   1.00000 Atm.
 Atom     1 has atomic number  1 and mass   1.00783

 Molecular mass:    45.00889 amu.
 Principal axes and moments of inertia in atomic units:
                           1         2         3
     Eigenvalues --     8.85000 155.38461 164.23462
           X            0.77643  -0.63020   0.00000
           Y            0.63020   0.77643   0.00000
           Z            0.00000  -0.00000   1.00000
 This molecule is an asymmetric top.
 Rotational symmetry number  1.
 Rotational temperatures (Kelvin)      9.78688     0.55742     0.52738
 Rotational constants (GHZ):         203.92548    11.61467    10.98880
    1 imaginary frequencies ignored.
 Zero-point vibrational energy      31404.8 (Joules/Mol)
                                    7.50592 (Kcal/Mol)
 Warning -- explicit consideration of   2 degrees of freedom as
           vibrations may cause significant error
 Vibrational temperatures:    673.74   822.52  1176.07  1752.72  3129.21
          (Kelvin)

 Zero-point correction=                           0.011961 (Hartree/Particle)
 Thermal correction to Energy=                    0.015308
 Thermal correction to Enthalpy=                  0.016252
 Thermal correction to Gibbs Free Energy=        -0.012371
 Sum of electronic and zero-point Energies=           -185.127364
 Sum of electronic and thermal Energies=              -185.124017
 Sum of electronic and thermal Enthalpies=            -185.123073
 Sum of electronic and thermal Free Energies=         -185.151696

                     E (Thermal)             CV                S
                      KCal/Mol        Cal/Mol-Kelvin    Cal/Mol-Kelvin
 Total                    9.606              9.196             60.243
 Electronic               0.000              0.000              1.377
 Translational            0.889              2.981             37.338
 Rotational               0.889              2.981             20.052
 Vibrational              7.829              3.235              1.476
 Vibration     1          0.825              1.320              0.742
 Vibration     2          0.928              1.093              0.501

 Optimization completed.
    -- Stationary point found.
 Normal termination of Gaussian 16 at Tue Oct  6 20:47:15 2020.
