 Gaussian 16, Revision A.03,

 ----------------------------------------------------------------------
 #P Opt(TS,MaxCyc=50,NoEigenTest,MaxStep=10,CalcFC) B3LYP/6-31G* 5D 7F
 Integral=UltraFineGrid SCF=(NoSymm,XQC,MaxCyc=120) IOp(1/33=1) Empiric
 alDispersion=GD3BJ
 ----------------------------------------------------------------------

 TstMul:  Mul=     1
 TstMul:  ICh=    -1
 TstMul:  Mul=     1
 Symbolic Z-matrix:
 Charge = -1 Multiplicity = 1

 SCF Done:  E(RB3LYP) =  -215.480058578     A.U. after   12 cycles
 SCF Done:  E(RB3LYP) =  -215.480679960     A.U. after   12 cycles
 SCF Done:  E(RB3LYP) =  -215.480691261     A.U. after    9 cycles
 SCF Done:  E(RB3LYP) =  -215.480691415     A.U. after    8 cycles
 Optimization completed.
    -- Stationary point found.
 Normal termination of Gaussian 16 at Tue Oct  6 20:45:55 2020.
 Gaussian 16:  ES64L-G16RevA.03 25-Dec-2016

 ----------------------------------------------------------------------
 #P Freq B3LYP/6-31G* 5D 7F Integral=UltraFineGrid SCF=(NoSymm,XQC,MaxC
 yc=120) IOp(1/33=1) EmpiricalDispersion=GD3BJ Geom=Check Guess=Read
 ----------------------------------------------------------------------

 TstMul:  Mul=     1
 TstMul:  ICh=    -1
 TstMul:  Mul=     1
 Structure from the checkpoint file:  "MN_63_hoch3fts_BH76_B3LYP_631Gs.chk"
 Charge = -1 Multiplicity = 1

                         Standard orientation:
 ---------------------------------------------------------------------
 Center     Atomic      Atomic             Coordinates (Angstroms)
 Number     Number       Type             X           Y           Z
 ---------------------------------------------------------------------
      1          9           0        1.848097   -0.020346   -0.000010
      2          6           0        0.076477    0.026912    0.000005
      3          1           0        0.037185    1.104053    0.003494
      4          1           0        0.022601   -0.499647   -0.939134
      5          1           0        0.022592   -0.505664    0.935758
      6          8           0       -1.887255    0.097749    0.000005
      7          1           0       -2.076073   -0.859097   -0.000093
 ---------------------------------------------------------------------

 SCF Done:  E(RB3LYP) =  -215.480691415     A.U. after    1 cycles

 The electronic state is 1-A.
 Alpha  occ. eigenvalues --  -24.30572 -18.81246 -10.00800  -0.77911  -0.64027
 Alpha  occ. eigenvalues --   -0.44521  -0.21727  -0.21661  -0.13363  -0.09448
 Alpha  occ. eigenvalues --   -0.03521  -0.03358   0.02417   0.02597
 Alpha virt. eigenvalues --    0.29387   0.31152   0.37014   0.37471   0.37765
 Alpha virt. eigenvalues --    0.77573   0.78310   0.89497   1.02568   1.08425
 Alpha virt. eigenvalues --    1.10648   1.12881   1.19800   1.22718   1.34736

 Mulliken charges:
               1
     1  F   -0.618185
     2  C   -0.093484
     3  H    0.124032
     4  H    0.111527
     5  H    0.111377
     6  O   -0.898199
     7  H    0.262932
 Sum of Mulliken charges =  -1.00000

 Dipole moment (field-independent basis, Debye):
    X=              0.4106    Y=             -1.2166    Z=             -0.0001  Tot=              1.2840
 Quadrupole moment (field-independent basis, Debye-Ang):
   XX=            -40.4831   YY=            -18.1560   ZZ=            -19.5924
   XY=              3.0294   XZ=              0.0003   YZ=              0.0003

  Exact polarizability:  39.264   2.337  19.918   0.001  -0.000  15.657
 Approx polarizability:  60.620   0.819  26.092   0.000  -0.000  19.149

 ******    1 imaginary frequencies (negative Signs) ******

                      1                      2                      3
                      A                      A                      A
 Frequencies --   -477.0761               205.5906               301.8459
 Red. masses --     10.3859                 1.0526                 3.2594
 Frc consts  --      1.3927                 0.0262                 0.1750
 IR Inten    --    833.3928                46.3840                16.3935

                      4                      5                      6
                      A                      A                      A
 Frequencies --    324.6420               351.5061               785.6408
 Red. masses --      4.4382                12.7730                 1.1396
 Frc consts  --      0.2756                 0.9298                 0.4144
 IR Inten    --     24.5108                 4.3655                32.7719

                      7                      8                      9
                      A                      A                      A
 Frequencies --   1023.3449              1065.6980              1148.7085
 Red. masses --      1.0214                 1.0451                 1.0656
 Frc consts  --      0.6302                 0.6993                 0.8284
 IR Inten    --      0.1759                 1.1618                 4.8146

                     10                     11                     12
                      A                      A                      A
 Frequencies --   1382.3139              1385.4959              3136.5140
 Red. masses --      1.1256                 1.1162                 1.0085
 Frc consts  --      1.2672                 1.2624                 5.8454
 IR Inten    --      1.1515                 1.6712                 0.2267

                     13                     14                     15
                      A                      A                      A
 Frequencies --   3317.3088              3323.5418              3614.8794
 Red. masses --      1.1288                 1.1267                 1.0676
 Frc consts  --      7.3187                 7.3326                 8.2194
 IR Inten    --     51.5658                42.2747                79.2804

 - Thermochemistry -
 -------------------
 Temperature   298.150 Kelvin.  Pressure   1.00000 Atm.
 Atom     1 has atomic number  9 and mass  18.99840

 Molecular mass:    51.02462 amu.
 Principal axes and moments of inertia in atomic units:
                           1         2         3
     Eigenvalues --    15.65262 456.33379 459.33497
           X            0.99988   0.01523   0.00000
           Y           -0.01523   0.99988  -0.00000
           Z           -0.00000   0.00000   1.00000
 This molecule is an asymmetric top.
 Rotational symmetry number  1.
 Rotational temperatures (Kelvin)      5.53351     0.18980     0.18856
 Rotational constants (GHZ):         115.29963     3.95487     3.92903
    1 imaginary frequencies ignored.
 Zero-point vibrational energy     127803.2 (Joules/Mol)
                                   30.54570 (Kcal/Mol)
 Warning -- explicit consideration of   4 degrees of freedom as
           vibrations may cause significant error
 Vibrational temperatures:    295.80   434.29   467.09   505.74  1130.36
          (Kelvin)           1472.37  1533.30  1652.74  1988.84  1993.42
                             4512.74  4772.87  4781.84  5201.01

 Zero-point correction=                           0.048678 (Hartree/Particle)
 Thermal correction to Energy=                    0.053411
 Thermal correction to Enthalpy=                  0.054355
 Thermal correction to Gibbs Free Energy=         0.022605
 Sum of electronic and zero-point Energies=           -215.432014
 Sum of electronic and thermal Energies=              -215.427280
 Sum of electronic and thermal Enthalpies=            -215.426336
 Sum of electronic and thermal Free Energies=         -215.458086

                     E (Thermal)             CV                S
                      KCal/Mol        Cal/Mol-Kelvin    Cal/Mol-Kelvin
 Total                   33.516             14.464             66.824
 Electronic               0.000              0.000              0.000
 Translational            0.889              2.981             37.712
 Rotational               0.889              2.981             22.711
 Vibrational             31.739              8.503              6.401
 Vibration     1          0.640              1.832              2.082
 Vibration     2          0.694              1.670              1.407
 Vibration     3          0.709              1.626              1.287
 Vibration     4          0.728              1.572              1.159

                           ! Non-Optimized Parameters !
 Normal termination of Gaussian 16 at Tue Oct  6 20:46:23 2020.
