 Gaussian 16, Revision A.03,
 Gaussian 16:  ES64L-G16RevA.03 25-Dec-2016

 ----------------------------------------------------------------------
 #P Opt(MaxCyc=100) B3LYP/6-31G* 5D 7F Integral=UltraFineGrid SCF=(NoSy
 mm,XQC,MaxCyc=120) IOp(1/33=1) EmpiricalDispersion=GD3BJ
 ----------------------------------------------------------------------

 TstMul:  Mul=     1
 TstMul:  ICh=    -1
 TstMul:  Mul=     1
 Symbolic Z-matrix:
 Charge = -1 Multiplicity = 1

 SCF Done:  E(RB3LYP) =  -215.558606307     A.U. after   12 cycles
 SCF Done:  E(RB3LYP) =  -215.559228266     A.U. after   11 cycles
 SCF Done:  E(RB3LYP) =  -215.560550175     A.U. after   11 cycles
 SCF Done:  E(RB3LYP) =  -215.560834873     A.U. after   11 cycles
 SCF Done:  E(RB3LYP) =  -215.563012635     A.U. after   12 cycles
 SCF Done:  E(RB3LYP) =  -215.563831294     A.U. after   11 cycles
 SCF Done:  E(RB3LYP) =  -215.563981172     A.U. after   10 cycles
 SCF Done:  E(RB3LYP) =  -215.564011652     A.U. after   10 cycles
 SCF Done:  E(RB3LYP) =  -215.564024754     A.U. after    8 cycles
 SCF Done:  E(RB3LYP) =  -215.564028672     A.U. after    9 cycles
 Optimization completed.
    -- Stationary point found.

                         Standard orientation:
 ---------------------------------------------------------------------
 Center     Atomic      Atomic             Coordinates (Angstroms)
 Number     Number       Type             X           Y           Z
 ---------------------------------------------------------------------
      1          6           0       -1.248140   -0.380607   -0.000062
      2          8           0       -0.484991    0.744693    0.000059
      3          1           0       -2.346015   -0.156747   -0.009459
      4          1           0       -1.094935   -1.065612   -0.879894
      5          1           0       -1.108935   -1.057057    0.889022
      6          1           0        0.689451    0.307186    0.000381
      7          9           0        1.692133   -0.189075   -0.000016
 ---------------------------------------------------------------------

 The electronic state is 1-A.
 Alpha  occ. eigenvalues --  -24.30723 -18.83569 -10.00465  -0.80129  -0.71300
 Alpha  occ. eigenvalues --   -0.42897  -0.23881  -0.20344  -0.18102  -0.12248
 Alpha  occ. eigenvalues --   -0.04789  -0.04762   0.00132   0.01031
 Alpha virt. eigenvalues --    0.29999   0.36071   0.37128   0.40992   0.54395
 Alpha virt. eigenvalues --    0.78401   0.78881   0.81700   0.94242   1.03389
 Alpha virt. eigenvalues --    1.04395   1.10277   1.23059   1.23598   1.24409

 Mulliken charges:
               1
     1  C   -0.078837
     2  O   -0.731797
     3  H    0.010936
     4  H    0.016247
     5  H    0.015377
     6  H    0.472715
     7  F   -0.704641
 Sum of Mulliken charges =  -1.00000

 Dipole moment (field-independent basis, Debye):
    X=             -1.8847    Y=             -0.9765    Z=             -0.0024  Tot=              2.1227
 Quadrupole moment (field-independent basis, Debye-Ang):
   XX=            -30.2501   YY=            -22.7951   ZZ=            -20.6361
   XY=              1.8609   XZ=              0.0044   YZ=              0.0039

 Normal termination of Gaussian 16 at Tue Oct  6 20:18:07 2020.
