 Gaussian 16, Revision A.03,
 Gaussian 16:  ES64L-G16RevA.03 25-Dec-2016

 ----------------------------------------------------------------------
 #P Opt(MaxCyc=100) B3LYP/6-31G* 5D 7F Integral=UltraFineGrid SCF=(NoSy
 mm,XQC,MaxCyc=120) IOp(1/33=1) EmpiricalDispersion=GD3BJ
 ----------------------------------------------------------------------

 TstMul:  Mul=     1
 TstMul:  ICh=     0
 TstMul:  Mul=     1
 Symbolic Z-matrix:
 Charge =  0 Multiplicity = 1

 SCF Done:  E(RB3LYP) =  -343.140028047     A.U. after    9 cycles
 SCF Done:  E(RB3LYP) =  -343.140200857     A.U. after    7 cycles
 SCF Done:  E(RB3LYP) =  -343.140203217     A.U. after    6 cycles
 Optimization completed.
    -- Stationary point found.

                         Standard orientation:
 ---------------------------------------------------------------------
 Center     Atomic      Atomic             Coordinates (Angstroms)
 Number     Number       Type             X           Y           Z
 ---------------------------------------------------------------------
      1         15           0        0.000000    0.000000    0.128780
      2          1           0        0.000000    1.196496   -0.643900
      3          1           0        1.036196   -0.598248   -0.643900
      4          1           0       -1.036196   -0.598248   -0.643900
 ---------------------------------------------------------------------

 The electronic state is 1-A1.
 Alpha  occ. eigenvalues --  -77.06086  -6.55074  -4.71171  -4.71171  -4.70739
 Alpha  occ. eigenvalues --   -0.64865  -0.38801  -0.38801  -0.27568
 Alpha virt. eigenvalues --    0.03198   0.03198   0.11608   0.28164   0.28164
 Alpha virt. eigenvalues --    0.30116   0.38525   0.66285   0.66285   0.67801
 Alpha virt. eigenvalues --    0.67801   0.68492   0.93416   1.14488   1.14488

 Mulliken charges:
               1
     1  P   -0.091565
     2  H    0.030522
     3  H    0.030522
     4  H    0.030522
 Sum of Mulliken charges =  -0.00000

 Dipole moment (field-independent basis, Debye):
    X=              0.0000    Y=              0.0000    Z=             -0.9593  Tot=              0.9593
 Quadrupole moment (field-independent basis, Debye-Ang):
   XX=            -14.6051   YY=            -14.6051   ZZ=            -17.0238
   XY=              0.0000   XZ=             -0.0000   YZ=             -0.0000

 Normal termination of Gaussian 16 at Tue Oct  6 20:17:44 2020.
