 Gaussian 16, Revision A.03,

 ----------------------------------------------------------------------
 #P Opt(TS,MaxCyc=50,NoEigenTest,MaxStep=10,CalcFC) B3LYP/6-31G* 5D 7F
 Integral=UltraFineGrid SCF=(NoSymm,XQC,MaxCyc=120) IOp(1/33=1) Empiric
 alDispersion=GD3BJ
 ----------------------------------------------------------------------

 TstMul:  Mul=     2
 TstMul:  ICh=     0
 TstMul:  Mul=     2
 Symbolic Z-matrix:
 Charge =  0 Multiplicity = 2

 SCF Done:  E(UB3LYP) =  -76.8930796431     A.U. after   16 cycles
 SCF Done:  E(UB3LYP) =  -76.8933463428     A.U. after   15 cycles
 SCF Done:  E(UB3LYP) =  -76.8933467405     A.U. after    9 cycles
 Optimization completed.
    -- Stationary point found.
 Normal termination of Gaussian 16 at Tue Oct  6 20:46:08 2020.
 Gaussian 16:  ES64L-G16RevA.03 25-Dec-2016

 ----------------------------------------------------------------------
 #P Freq B3LYP/6-31G* 5D 7F Integral=UltraFineGrid SCF=(NoSymm,XQC,MaxC
 yc=120) IOp(1/33=1) EmpiricalDispersion=GD3BJ Geom=Check Guess=Read
 ----------------------------------------------------------------------

 TstMul:  Mul=     2
 TstMul:  ICh=     0
 TstMul:  Mul=     2
 Structure from the checkpoint file:  "MN_79_RKT02_BH76_B3LYP_631Gs.chk"
 Charge =  0 Multiplicity = 2

                         Standard orientation:
 ---------------------------------------------------------------------
 Center     Atomic      Atomic             Coordinates (Angstroms)
 Number     Number       Type             X           Y           Z
 ---------------------------------------------------------------------
      1          8           0       -0.295387   -0.111388    0.000012
      2          1           0       -0.479403    0.851232   -0.000032
      3          1           0        1.009433   -0.087134   -0.000022
      4          1           0        1.833070    0.127009   -0.000044
 ---------------------------------------------------------------------

 SCF Done:  E(UB3LYP) =  -76.8933467405     A.U. after    1 cycles

 The electronic state is 2-A.
 Alpha  occ. eigenvalues --  -19.18395  -1.00282  -0.52895  -0.44344  -0.31854
 Alpha  occ. eigenvalues --   -0.31791
 Alpha virt. eigenvalues --    0.08031   0.18662   0.64065   0.78456   0.82419
 Alpha virt. eigenvalues --    0.86841   0.99146   1.06588   1.42242   1.70593
 Alpha virt. eigenvalues --    1.74264   1.75567   2.02475   2.41790
  Beta  occ. eigenvalues --  -19.16575  -0.95449  -0.48765  -0.40383  -0.29910
  Beta virt. eigenvalues --   -0.15057   0.08817   0.21521   0.66486   0.79196
  Beta virt. eigenvalues --    0.87819   0.87934   1.01247   1.09724   1.45213
  Beta virt. eigenvalues --    1.74934   1.75136   1.79602   2.06223   2.43671

 Mulliken charges and spin densities:
               1          2
     1  O   -0.552632   0.701399
     2  H    0.401617  -0.019595
     3  H    0.152143  -0.105630
     4  H   -0.001128   0.423825
 Sum of Mulliken charges =  -0.00000   1.00000

 Dipole moment (field-independent basis, Debye):
    X=              0.3690    Y=              1.6550    Z=             -0.0001  Tot=              1.6957
 Quadrupole moment (field-independent basis, Debye-Ang):
   XX=             -6.8335   YY=             -6.5646   ZZ=             -8.4826
   XY=             -0.8339   XZ=              0.0000   YZ=             -0.0001

  Exact polarizability:  22.070   0.648   6.862  -0.000  -0.000   2.585
 Approx polarizability:  28.712   2.184   8.788  -0.001  -0.000   2.747

 ******    1 imaginary frequencies (negative Signs) ******

                      1                      2                      3
                      A                      A                      A
 Frequencies --  -1027.2241               525.7029               680.6380
 Red. masses --      1.1007                 1.0196                 1.0170
 Frc consts  --      0.6843                 0.1660                 0.2776
 IR Inten    --    123.9434                25.5191                26.1267

                      4                      5                      6
                      A                      A                      A
 Frequencies --   1179.1596              2258.2431              3661.0758
 Red. masses --      1.0655                 1.0275                 1.0666
 Frc consts  --      0.8728                 3.0872                 8.4230
 IR Inten    --    138.2235                94.3488                10.4690

 - Thermochemistry -
 -------------------
 Temperature   298.150 Kelvin.  Pressure   1.00000 Atm.
 Atom     1 has atomic number  8 and mass  15.99491

 Molecular mass:    19.01839 amu.
 Principal axes and moments of inertia in atomic units:
                           1         2         3
     Eigenvalues --     3.23825  20.55758  23.79583
           X            0.99951  -0.03138   0.00002
           Y            0.03138   0.99951   0.00005
           Z           -0.00002  -0.00005   1.00000
 This molecule is an asymmetric top.
 Rotational symmetry number  1.
 Rotational temperatures (Kelvin)     26.74711     4.21324     3.63988
 Rotational constants (GHZ):         557.31926    87.78958    75.84274
    1 imaginary frequencies ignored.
 Zero-point vibrational energy      49673.9 (Joules/Mol)
                                   11.87234 (Kcal/Mol)
 Warning -- explicit consideration of   1 degrees of freedom as
           vibrations may cause significant error
 Vibrational temperatures:    756.37   979.29  1696.55  3249.11  5267.47
          (Kelvin)

 Zero-point correction=                           0.018920 (Hartree/Particle)
 Thermal correction to Energy=                    0.022097
 Thermal correction to Enthalpy=                  0.023041
 Thermal correction to Gibbs Free Energy=        -0.001781
 Sum of electronic and zero-point Energies=            -76.874427
 Sum of electronic and thermal Energies=               -76.871250
 Sum of electronic and thermal Enthalpies=             -76.870305
 Sum of electronic and thermal Free Energies=          -76.895128

                     E (Thermal)             CV                S
                      KCal/Mol        Cal/Mol-Kelvin    Cal/Mol-Kelvin
 Total                   13.866              8.245             52.244
 Electronic               0.000              0.000              1.377
 Translational            0.889              2.981             34.771
 Rotational               0.889              2.981             15.124
 Vibrational             12.089              2.283              0.972
 Vibration     1          0.881              1.193              0.597

 Optimization completed.
    -- Stationary point found.

 1\1\GINC-NODE59\Freq\UB3LYP\6-31G(d)\H3O1(2)\RPEVERATI\06-Oct-2020\0\\
 #P Freq B3LYP/6-31G* 5D 7F Integral=UltraFineGrid SCF=(NoSymm,XQC,MaxC
 yc=120) IOp(1/33=1) EmpiricalDispersion=GD3BJ Geom=Check Guess=Read\\T
 S search on BH76.\\0,2\O,-0.2899355098,-0.1050751382,0.0000472441\H,-0
 .4595632501,0.8601844034,0.0000030762\H,1.0151011201,-0.1002979668,0.0
 000125469\H,1.8418427067,0.1015279303,-0.0000088674\\Version=ES64L-G16
 RevA.03\State=2-A\HF=-76.8933467\S2=0.758606\S2-1=0.\S2A=0.750017\RMSD
 =3.451e-09\RMSF=1.340e-05\ZeroPoint=0.0189198\Thermal=0.0220972\Dipole

 Normal termination of Gaussian 16 at Tue Oct  6 20:46:28 2020.
