 Gaussian 16, Revision A.03,
 Gaussian 16:  ES64L-G16RevA.03 25-Dec-2016

 ----------------------------------------------------------------------
 #P Opt(MaxCyc=100) B3LYP/6-31G* 5D 7F Integral=UltraFineGrid SCF=(NoSy
 mm,XQC,MaxCyc=120) IOp(1/33=1) EmpiricalDispersion=GD3BJ
 ----------------------------------------------------------------------

 TstMul:  Mul=     2
 TstMul:  ICh=     0
 TstMul:  Mul=     2
 Symbolic Z-matrix:
 Charge =  0 Multiplicity = 2

 SCF Done:  E(UB3LYP) =  -55.8715165035     A.U. after   11 cycles
 SCF Done:  E(UB3LYP) =  -55.8716558428     A.U. after    8 cycles
 SCF Done:  E(UB3LYP) =  -55.8716599025     A.U. after    8 cycles
 Optimization completed.
    -- Stationary point found.

                         Standard orientation:
 ---------------------------------------------------------------------
 Center     Atomic      Atomic             Coordinates (Angstroms)
 Number     Number       Type             X           Y           Z
 ---------------------------------------------------------------------
      1          7           0        0.000000    0.000000    0.144118
      2          1           0        0.000000    0.805262   -0.504413
      3          1           0       -0.000000   -0.805262   -0.504413
 ---------------------------------------------------------------------

 The electronic state is 2-B1.
 Alpha  occ. eigenvalues --  -14.35431  -0.85131  -0.46774  -0.31971  -0.30860
 Alpha virt. eigenvalues --    0.07822   0.14964   0.65321   0.67944   0.71858
 Alpha virt. eigenvalues --    0.82918   0.88325   1.08717   1.65458   1.67502
 Alpha virt. eigenvalues --    1.68109   2.08167   2.37163
  Beta  occ. eigenvalues --  -14.33504  -0.79801  -0.45404  -0.29463
  Beta virt. eigenvalues --   -0.09702   0.08848   0.15600   0.68214   0.73344
  Beta virt. eigenvalues --    0.74241   0.85032   0.89418   1.12410   1.69641
  Beta virt. eigenvalues --    1.72490   1.74978   2.15279   2.38248

 Mulliken charges and spin densities:
               1          2
     1  N   -0.590420   1.074541
     2  H    0.295210  -0.037270
     3  H    0.295210  -0.037270
 Sum of Mulliken charges =   0.00000   1.00000

 Dipole moment (field-independent basis, Debye):
    X=             -0.0000    Y=              0.0000    Z=             -2.0068  Tot=              2.0068
 Quadrupole moment (field-independent basis, Debye-Ang):
   XX=             -6.9402   YY=             -5.5127   ZZ=             -7.3158
   XY=              0.0000   XZ=              0.0000   YZ=             -0.0000

 1\1\GINC-NODE61\FOpt\UB3LYP\6-31G(d)\H2N1(2)\RPEVERATI\06-Oct-2020\0\\
 #P Opt(MaxCyc=100) B3LYP/6-31G* 5D 7F Integral=UltraFineGrid SCF=(NoSy
 mm,XQC,MaxCyc=120) IOp(1/33=1) EmpiricalDispersion=GD3BJ\\TS search on
  BH76.\\0,2\N,0.,0.,0.1495226885\H,0.,0.8052620901,-0.4990080059\H,0.,
 -0.8052620901,-0.4990080059\\Version=ES64L-G16RevA.03\State=2-B1\HF=-5
 5.8716599\S2=0.752798\S2-1=0.\S2A=0.750004\RMSD=8.410e-10\RMSF=4.409e-
 05\Dipole=0.,0.,-0.7895312\Quadrupole=-0.2607101,0.8006073,-0.5398973,
 0.,0.,0.\PG=C02V [C2(N1),SGV(H2)]\\@

 Normal termination of Gaussian 16 at Tue Oct  6 20:17:20 2020.
