 Gaussian 16, Revision A.03,
 Gaussian 16:  ES64L-G16RevA.03 25-Dec-2016

 ----------------------------------------------------------------------
 #P Opt(MaxCyc=100) B3LYP/6-31G* 5D 7F Integral=UltraFineGrid SCF=(NoSy
 mm,XQC,MaxCyc=120) IOp(1/33=1) EmpiricalDispersion=GD3BJ
 ----------------------------------------------------------------------

 TstMul:  Mul=     1
 TstMul:  ICh=     0
 TstMul:  Mul=     1
 Symbolic Z-matrix:
 Charge =  0 Multiplicity = 1

 SCF Done:  E(RB3LYP) =  -56.5477226208     A.U. after    9 cycles
 SCF Done:  E(RB3LYP) =  -56.5478871369     A.U. after    7 cycles
 SCF Done:  E(RB3LYP) =  -56.5479077350     A.U. after    7 cycles
 Optimization completed.
    -- Stationary point found.

                         Standard orientation:
 ---------------------------------------------------------------------
 Center     Atomic      Atomic             Coordinates (Angstroms)
 Number     Number       Type             X           Y           Z
 ---------------------------------------------------------------------
      1          7           0        0.000000    0.000000    0.118457
      2          1           0        0.000000    0.939666   -0.276400
      3          1           0        0.813775   -0.469833   -0.276400
      4          1           0       -0.813775   -0.469833   -0.276400
 ---------------------------------------------------------------------

 The electronic state is 1-A1.
 Alpha  occ. eigenvalues --  -14.29724  -0.84462  -0.45224  -0.45224  -0.25149
 Alpha virt. eigenvalues --    0.08044   0.16821   0.16821   0.68388   0.68388
 Alpha virt. eigenvalues --    0.72448   0.91590   0.91590   0.92801   1.24097
 Alpha virt. eigenvalues --    1.67573   1.67573   1.94661   2.40305   2.40305

 Mulliken charges:
               1
     1  N   -0.894680
     2  H    0.298227
     3  H    0.298227
     4  H    0.298227
 Sum of Mulliken charges =  -0.00000

 Dipole moment (field-independent basis, Debye):
    X=              0.0000    Y=              0.0000    Z=             -1.8928  Tot=              1.8928
 Quadrupole moment (field-independent basis, Debye-Ang):
   XX=             -6.1412   YY=             -6.1412   ZZ=             -8.7841
   XY=             -0.0000   XZ=             -0.0000   YZ=             -0.0000

 Normal termination of Gaussian 16 at Tue Oct  6 20:16:56 2020.
