 Gaussian 16, Revision A.03,
 Gaussian 16:  ES64L-G16RevA.03 25-Dec-2016

 ----------------------------------------------------------------------
 #P Opt(MaxCyc=100) B3LYP/6-31G* 5D 7F Integral=UltraFineGrid SCF=(NoSy
 mm,XQC,MaxCyc=120) IOp(1/33=1) EmpiricalDispersion=GD3BJ
 ----------------------------------------------------------------------

 TstMul:  Mul=     3
 TstMul:  ICh=     0
 TstMul:  Mul=     3
 Symbolic Z-matrix:
 Charge =  0 Multiplicity = 3

 SCF Done:  E(UB3LYP) =  -75.0594038685     A.U. after   10 cycles

 Unable to determine electronic state:  an orbital has unidentified symmetry.
 Alpha  occ. eigenvalues --  -19.28384  -1.00605  -0.44635  -0.44635  -0.36985
 Alpha virt. eigenvalues --    0.79187   0.79187   0.83876   0.91838   1.67550
 Alpha virt. eigenvalues --    1.67550   1.72377   1.72377   1.74089
  Beta  occ. eigenvalues --  -19.23403  -0.84824  -0.31774
  Beta virt. eigenvalues --   -0.16473  -0.16473   0.86815   0.90441   0.90441
  Beta virt. eigenvalues --    0.99462   1.79383   1.79383   1.79951   1.81009
  Beta virt. eigenvalues --    1.81009

 Mulliken charges and spin densities:
               1          2
     1  O   -0.000000   2.000000
 Sum of Mulliken charges =  -0.00000   2.00000

 Dipole moment (field-independent basis, Debye):
    X=              0.0000    Y=              0.0000    Z=             -0.0000  Tot=              0.0000
 Quadrupole moment (field-independent basis, Debye-Ang):
   XX=             -4.5412   YY=             -5.6462   ZZ=             -4.5431
   XY=              0.0000   XZ=              0.0000   YZ=              0.0460

 Optimization completed.
    -- Stationary point found.

                         Standard orientation:
 ---------------------------------------------------------------------
 Center     Atomic      Atomic             Coordinates (Angstroms)
 Number     Number       Type             X           Y           Z
 ---------------------------------------------------------------------
      1          8           0        0.000000    0.000000    0.000000
 ---------------------------------------------------------------------

 Normal termination of Gaussian 16 at Tue Oct  6 20:16:50 2020.
