 Gaussian 16, Revision A.03,
 Gaussian 16:  ES64L-G16RevA.03 25-Dec-2016

 ----------------------------------------------------------------------
 #P Opt(MaxCyc=100) B3LYP/6-31G* 5D 7F Integral=UltraFineGrid SCF=(NoSy
 mm,XQC,MaxCyc=120) IOp(1/33=1) EmpiricalDispersion=GD3BJ
 ----------------------------------------------------------------------

 TstMul:  Mul=     2
 TstMul:  ICh=     0
 TstMul:  Mul=     2
 Symbolic Z-matrix:
 Charge =  0 Multiplicity = 2

 SCF Done:  E(UB3LYP) =  -75.7216079577     A.U. after   11 cycles
 SCF Done:  E(UB3LYP) =  -75.7217875202     A.U. after    8 cycles
 SCF Done:  E(UB3LYP) =  -75.7217884974     A.U. after    7 cycles
 Optimization completed.
    -- Stationary point found.

                         Standard orientation:
 ---------------------------------------------------------------------
 Center     Atomic      Atomic             Coordinates (Angstroms)
 Number     Number       Type             X           Y           Z
 ---------------------------------------------------------------------
      1          8           0        0.000000    0.000000    0.109255
      2          1           0        0.000000    0.000000   -0.874037
 ---------------------------------------------------------------------

 Unable to determine electronic state:  partially filled degenerate orbitals.
 Alpha  occ. eigenvalues --  -19.20622  -1.00609  -0.46569  -0.40287  -0.32782
 Alpha virt. eigenvalues --    0.07027   0.77327   0.81702   0.86554   0.91878
 Alpha virt. eigenvalues --    1.22878   1.69176   1.74033   1.75290   1.75325
 Alpha virt. eigenvalues --    2.39470
  Beta  occ. eigenvalues --  -19.18139  -0.93563  -0.43976  -0.30087
  Beta virt. eigenvalues --   -0.15250   0.07920   0.78108   0.88158   0.91690
  Beta virt. eigenvalues --    0.93753   1.26527   1.74999   1.75702   1.81617
  Beta virt. eigenvalues --    1.82395   2.41906

 Mulliken charges and spin densities:
               1          2
     1  O   -0.412308   1.032524
     2  H    0.412308  -0.032524
 Sum of Mulliken charges =   0.00000   1.00000

 Dipole moment (field-independent basis, Debye):
    X=              0.0000    Y=              0.0000    Z=             -1.7607  Tot=              1.7607
 Quadrupole moment (field-independent basis, Debye-Ang):
   XX=             -6.4251   YY=             -5.2870   ZZ=             -4.4221
   XY=             -0.0000   XZ=              0.0000   YZ=             -0.0000

 1\1\GINC-NODE53\FOpt\UB3LYP\6-31G(d)\H1O1(2)\RPEVERATI\06-Oct-2020\0\\
 #P Opt(MaxCyc=100) B3LYP/6-31G* 5D 7F Integral=UltraFineGrid SCF=(NoSy
 mm,XQC,MaxCyc=120) IOp(1/33=1) EmpiricalDispersion=GD3BJ\\TS search on
  BH76.\\0,2\O,0.,0.,0.1148526076\H,0.,0.,-0.8684385273\\Version=ES64L-
 G16RevA.03\HF=-75.7217885\S2=0.751946\S2-1=0.\S2A=0.750002\RMSD=2.876e
 -09\RMSF=2.321e-07\Dipole=0.,0.,-0.6927037\Quadrupole=-0.7784253,0.067
 7049,0.7107204,0.,0.,0.\PG=C*V [C*(H1O1)]\\@

 Normal termination of Gaussian 16 at Tue Oct  6 20:17:51 2020.
