 Gaussian 16, Revision A.03,

 ----------------------------------------------------------------------
 #P Opt(TS,MaxCyc=50,NoEigenTest,MaxStep=10,CalcFC) B3LYP/6-31G* 5D 7F
 Integral=UltraFineGrid SCF=(NoSymm,XQC,MaxCyc=120) IOp(1/33=1) Empiric
 alDispersion=GD3BJ
 ----------------------------------------------------------------------

 TstMul:  Mul=     2
 TstMul:  ICh=     0
 TstMul:  Mul=     2
 Symbolic Z-matrix:
 Charge =  0 Multiplicity = 2

 SCF Done:  E(UB3LYP) =  -41.0042766645     A.U. after   13 cycles
 SCF Done:  E(UB3LYP) =  -41.0042984264     A.U. after   11 cycles
 SCF Done:  E(UB3LYP) =  -41.0042987628     A.U. after    9 cycles
 Optimization completed.
    -- Stationary point found.
 Normal termination of Gaussian 16 at Tue Oct  6 20:46:27 2020.
 Gaussian 16:  ES64L-G16RevA.03 25-Dec-2016

 ----------------------------------------------------------------------
 #P Freq B3LYP/6-31G* 5D 7F Integral=UltraFineGrid SCF=(NoSymm,XQC,MaxC
 yc=120) IOp(1/33=1) EmpiricalDispersion=GD3BJ Geom=Check Guess=Read
 ----------------------------------------------------------------------

 TstMul:  Mul=     2
 TstMul:  ICh=     0
 TstMul:  Mul=     2
 Structure from the checkpoint file:  "MN_80_RKT03_BH76_B3LYP_631Gs.chk"
 Charge =  0 Multiplicity = 2

                         Standard orientation:
 ---------------------------------------------------------------------
 Center     Atomic      Atomic             Coordinates (Angstroms)
 Number     Number       Type             X           Y           Z
 ---------------------------------------------------------------------
      1          6           0        0.000000    0.272482    0.000000
      2          1           0        1.059603    0.521203    0.000000
      3          1           0       -0.529810    0.521186    0.917644
      4          1           0       -0.529810    0.521186   -0.917644
      5          1           0        0.000008   -1.151228    0.000000
      6          1           0        0.000009   -2.047239    0.000000
 ---------------------------------------------------------------------

 SCF Done:  E(UB3LYP) =  -41.0042987628     A.U. after    1 cycles

 The electronic state is 2-A'.
 Alpha  occ. eigenvalues --  -10.18928  -0.70196  -0.44705  -0.41640  -0.41640
 Alpha  occ. eigenvalues --   -0.21380
 Alpha virt. eigenvalues --    0.11459   0.16958   0.16958   0.19891   0.52474
 Alpha virt. eigenvalues --    0.52474   0.55549   0.69507   0.89351   0.89351
 Alpha virt. eigenvalues --    0.92323   0.99704   1.19929   1.63551   1.63551

  Beta  occ. eigenvalues --  -10.17815  -0.67443  -0.40881  -0.40880  -0.40522
  Beta virt. eigenvalues --   -0.07425   0.12299   0.17606   0.17606   0.22793
  Beta virt. eigenvalues --    0.52934   0.52935   0.60475   0.73419   0.90063
  Beta virt. eigenvalues --    0.90063   0.94511   1.00593   1.22429   1.67742

 Mulliken charges and spin densities:
               1          2
     1  C   -0.521814   0.726503
     2  H    0.177152  -0.022703
     3  H    0.177152  -0.022703
     4  H    0.177152  -0.022703
     5  H    0.003774  -0.150206
     6  H   -0.013416   0.491811
 Sum of Mulliken charges =  -0.00000   1.00000

 Dipole moment (field-independent basis, Debye):
    X=             -0.0000    Y=              0.7612    Z=              0.0000  Tot=              0.7612
 Quadrupole moment (field-independent basis, Debye-Ang):
   XX=             -9.2395   YY=            -11.2412   ZZ=             -9.2396
   XY=              0.0000   XZ=             -0.0000   YZ=              0.0000

  Exact polarizability:  12.247  -0.000  28.318   0.000  -0.000  12.247
 Approx polarizability:  14.386  -0.000  34.193   0.000  -0.000  14.386

 ******    1 imaginary frequencies (negative Signs) ******

                      1                      2                      3
                     A'                     A"                     A'
 Frequencies --  -1079.9273               564.7600               564.7873
 Red. masses --      1.1762                 1.0463                 1.0463
 Frc consts  --      0.8082                 0.1966                 0.1966
 IR Inten    --      3.7673                 1.0120                 1.0120

                      4                      5                      6
                     A'                     A"                     A'
 Frequencies --   1090.2917              1185.5145              1185.5159
 Red. masses --      1.0774                 1.0476                 1.0476
 Frc consts  --      0.7546                 0.8674                 0.8674
 IR Inten    --      6.3797                 1.5061                 1.5060

                      7                      8                      9
                     A'                     A"                     A'
 Frequencies --   1459.0626              1459.0786              1952.0703
 Red. masses --      1.0755                 1.0755                 1.0655
 Frc consts  --      1.3490                 1.3490                 2.3921
 IR Inten    --      3.4539                 3.4537                28.7478

                     10                     11                     12
                     A'                     A"                     A'
 Frequencies --   3100.9679              3243.5949              3243.6355
 Red. masses --      1.0170                 1.1125                 1.1125
 Frc consts  --      5.7622                 6.8961                 6.8963
 IR Inten    --      0.3804                11.8506                11.8494

 - Thermochemistry -
 -------------------
 Temperature   298.150 Kelvin.  Pressure   1.00000 Atm.
 Atom     1 has atomic number  6 and mass  12.00000

 Molecular mass:    17.03913 amu.
 Principal axes and moments of inertia in atomic units:
                           1         2         3
     Eigenvalues --    12.12254  31.47836  31.47841
           X           -0.00000   1.00000   0.00000
           Y            1.00000   0.00000   0.00000
           Z            0.00000   0.00000   1.00000
 This molecule is an asymmetric top.
 Rotational symmetry number  1.
 Rotational temperatures (Kelvin)      7.14487     2.75154     2.75153
 Rotational constants (GHZ):         148.87487    57.33276    57.33268
    1 imaginary frequencies ignored.
 Zero-point vibrational energy     113940.0 (Joules/Mol)
                                   27.23231 (Kcal/Mol)
 Warning -- explicit consideration of   2 degrees of freedom as
           vibrations may cause significant error
 Vibrational temperatures:    812.56   812.60  1568.69  1705.69  1705.69
          (Kelvin)           2099.27  2099.29  2808.59  4461.60  4666.81
                             4666.87

 Zero-point correction=                           0.043397 (Hartree/Particle)
 Thermal correction to Energy=                    0.046665
 Thermal correction to Enthalpy=                  0.047609
 Thermal correction to Gibbs Free Energy=         0.021872
 Sum of electronic and zero-point Energies=            -40.960901
 Sum of electronic and thermal Energies=               -40.957634
 Sum of electronic and thermal Enthalpies=             -40.956690
 Sum of electronic and thermal Free Energies=          -40.982427

                     E (Thermal)             CV                S
                      KCal/Mol        Cal/Mol-Kelvin    Cal/Mol-Kelvin
 Total                   29.283              9.081             54.168
 Electronic               0.000              0.000              1.377
 Translational            0.889              2.981             34.443
 Rotational               0.889              2.981             17.136
 Vibrational             27.505              3.120              1.211
 Vibration     1          0.921              1.108              0.514
 Vibration     2          0.921              1.107              0.514

 Optimization completed.
    -- Stationary point found.

 1\1\GINC-NODE20\Freq\UB3LYP\6-31G(d)\C1H5(2)\RPEVERATI\06-Oct-2020\0\\
 #P Freq B3LYP/6-31G* 5D 7F Integral=UltraFineGrid SCF=(NoSymm,XQC,MaxC
 yc=120) IOp(1/33=1) EmpiricalDispersion=GD3BJ Geom=Check Guess=Read\\T
 S search on BH76.\\0,2\C,0.0000445197,0.278875239,0.\H,1.0596693114,0.
 5275044215,0.\H,-0.5297439307,0.527624269,0.9176444989\H,-0.5297439307
 ,0.527624269,-0.9176444989\H,-0.0000706034,-1.144835327,0.\H,-0.000146
 552,-2.0408460214,0.\\Version=ES64L-G16RevA.03\State=2-A'\HF=-41.00429
 88\S2=0.758561\S2-1=0.\S2A=0.750023\RMSD=3.759e-10\RMSF=8.677e-06\Zero

 Normal termination of Gaussian 16 at Tue Oct  6 20:46:49 2020.
