 Gaussian 16, Revision A.03,

 ----------------------------------------------------------------------
 #P Opt(TS,MaxCyc=50,NoEigenTest,MaxStep=10,CalcFC) B3LYP/6-31G* 5D 7F
 Integral=UltraFineGrid SCF=(NoSymm,XQC,MaxCyc=120) IOp(1/33=1) Empiric
 alDispersion=GD3BJ
 ----------------------------------------------------------------------

 TstMul:  Mul=     2
 TstMul:  ICh=     0
 TstMul:  Mul=     2
 Symbolic Z-matrix:
 Charge =  0 Multiplicity = 2

 SCF Done:  E(UB3LYP) =  -155.556031331     A.U. after   17 cycles
 SCF Done:  E(UB3LYP) =  -155.556288126     A.U. after   14 cycles
 SCF Done:  E(UB3LYP) =  -155.556422734     A.U. after   17 cycles
 SCF Done:  E(UB3LYP) =  -155.556414876     A.U. after   19 cycles
 SCF Done:  E(UB3LYP) =  -155.556404047     A.U. after   13 cycles
 SCF Done:  E(UB3LYP) =  -155.556412630     A.U. after   17 cycles
 SCF Done:  E(UB3LYP) =  -155.556432854     A.U. after   16 cycles
 SCF Done:  E(UB3LYP) =  -155.556437978     A.U. after   16 cycles
 SCF Done:  E(UB3LYP) =  -155.556438079     A.U. after   12 cycles
 Optimization completed.
    -- Stationary point found.
 Normal termination of Gaussian 16 at Tue Oct  6 20:49:40 2020.
 Gaussian 16:  ES64L-G16RevA.03 25-Dec-2016

 ----------------------------------------------------------------------
 #P Freq B3LYP/6-31G* 5D 7F Integral=UltraFineGrid SCF=(NoSymm,XQC,MaxC
 yc=120) IOp(1/33=1) EmpiricalDispersion=GD3BJ Geom=Check Guess=Read
 ----------------------------------------------------------------------

 TstMul:  Mul=     2
 TstMul:  ICh=     0
 TstMul:  Mul=     2
 Structure from the checkpoint file:  "MN_85_RKT09_BH76_B3LYP_631Gs.chk"
 Charge =  0 Multiplicity = 2

                         Standard orientation:
 ---------------------------------------------------------------------
 Center     Atomic      Atomic             Coordinates (Angstroms)
 Number     Number       Type             X           Y           Z
 ---------------------------------------------------------------------
      1          6           0        1.426103   -0.468965    0.015107
      2          6           0        0.481112    0.712583   -0.009425
      3          8           0       -1.850042   -0.253343   -0.102475
      4          1           0        1.205583   -1.139224    0.852563
      5          1           0        1.360071   -1.050765   -0.909886
      6          1           0        2.466526   -0.131331    0.123826
      7          1           0        0.457781    1.291627    0.918363
      8          1           0        0.597764    1.373338   -0.873365
      9          1           0       -0.659675    0.268518   -0.153418
     10          1           0       -2.071005   -0.047127    0.827623
 ---------------------------------------------------------------------

 SCF Done:  E(UB3LYP) =  -155.556438079     A.U. after    1 cycles

 The electronic state is 2-A.
 Alpha  occ. eigenvalues --  -19.14907 -10.19456 -10.17851  -0.97295  -0.76922
 Alpha  occ. eigenvalues --   -0.63021  -0.48575  -0.45363  -0.42292  -0.39570
 Alpha  occ. eigenvalues --   -0.38167  -0.36021  -0.28890  -0.26031
 Alpha virt. eigenvalues --    0.08234   0.11747   0.14348   0.14959   0.16742
 Alpha virt. eigenvalues --    0.18426   0.22968   0.29320   0.49420   0.52533
 Alpha virt. eigenvalues --    0.54378   0.60189   0.62655   0.66137   0.80600

  Beta  occ. eigenvalues --  -19.13243 -10.18698 -10.17867  -0.92994  -0.75832
  Beta  occ. eigenvalues --   -0.61774  -0.45861  -0.44815  -0.41056  -0.38339
  Beta  occ. eigenvalues --   -0.35805  -0.34729  -0.27186
  Beta virt. eigenvalues --   -0.11842   0.08737   0.12120   0.14794   0.15235
  Beta virt. eigenvalues --    0.16984   0.18756   0.23531   0.31423   0.49731
  Beta virt. eigenvalues --    0.52740   0.55115   0.62735   0.62985   0.66660

 Mulliken charges and spin densities:
               1          2
     1  C   -0.428982  -0.017818
     2  C   -0.459242   0.460727
     3  O   -0.625397   0.624706
     4  H    0.157531   0.004510
     5  H    0.165192   0.003450
     6  H    0.155877   0.026185
     7  H    0.158246  -0.012753
     8  H    0.171134  -0.007321
     9  H    0.322032  -0.065693
    10  H    0.383609  -0.015994
 Sum of Mulliken charges =  -0.00000   1.00000

 Dipole moment (field-independent basis, Debye):
    X=              1.3613    Y=              0.7958    Z=              1.4397  Tot=              2.1352
 Quadrupole moment (field-independent basis, Debye-Ang):
   XX=            -21.8784   YY=            -20.9305   ZZ=            -19.0615
   XY=             -0.8658   XZ=             -3.4832   YZ=             -0.0700

  Exact polarizability:  48.849   4.779  27.330  -1.553   0.378  27.299
 Approx polarizability:  60.695   9.239  34.539  -0.523   1.198  36.176

 ******    1 imaginary frequencies (negative Signs) ******

                      1                      2                      3
                      A                      A                      A
 Frequencies --  -1008.5017                59.2298               113.2046
 Red. masses --      1.1641                 1.0750                 2.8926
 Frc consts  --      0.6976                 0.0022                 0.0218
 IR Inten    --    694.6542                84.0027                15.7036

                      4                      5                      6
                      A                      A                      A
 Frequencies --    176.9459               400.0163               691.5518
 Red. masses --      1.1015                 1.1162                 2.2985
 Frc consts  --      0.0203                 0.1052                 0.6477
 IR Inten    --      5.2993                 6.3696                80.9583

                      7                      8                      9
                      A                      A                      A
 Frequencies --    801.9280               844.9398               951.5577
 Red. masses --      1.1412                 1.0630                 1.1832
 Frc consts  --      0.4324                 0.4471                 0.6312
 IR Inten    --     32.1119                42.0909               178.7366

                     10                     11                     12
                      A                      A                      A
 Frequencies --   1031.7256              1138.5532              1245.0837
 Red. masses --      2.5979                 1.3755                 1.3950
 Frc consts  --      1.6293                 1.0506                 1.2742
 IR Inten    --      4.2718                10.7786                 0.9520

                     13                     14                     15
                      A                      A                      A
 Frequencies --   1296.1682              1433.8215              1471.6240
 Red. masses --      1.2225                 1.2077                 1.0355
 Frc consts  --      1.2101                 1.4629                 1.3213
 IR Inten    --      4.1937                 1.9158                28.6549

                     16                     17                     18
                      A                      A                      A
 Frequencies --   1497.2625              1515.8073              1524.7315
 Red. masses --      1.1258                 1.0418                 1.0503
 Frc consts  --      1.4870                 1.4103                 1.4386
 IR Inten    --      7.4033                 8.5330                 4.1991

                     19                     20                     21
                      A                      A                      A
 Frequencies --   3035.2831              3086.0243              3103.1770
 Red. masses --      1.0439                 1.0581                 1.0876
 Frc consts  --      5.6665                 5.9373                 6.1704
 IR Inten    --     15.5443                 9.6535                29.0431

                     22                     23                     24
                      A                      A                      A
 Frequencies --   3125.9014              3159.3604              3675.4182
 Red. masses --      1.1034                 1.1081                 1.0666
 Frc consts  --      6.3523                 6.5168                 8.4891
 IR Inten    --      7.3766                34.9563                13.8012

 - Thermochemistry -
 -------------------
 Temperature   298.150 Kelvin.  Pressure   1.00000 Atm.
 Atom     1 has atomic number  6 and mass  12.00000

 Molecular mass:    47.04969 amu.
 Principal axes and moments of inertia in atomic units:
                           1         2         3
     Eigenvalues --    70.91451 359.23938 401.24684
           X            0.99963  -0.02167  -0.01663
           Y            0.02155   0.99974  -0.00725
           Z            0.01678   0.00689   0.99984
 This molecule is an asymmetric top.
 Rotational symmetry number  1.
 Rotational temperatures (Kelvin)      1.22139     0.24110     0.21586
 Rotational constants (GHZ):          25.44953     5.02378     4.49783
    1 imaginary frequencies ignored.
 Zero-point vibrational energy     211615.3 (Joules/Mol)
                                   50.57727 (Kcal/Mol)
 Warning -- explicit consideration of   4 degrees of freedom as
           vibrations may cause significant error
 Vibrational temperatures:     85.22   162.88   254.59   575.53   994.99
          (Kelvin)           1153.80  1215.68  1369.08  1484.42  1638.12
                             1791.40  1864.90  2062.95  2117.34  2154.23
                             2180.91  2193.75  4367.10  4440.10  4464.78
                             4497.47  4545.61  5288.11

 Zero-point correction=                           0.080600 (Hartree/Particle)
 Thermal correction to Energy=                    0.086275
 Thermal correction to Enthalpy=                  0.087219
 Thermal correction to Gibbs Free Energy=         0.051691
 Sum of electronic and zero-point Energies=           -155.475838
 Sum of electronic and thermal Energies=              -155.470163
 Sum of electronic and thermal Enthalpies=            -155.469219
 Sum of electronic and thermal Free Energies=         -155.504747

                     E (Thermal)             CV                S
                      KCal/Mol        Cal/Mol-Kelvin    Cal/Mol-Kelvin
 Total                   54.138             17.033             74.776
 Electronic               0.000              0.000              1.377
 Translational            0.889              2.981             37.471
 Rotational               0.889              2.981             23.840
 Vibrational             52.361             11.071             12.088
 Vibration     1          0.597              1.974              4.483
 Vibration     2          0.607              1.939              3.213
 Vibration     3          0.628              1.871              2.360
 Vibration     4          0.766              1.470              0.963

                           ! Non-Optimized Parameters !
 Normal termination of Gaussian 16 at Tue Oct  6 20:50:22 2020.
