 Gaussian 16, Revision A.03,

 ----------------------------------------------------------------------
 #P Opt(TS,MaxCyc=50,NoEigenTest,MaxStep=10,CalcFC) B3LYP/6-31G* 5D 7F
 Integral=UltraFineGrid SCF=(NoSymm,XQC,MaxCyc=120) IOp(1/33=1) Empiric
 alDispersion=GD3BJ
 ----------------------------------------------------------------------

 TstMul:  Mul=     2
 TstMul:  ICh=     0
 TstMul:  Mul=     2
 Symbolic Z-matrix:
 Charge =  0 Multiplicity = 2

 SCF Done:  E(UB3LYP) =  -1.66957268112     A.U. after    9 cycles
 SCF Done:  E(UB3LYP) =  -1.66958949993     A.U. after    7 cycles
 Optimization completed.
    -- Stationary point found.
 Normal termination of Gaussian 16 at Tue Oct  6 20:46:38 2020.
 Gaussian 16:  ES64L-G16RevA.03 25-Dec-2016

 ----------------------------------------------------------------------
 #P Freq B3LYP/6-31G* 5D 7F Integral=UltraFineGrid SCF=(NoSymm,XQC,MaxC
 yc=120) IOp(1/33=1) EmpiricalDispersion=GD3BJ Geom=Check Guess=Read
 ----------------------------------------------------------------------

 TstMul:  Mul=     2
 TstMul:  ICh=     0
 TstMul:  Mul=     2
 Structure from the checkpoint file:  "MN_82_RKT06_BH76_B3LYP_631Gs.chk"
 Charge =  0 Multiplicity = 2

                         Standard orientation:
 ---------------------------------------------------------------------
 Center     Atomic      Atomic             Coordinates (Angstroms)
 Number     Number       Type             X           Y           Z
 ---------------------------------------------------------------------
      1          1           0        0.000000    0.000000    0.000000
      2          1           0        0.000000    0.000000    0.934663
      3          1           0        0.000000    0.000000   -0.934663
 ---------------------------------------------------------------------

 SCF Done:  E(UB3LYP) =  -1.66958949993     A.U. after    1 cycles

 The electronic state is 2-SGU.
 Alpha  occ. eigenvalues --   -0.50958  -0.25655
 Alpha virt. eigenvalues --    0.15071   0.66786   0.74513   1.01418
  Beta  occ. eigenvalues --   -0.45907
  Beta virt. eigenvalues --   -0.09785   0.18846   0.71506   0.83309   1.05171

 Mulliken charges and spin densities:
               1          2
     1  H   -0.096657  -0.185169
     2  H    0.048328   0.592585
     3  H    0.048328   0.592585
 Sum of Mulliken charges =  -0.00000   1.00000

 Dipole moment (field-independent basis, Debye):
    X=              0.0000    Y=              0.0000    Z=              0.0000  Tot=              0.0000
 Quadrupole moment (field-independent basis, Debye-Ang):
   XX=             -3.2911   YY=             -3.2911   ZZ=             -3.3064
   XY=              0.0000   XZ=              0.0000   YZ=              0.0000

  Exact polarizability:   0.000   0.000   0.000  -0.000   0.000  18.298
 Approx polarizability:   0.000  -0.000  -0.000  -0.000  -0.000  22.948

 ******    1 imaginary frequencies (negative Signs) ******

                      1                      2                      3
                     SGU                    PIU                    PIU
 Frequencies --   -630.4112              1087.4969              1087.4969
 Red. masses --      1.0078                 1.0078                 1.0078
 Frc consts  --      0.2360                 0.7022                 0.7022
 IR Inten    --     99.2383                 7.5837                 7.5837

                      4
                     SGG
 Frequencies --   2105.3194
 Red. masses --      1.0078
 Frc consts  --      2.6319
 IR Inten    --      0.0000

 - Thermochemistry -
 -------------------
 Temperature   298.150 Kelvin.  Pressure   1.00000 Atm.
 Atom     1 has atomic number  1 and mass   1.00783

 Molecular mass:     3.02348 amu.
 Principal axes and moments of inertia in atomic units:
                           1         2         3
     Eigenvalues --     0.00000   6.28815   6.28815
           X           -0.00000   1.00000   0.00000
           Y            0.00000   0.00000   1.00000
           Z            1.00000   0.00000   0.00000
 This molecule is a prolate symmetric top.
 Rotational symmetry number  2.
 Rotational temperature (Kelvin)     13.77414
 Rotational constant (GHZ):         287.006499
    1 imaginary frequencies ignored.
 Zero-point vibrational energy      25602.0 (Joules/Mol)
                                    6.11901 (Kcal/Mol)
 Vibrational temperatures:   1564.67  1564.67  3029.09
          (Kelvin)

 Zero-point correction=                           0.009751 (Hartree/Particle)
 Thermal correction to Energy=                    0.012164
 Thermal correction to Enthalpy=                  0.013109
 Thermal correction to Gibbs Free Energy=        -0.004718
 Sum of electronic and zero-point Energies=             -1.659838
 Sum of electronic and thermal Energies=                -1.657425
 Sum of electronic and thermal Enthalpies=              -1.656481
 Sum of electronic and thermal Free Energies=           -1.674307

                     E (Thermal)             CV                S
                      KCal/Mol        Cal/Mol-Kelvin    Cal/Mol-Kelvin
 Total                    7.633              5.558             37.518
 Electronic               0.000              0.000              1.377
 Translational            0.889              2.981             29.289
 Rotational               0.592              1.987              6.720
 Vibrational              6.152              0.590              0.132

 Optimization completed.
    -- Stationary point found.
 Normal termination of Gaussian 16 at Tue Oct  6 20:46:59 2020.
