 Gaussian 16, Revision A.03,

 ----------------------------------------------------------------------
 #P Opt(TS,MaxCyc=50,NoEigenTest,MaxStep=10,CalcFC) B3LYP/6-31G* 5D 7F
 Integral=UltraFineGrid SCF=(NoSymm,XQC,MaxCyc=120) IOp(1/33=1) Empiric
 alDispersion=GD3BJ
 ----------------------------------------------------------------------

 TstMul:  Mul=     2
 TstMul:  ICh=     0
 TstMul:  Mul=     2
 Symbolic Z-matrix:
 Charge =  0 Multiplicity = 2

 SCF Done:  E(UB3LYP) =  -132.276669750     A.U. after   16 cycles
 SCF Done:  E(UB3LYP) =  -132.277249890     A.U. after   17 cycles
 SCF Done:  E(UB3LYP) =  -132.277291154     A.U. after   14 cycles
 SCF Done:  E(UB3LYP) =  -132.277292255     A.U. after   12 cycles
 Optimization completed.
    -- Stationary point found.
 Normal termination of Gaussian 16 at Tue Oct  6 20:47:23 2020.
 Gaussian 16:  ES64L-G16RevA.03 25-Dec-2016

 ----------------------------------------------------------------------
 #P Freq B3LYP/6-31G* 5D 7F Integral=UltraFineGrid SCF=(NoSymm,XQC,MaxC
 yc=120) IOp(1/33=1) EmpiricalDispersion=GD3BJ Geom=Check Guess=Read
 ----------------------------------------------------------------------

 TstMul:  Mul=     2
 TstMul:  ICh=     0
 TstMul:  Mul=     2
 Structure from the checkpoint file:  "MN_83_RKT07_BH76_B3LYP_631Gs.chk"
 Charge =  0 Multiplicity = 2

                         Standard orientation:
 ---------------------------------------------------------------------
 Center     Atomic      Atomic             Coordinates (Angstroms)
 Number     Number       Type             X           Y           Z
 ---------------------------------------------------------------------
      1          7           0       -1.149389   -0.014663   -0.113229
      2          8           0        1.167833   -0.104810    0.013854
      3          1           0       -1.325335   -0.691505    0.634370
      4          1           0       -1.323747    0.906181    0.299111
      5          1           0       -0.003632   -0.117276   -0.395410
      6          1           0        1.355768    0.843719    0.143702
 ---------------------------------------------------------------------

 SCF Done:  E(UB3LYP) =  -132.277292255     A.U. after    1 cycles

 The electronic state is 2-A.
 Alpha  occ. eigenvalues --  -19.14275 -14.35511  -0.97931  -0.87139  -0.51839
 Alpha  occ. eigenvalues --   -0.49085  -0.41311  -0.34004  -0.29190  -0.28162
 Alpha virt. eigenvalues --    0.05820   0.11362   0.14363   0.27889   0.62005
 Alpha virt. eigenvalues --    0.63978   0.68738   0.80629   0.82837   0.83318
 Alpha virt. eigenvalues --    0.87381   0.94701   0.97221   1.09644   1.24345

  Beta  occ. eigenvalues --  -19.12922 -14.34305  -0.94547  -0.83942  -0.49654
  Beta  occ. eigenvalues --   -0.47997  -0.39448  -0.28585  -0.27461
  Beta virt. eigenvalues --   -0.13170   0.06515   0.11948   0.14728   0.28953
  Beta virt. eigenvalues --    0.63652   0.64684   0.72444   0.81316   0.83573
  Beta virt. eigenvalues --    0.85136   0.88015   0.95731   0.99309   1.11416

 Mulliken charges and spin densities:
               1          2
     1  N   -0.779130   0.597967
     2  O   -0.689505   0.501931
     3  H    0.331419  -0.020466
     4  H    0.316207  -0.021025
     5  H    0.438062  -0.044525
     6  H    0.382948  -0.013882
 Sum of Mulliken charges =  -0.00000   1.00000

 Dipole moment (field-independent basis, Debye):
    X=             -1.1927    Y=              1.8407    Z=              1.4317  Tot=              2.6193
 Quadrupole moment (field-independent basis, Debye-Ang):
   XX=            -14.0906   YY=            -10.7231   ZZ=            -13.9861
   XY=              1.9022   XZ=             -2.2285   YZ=             -0.0088

  Exact polarizability:  44.641   1.094  15.042   0.414   0.153   9.933
 Approx polarizability:  65.815  -0.958  19.316   3.014   0.167  12.143

 ******    1 imaginary frequencies (negative Signs) ******

                      1                      2                      3
                      A                      A                      A
 Frequencies --  -1412.2077               238.2914               434.5074
 Red. masses --      1.0417                 1.0645                 2.1121
 Frc consts  --      1.2241                 0.0356                 0.2349
 IR Inten    --    395.4147                77.4898                25.0440

                      4                      5                      6
                      A                      A                      A
 Frequencies --    530.7342               816.6569               899.2064
 Red. masses --      1.0296                 1.6531                 1.1491
 Frc consts  --      0.1709                 0.6496                 0.5474
 IR Inten    --     36.1772               137.9828                97.9989

                      7                      8                      9
                      A                      A                      A
 Frequencies --   1480.7194              1634.0334              1699.4925
 Red. masses --      1.1298                 1.0693                 1.0272
 Frc consts  --      1.4595                 1.6822                 1.7479
 IR Inten    --    183.2778                46.0439                17.6682

                     10                     11                     12
                      A                      A                      A
 Frequencies --   3442.8194              3541.8891              3700.9964
 Red. masses --      1.0501                 1.0908                 1.0663
 Frc consts  --      7.3332                 8.0621                 8.6055
 IR Inten    --      5.0039                 1.1986                22.3410

 - Thermochemistry -
 -------------------
 Temperature   298.150 Kelvin.  Pressure   1.00000 Atm.
 Atom     1 has atomic number  7 and mass  14.00307

 Molecular mass:    34.02929 amu.
 Principal axes and moments of inertia in atomic units:
                           1         2         3
     Eigenvalues --    10.70178 166.10206 170.95947
           X            0.99954   0.01881  -0.02360
           Y           -0.01882   0.99982  -0.00057
           Z            0.02359   0.00101   0.99972
 This molecule is an asymmetric top.
 Rotational symmetry number  1.
 Rotational temperatures (Kelvin)      8.09341     0.52145     0.50663
 Rotational constants (GHZ):         168.63936    10.86525    10.55654
    1 imaginary frequencies ignored.
 Zero-point vibrational energy     110172.2 (Joules/Mol)
                                   26.33178 (Kcal/Mol)
 Warning -- explicit consideration of   3 degrees of freedom as
           vibrations may cause significant error
 Vibrational temperatures:    342.85   625.16   763.61  1174.99  1293.76
          (Kelvin)           2130.42  2351.01  2445.19  4953.45  5095.99
                             5324.91

 Zero-point correction=                           0.041962 (Hartree/Particle)
 Thermal correction to Energy=                    0.045916
 Thermal correction to Enthalpy=                  0.046860
 Thermal correction to Gibbs Free Energy=         0.017481
 Sum of electronic and zero-point Energies=           -132.235330
 Sum of electronic and thermal Energies=              -132.231376
 Sum of electronic and thermal Enthalpies=            -132.230432
 Sum of electronic and thermal Free Energies=         -132.259811

                     E (Thermal)             CV                S
                      KCal/Mol        Cal/Mol-Kelvin    Cal/Mol-Kelvin
 Total                   28.813             11.609             61.833
 Electronic               0.000              0.000              1.377
 Translational            0.889              2.981             36.505
 Rotational               0.889              2.981             20.347
 Vibrational             27.035              5.647              3.604
 Vibration     1          0.656              1.782              1.816
 Vibration     2          0.795              1.395              0.844
 Vibration     3          0.886              1.182              0.586

 Optimization completed.
    -- Stationary point found.
 Normal termination of Gaussian 16 at Tue Oct  6 20:47:54 2020.
