 Gaussian 16, Revision A.03,

 ----------------------------------------------------------------------
 #P Opt(TS,MaxCyc=50,NoEigenTest,MaxStep=10,CalcFC) B3LYP/6-31G* 5D 7F
 Integral=UltraFineGrid SCF=(NoSymm,XQC,MaxCyc=120) IOp(1/33=1) Empiric
 alDispersion=GD3BJ
 ----------------------------------------------------------------------

 TstMul:  Mul=     2
 TstMul:  ICh=     0
 TstMul:  Mul=     2
 Symbolic Z-matrix:
 Charge =  0 Multiplicity = 2

 SCF Done:  E(UB3LYP) =  -100.894486349     A.U. after   18 cycles
 SCF Done:  E(UB3LYP) =  -100.894330512     A.U. after   13 cycles
 SCF Done:  E(UB3LYP) =  -100.894197006     A.U. after   13 cycles
 SCF Done:  E(UB3LYP) =  -100.894086693     A.U. after   14 cycles
 SCF Done:  E(UB3LYP) =  -100.893993991     A.U. after   14 cycles
 SCF Done:  E(UB3LYP) =  -100.893917613     A.U. after   14 cycles
 SCF Done:  E(UB3LYP) =  -100.893853109     A.U. after   17 cycles
 SCF Done:  E(UB3LYP) =  -100.893802445     A.U. after   16 cycles
 SCF Done:  E(UB3LYP) =  -100.893752185     A.U. after   16 cycles
 SCF Done:  E(UB3LYP) =  -100.893738627     A.U. after   16 cycles
 SCF Done:  E(UB3LYP) =  -100.893729181     A.U. after   14 cycles
 SCF Done:  E(UB3LYP) =  -100.893699075     A.U. after   16 cycles
 SCF Done:  E(UB3LYP) =  -100.893673891     A.U. after   16 cycles
 SCF Done:  E(UB3LYP) =  -100.893654846     A.U. after   17 cycles
 SCF Done:  E(UB3LYP) =  -100.893641154     A.U. after   12 cycles
 SCF Done:  E(UB3LYP) =  -100.893632369     A.U. after   16 cycles
 SCF Done:  E(UB3LYP) =  -100.893628240     A.U. after   16 cycles
 SCF Done:  E(UB3LYP) =  -100.893627910     A.U. after   12 cycles
 SCF Done:  E(UB3LYP) =  -100.893627908     A.U. after    9 cycles
 Optimization completed.
    -- Stationary point found.
 Normal termination of Gaussian 16 at Tue Oct  6 20:49:35 2020.
 Gaussian 16:  ES64L-G16RevA.03 25-Dec-2016

 ----------------------------------------------------------------------
 #P Freq B3LYP/6-31G* 5D 7F Integral=UltraFineGrid SCF=(NoSymm,XQC,MaxC
 yc=120) IOp(1/33=1) EmpiricalDispersion=GD3BJ Geom=Check Guess=Read
 ----------------------------------------------------------------------

 TstMul:  Mul=     2
 TstMul:  ICh=     0
 TstMul:  Mul=     2
 Structure from the checkpoint file:  "MN_86_RKT10_BH76_B3LYP_631Gs.chk"
 Charge =  0 Multiplicity = 2

                         Standard orientation:
 ---------------------------------------------------------------------
 Center     Atomic      Atomic             Coordinates (Angstroms)
 Number     Number       Type             X           Y           Z
 ---------------------------------------------------------------------
      1          1           0        0.378020   -1.532653   -0.000000
      2          9           0        0.000000    0.340577    0.000000
      3          1           0       -0.378020   -1.532536   -0.000000
 ---------------------------------------------------------------------

 SCF Done:  E(UB3LYP) =  -100.893627908     A.U. after    1 cycles

 The electronic state is 2-A'.
 Alpha  occ. eigenvalues --  -24.74016  -1.17632  -0.53727  -0.42313  -0.42033
 Alpha  occ. eigenvalues --   -0.41848
 Alpha virt. eigenvalues --    0.08184   0.58579   1.04702   1.14264   1.15444
 Alpha virt. eigenvalues --    1.20175   1.37212   1.79919   1.80429   1.82391
 Alpha virt. eigenvalues --    1.84944   1.84946
  Beta  occ. eigenvalues --  -24.71129  -1.09446  -0.46125  -0.39104  -0.38921
  Beta virt. eigenvalues --   -0.20700   0.08872   0.59742   1.06405   1.17114
  Beta virt. eigenvalues --    1.21818   1.24112   1.41388   1.85521   1.85608
  Beta virt. eigenvalues --    1.85611   1.86957   1.87450

 Mulliken charges and spin densities:
               1          2
     1  H    0.040587   0.048794
     2  F   -0.081183   0.902448
     3  H    0.040596   0.048757
 Sum of Mulliken charges =  -0.00000   1.00000

 Dipole moment (field-independent basis, Debye):
    X=             -0.0000    Y=             -0.7080    Z=             -0.0000  Tot=              0.7080
 Quadrupole moment (field-independent basis, Debye-Ang):
   XX=             -6.2461   YY=             -5.0277   ZZ=             -6.6745
   XY=             -0.0001   XZ=             -0.0000   YZ=              0.0000

  Exact polarizability:   7.367  -0.001  11.664  -0.000   0.000   1.508
 Approx polarizability:   9.050  -0.001  13.118   0.000   0.000   1.695

 ******    1 imaginary frequencies (negative Signs) ******

                      1                      2                      3
                     A'                     A'                     A'
 Frequencies --   -133.6445               360.7917              4213.2793
 Red. masses --      1.0118                 1.1085                 1.0079
 Frc consts  --      0.0106                 0.0850                10.5412
 IR Inten    --      0.0691                42.6228               118.7207

 - Thermochemistry -
 -------------------
 Temperature   298.150 Kelvin.  Pressure   1.00000 Atm.
 Atom     1 has atomic number  1 and mass   1.00783

 Molecular mass:    21.01405 amu.
 Principal axes and moments of inertia in atomic units:
                           1         2         3
     Eigenvalues --     1.02859  22.83363  23.86222
           X           -0.00001   1.00000   0.00000
           Y            1.00000   0.00001   0.00000
           Z            0.00000   0.00000   1.00000
 This molecule is an asymmetric top.
 Rotational symmetry number  1.
 Rotational temperatures (Kelvin)     84.20642     3.79326     3.62975
 Rotational constants (GHZ):        1754.57693    79.03874    75.63174
    1 imaginary frequencies ignored.
 Zero-point vibrational energy      27359.0 (Joules/Mol)
                                    6.53896 (Kcal/Mol)
 Warning -- explicit consideration of   1 degrees of freedom as
           vibrations may cause significant error
 Vibrational temperatures:    519.10  6061.97
          (Kelvin)

 Zero-point correction=                           0.010421 (Hartree/Particle)
 Thermal correction to Energy=                    0.013603
 Thermal correction to Enthalpy=                  0.014547
 Thermal correction to Gibbs Free Energy=        -0.009996
 Sum of electronic and zero-point Energies=           -100.883207
 Sum of electronic and thermal Energies=              -100.880025
 Sum of electronic and thermal Enthalpies=            -100.879081
 Sum of electronic and thermal Free Energies=         -100.903624

                     E (Thermal)             CV                S
                      KCal/Mol        Cal/Mol-Kelvin    Cal/Mol-Kelvin
 Total                    8.536              7.515             51.655
 Electronic               0.000              0.000              1.377
 Translational            0.889              2.981             35.068
 Rotational               0.889              2.981             14.091
 Vibrational              6.758              1.553              1.119
 Vibration     1          0.735              1.553              1.119

 Optimization completed.
    -- Stationary point found.

 1\1\GINC-NODE59\Freq\UB3LYP\6-31G(d)\F1H2(2)\RPEVERATI\06-Oct-2020\0\\
 #P Freq B3LYP/6-31G* 5D 7F Integral=UltraFineGrid SCF=(NoSymm,XQC,MaxC
 yc=120) IOp(1/33=1) EmpiricalDispersion=GD3BJ Geom=Check Guess=Read\\T
 S search on BH76.\\0,2\H,0.4565449387,-1.4506897016,0.\F,-0.1635461973
 ,0.3568984324,0.\H,-0.2929987413,-1.5495880724,0.\\Version=ES64L-G16Re
 vA.03\State=2-A'\HF=-100.8936279\S2=0.751306\S2-1=0.\S2A=0.750001\RMSD
 =3.124e-10\RMSF=2.630e-06\ZeroPoint=0.0104205\Thermal=0.0136026\Dipole
 =0.0364765,-0.2761466,0.\DipoleDeriv=0.0641282,-0.2240735,0.,0.0407285

 Normal termination of Gaussian 16 at Tue Oct  6 20:49:51 2020.
