 Gaussian 16, Revision A.03,

 ----------------------------------------------------------------------
 #P Opt(TS,MaxCyc=50,NoEigenTest,MaxStep=10,AddRedundant) B3LYP/6-31G*
 5D 7F Integral=UltraFineGrid SCF=(NoSymm,XQC,MaxCyc=120) IOp(1/33=1) E
 mpiricalDispersion=GD3BJ
 ----------------------------------------------------------------------

 TstMul:  Mul=     3
 TstMul:  ICh=     0
 TstMul:  Mul=     3
 Symbolic Z-matrix:
 Charge =  0 Multiplicity = 3

 SCF Done:  E(UB3LYP) =  -115.562911566     A.U. after   12 cycles
 SCF Done:  E(UB3LYP) =  -115.562919595     A.U. after   10 cycles
 SCF Done:  E(UB3LYP) =  -115.562955829     A.U. after    9 cycles
 SCF Done:  E(UB3LYP) =  -115.562399025     A.U. after   13 cycles
 SCF Done:  E(UB3LYP) =  -115.562225342     A.U. after   13 cycles
 SCF Done:  E(UB3LYP) =  -115.562289308     A.U. after   13 cycles
 SCF Done:  E(UB3LYP) =  -115.562291728     A.U. after    9 cycles
 Optimization completed.
    -- Stationary point found.
 Normal termination of Gaussian 16 at Sat Oct 10 10:19:39 2020.
 Gaussian 16:  ES64L-G16RevA.03 25-Dec-2016

 ----------------------------------------------------------------------
 #P Freq B3LYP/6-31G* 5D 7F Integral=UltraFineGrid SCF=(NoSymm,XQC,MaxC
 yc=120) IOp(1/33=1) EmpiricalDispersion=GD3BJ Geom=Check Guess=Read
 ----------------------------------------------------------------------

 TstMul:  Mul=     3
 TstMul:  ICh=     0
 TstMul:  Mul=     3
 Structure from the checkpoint file:  "MN_87_RKT11_BH76_B3LYP_631Gs.chk"
 Charge =  0 Multiplicity = 3

                         Standard orientation:
 ---------------------------------------------------------------------
 Center     Atomic      Atomic             Coordinates (Angstroms)
 Number     Number       Type             X           Y           Z
 ---------------------------------------------------------------------
      1          6           0        0.000417   -1.163165   -0.000000
      2          1           0       -1.065169   -1.388272   -0.000000
      3          1           0        0.524030   -1.417270    0.919799
      4          1           0        0.524030   -1.417270   -0.919799
      5          1           0        0.011265    0.223926    0.000000
      6          8           0        0.000417    1.372234    0.000000
 ---------------------------------------------------------------------

 SCF Done:  E(UB3LYP) =  -115.562291728     A.U. after    1 cycles

 The electronic state is 3-A'.
 Alpha  occ. eigenvalues --  -19.20242 -10.21006  -0.97428  -0.72105  -0.47475
 Alpha  occ. eigenvalues --   -0.43778  -0.43710  -0.38990  -0.31604  -0.27327
 Alpha virt. eigenvalues --    0.09829   0.15411   0.15505   0.24538   0.49985
 Alpha virt. eigenvalues --    0.50388   0.52861   0.70296   0.85074   0.87531
 Alpha virt. eigenvalues --    0.87589   0.87704   0.89878   0.94410   1.14723

  Beta  occ. eigenvalues --  -19.16641 -10.19936  -0.87148  -0.68977  -0.42933
  Beta  occ. eigenvalues --   -0.42893  -0.40412  -0.27874
  Beta virt. eigenvalues --   -0.13079  -0.12133   0.10682   0.16068   0.16134
  Beta virt. eigenvalues --    0.28058   0.50989   0.51019   0.57606   0.71626
  Beta virt. eigenvalues --    0.88182   0.88281   0.89497   0.92007   0.95303

 Mulliken charges and spin densities:
               1          2
     1  C   -0.613352   0.714391
     2  H    0.193662  -0.020621
     3  H    0.194191  -0.021586
     4  H    0.194191  -0.021586
     5  H    0.389803  -0.072381
     6  O   -0.358495   1.421783
 Sum of Mulliken charges =  -0.00000   2.00000

 Dipole moment (field-independent basis, Debye):
    X=              0.0006    Y=             -2.1696    Z=              0.0000  Tot=              2.1696
 Quadrupole moment (field-independent basis, Debye-Ang):
   XX=            -12.3527   YY=            -15.2961   ZZ=            -13.4761
   XY=              0.0009   XZ=              0.0000   YZ=             -0.0000

  Exact polarizability:  14.278  -0.070  30.940  -0.000   0.000  14.007
 Approx polarizability:  17.256  -0.094  39.413   0.000  -0.000  16.567

 ******    1 imaginary frequencies (negative Signs) ******

                      1                      2                      3
                     A'                     A"                     A'
 Frequencies --  -1397.3397               322.7531               405.3726
 Red. masses --      1.1130                 1.0562                 1.0715
 Frc consts  --      1.2804                 0.0648                 0.1037
 IR Inten    --    304.8000                 7.9233                 3.6121

                      4                      5                      6
                     A'                     A"                     A'
 Frequencies --    574.0876               947.8856              1132.2853
 Red. masses --      3.8667                 1.0676                 1.0621
 Frc consts  --      0.7508                 0.5652                 0.8023
 IR Inten    --      0.2411                39.3396                45.5546

                      7                      8                      9
                     A'                     A'                     A"
 Frequencies --   1214.3605              1452.7870              1460.8952
 Red. masses --      1.2519                 1.0792                 1.0838
 Frc consts  --      1.0877                 1.3420                 1.3628
 IR Inten    --     13.0892                 3.8226                 4.0844

                     10                     11                     12
                     A'                     A'                     A"
 Frequencies --   3099.3305              3240.9705              3248.7618
 Red. masses --      1.0171                 1.1119                 1.1132
 Frc consts  --      5.7564                 6.8811                 6.9221
 IR Inten    --      0.0018                 5.5506                 5.3476

 - Thermochemistry -
 -------------------
 Temperature   298.150 Kelvin.  Pressure   1.00000 Atm.
 Atom     1 has atomic number  6 and mass  12.00000

 Molecular mass:    32.02621 amu.
 Principal axes and moments of inertia in atomic units:
                           1         2         3
     Eigenvalues --    12.15022 191.42068 191.44994
           X           -0.00003   0.00000   1.00000
           Y            1.00000   0.00000   0.00003
           Z           -0.00000   1.00000   0.00000
 This molecule is an asymmetric top.
 Rotational symmetry number  1.
 Rotational temperatures (Kelvin)      7.12859     0.45248     0.45241
 Rotational constants (GHZ):         148.53570     9.42814     9.42670
    1 imaginary frequencies ignored.
 Zero-point vibrational energy     102277.7 (Joules/Mol)
                                   24.44495 (Kcal/Mol)
 Warning -- explicit consideration of   3 degrees of freedom as
           vibrations may cause significant error
 Vibrational temperatures:    464.37   583.24   825.98  1363.80  1629.11
          (Kelvin)           1747.19  2090.24  2101.90  4459.25  4663.03
                             4674.24

 Zero-point correction=                           0.038956 (Hartree/Particle)
 Thermal correction to Energy=                    0.042754
 Thermal correction to Enthalpy=                  0.043698
 Thermal correction to Gibbs Free Energy=         0.014142
 Sum of electronic and zero-point Energies=           -115.523336
 Sum of electronic and thermal Energies=              -115.519538
 Sum of electronic and thermal Enthalpies=            -115.518594
 Sum of electronic and thermal Free Energies=         -115.548150

                     E (Thermal)             CV                S
                      KCal/Mol        Cal/Mol-Kelvin    Cal/Mol-Kelvin
 Total                   26.829             11.199             62.206
 Electronic               0.000              0.000              2.183
 Translational            0.889              2.981             36.324
 Rotational               0.889              2.981             20.726
 Vibrational             25.051              5.237              2.973
 Vibration     1          0.708              1.630              1.296
 Vibration     2          0.770              1.459              0.943
 Vibration     3          0.930              1.087              0.496

 Optimization completed.
    -- Stationary point found.
 Normal termination of Gaussian 16 at Sat Oct 10 10:19:49 2020.
