 Gaussian 16, Revision A.03,

 ----------------------------------------------------------------------
 #P Opt(TS,MaxCyc=50,NoEigenTest,MaxStep=10,CalcFC) B3LYP/6-31G* 5D 7F
 Integral=UltraFineGrid SCF=(NoSymm,XQC,MaxCyc=120) IOp(1/33=1) Empiric
 alDispersion=GD3BJ
 ----------------------------------------------------------------------

 TstMul:  Mul=     2
 TstMul:  ICh=     0
 TstMul:  Mul=     2
 Symbolic Z-matrix:
 Charge =  0 Multiplicity = 2

 SCF Done:  E(UB3LYP) =  -500.641909070     A.U. after   14 cycles
 SCF Done:  E(UB3LYP) =  -500.641208572     A.U. after   12 cycles
 SCF Done:  E(UB3LYP) =  -500.640678563     A.U. after   12 cycles
 SCF Done:  E(UB3LYP) =  -500.640299241     A.U. after   12 cycles
 SCF Done:  E(UB3LYP) =  -500.640080959     A.U. after   12 cycles
 SCF Done:  E(UB3LYP) =  -500.639983905     A.U. after   12 cycles
 SCF Done:  E(UB3LYP) =  -500.639957400     A.U. after   12 cycles
 SCF Done:  E(UB3LYP) =  -500.639955716     A.U. after    9 cycles
 SCF Done:  E(UB3LYP) =  -500.639955672     A.U. after    9 cycles
 Optimization completed.
    -- Stationary point found.
 Normal termination of Gaussian 16 at Tue Oct  6 20:48:33 2020.
 Gaussian 16:  ES64L-G16RevA.03 25-Dec-2016

 ----------------------------------------------------------------------
 #P Freq B3LYP/6-31G* 5D 7F Integral=UltraFineGrid SCF=(NoSymm,XQC,MaxC
 yc=120) IOp(1/33=1) EmpiricalDispersion=GD3BJ Geom=Check Guess=Read
 ----------------------------------------------------------------------

 TstMul:  Mul=     2
 TstMul:  ICh=     0
 TstMul:  Mul=     2
 Structure from the checkpoint file:  "MN_84_RKT08_BH76_B3LYP_631Gs.chk"
 Charge =  0 Multiplicity = 2

                         Standard orientation:
 ---------------------------------------------------------------------
 Center     Atomic      Atomic             Coordinates (Angstroms)
 Number     Number       Type             X           Y           Z
 ---------------------------------------------------------------------
      1          6           0        1.978938   -0.000003    0.000000
      2          1           0        2.122569    0.541018    0.929850
      3          1           0        2.122574    0.534760   -0.933462
      4          1           0        2.122479   -1.075799    0.003613
      5          1           0        0.272634    0.000017   -0.000001
      6         17           0       -1.089052    0.000001   -0.000000
 ---------------------------------------------------------------------

 SCF Done:  E(UB3LYP) =  -500.639955672     A.U. after    1 cycles

 The electronic state is 2-A.
 Alpha  occ. eigenvalues -- -101.50764 -10.22921  -9.44142  -7.20585  -7.19442
 Alpha  occ. eigenvalues --   -7.19442  -0.82143  -0.72676  -0.46150  -0.45451
 Alpha  occ. eigenvalues --   -0.45451  -0.30877  -0.30877  -0.27059
 Alpha virt. eigenvalues --    0.08550   0.09940   0.14936   0.14936   0.39405
 Alpha virt. eigenvalues --    0.42826   0.43074   0.43074   0.53159   0.53394
 Alpha virt. eigenvalues --    0.53395   0.79678   0.85702   0.85702   0.87427

  Beta  occ. eigenvalues -- -101.50603 -10.21660  -9.43988  -7.20094  -7.19347
  Beta  occ. eigenvalues --   -7.19347  -0.81076  -0.69153  -0.44551  -0.44551
  Beta  occ. eigenvalues --   -0.44203  -0.30553  -0.30553
  Beta virt. eigenvalues --   -0.13082   0.09892   0.12404   0.15539   0.15539
  Beta virt. eigenvalues --    0.40157   0.43366   0.43366   0.44371   0.53976
  Beta virt. eigenvalues --    0.53976   0.57926   0.81617   0.86818   0.86818

 Mulliken charges and spin densities:
               1          2
     1  C   -0.519312   0.946474
     2  H    0.204748  -0.035315
     3  H    0.204748  -0.035316
     4  H    0.204750  -0.035315
     5  H    0.135277  -0.022537
     6  Cl  -0.230209   0.182008
 Sum of Mulliken charges =  -0.00000   1.00000

 Dipole moment (field-independent basis, Debye):
    X=              2.9661    Y=             -0.0000    Z=             -0.0000  Tot=              2.9661
 Quadrupole moment (field-independent basis, Debye-Ang):
   XX=            -19.2646   YY=            -20.8632   ZZ=            -20.8633
   XY=              0.0001   XZ=             -0.0000   YZ=              0.0000

  Exact polarizability:  38.236   0.000  17.511  -0.000   0.000  17.511
 Approx polarizability:  46.821   0.000  21.421  -0.000   0.000  21.421

 ******    1 imaginary frequencies (negative Signs) ******

                      1                      2                      3
                      A                      A                      A
 Frequencies --   -138.3727               300.1772               300.2564
 Red. masses --      6.3583                 1.0292                 1.0292
 Frc consts  --      0.0717                 0.0546                 0.0547
 IR Inten    --     10.3751                 2.8104                 2.8123

                      4                      5                      6
                      A                      A                      A
 Frequencies --    680.9295               680.9580               830.9527
 Red. masses --      1.0396                 1.0396                 1.1203
 Frc consts  --      0.2840                 0.2840                 0.4557
 IR Inten    --     26.2262                26.2242                73.1581

                      7                      8                      9
                      A                      A                      A
 Frequencies --   1436.9831              1436.9929              1812.4306
 Red. masses --      1.0963                 1.0963                 1.0733
 Frc consts  --      1.3337                 1.3338                 2.0772
 IR Inten    --      4.4836                 4.4834               365.6602

                     10                     11                     12
                      A                      A                      A
 Frequencies --   3125.6197              3295.0693              3295.0797
 Red. masses --      1.0108                 1.1168                 1.1168
 Frc consts  --      5.8181                 7.1440                 7.1440
 IR Inten    --      1.8177                 0.8065                 0.8059

 - Thermochemistry -
 -------------------
 Temperature   298.150 Kelvin.  Pressure   1.00000 Atm.
 Atom     1 has atomic number  6 and mass  12.00000

 Molecular mass:    51.00015 amu.
 Principal axes and moments of inertia in atomic units:
                           1         2         3
     Eigenvalues --    12.49575 366.99414 366.99424
           X            1.00000   0.00000  -0.00000
           Y           -0.00000   1.00000   0.00000
           Z            0.00000  -0.00000   1.00000
 This molecule is an asymmetric top.
 Rotational symmetry number  1.
 Rotational temperatures (Kelvin)      6.93147     0.23601     0.23601
 Rotational constants (GHZ):         144.42837     4.91763     4.91763
    1 imaginary frequencies ignored.
 Zero-point vibrational energy     102851.6 (Joules/Mol)
                                   24.58213 (Kcal/Mol)
 Warning -- explicit consideration of   2 degrees of freedom as
           vibrations may cause significant error
 Vibrational temperatures:    431.89   432.00   979.71   979.75  1195.56
          (Kelvin)           2067.50  2067.51  2607.68  4497.07  4740.87
                             4740.88

 Zero-point correction=                           0.039174 (Hartree/Particle)
 Thermal correction to Energy=                    0.043172
 Thermal correction to Enthalpy=                  0.044116
 Thermal correction to Gibbs Free Energy=         0.013307
 Sum of electronic and zero-point Energies=           -500.600782
 Sum of electronic and thermal Energies=              -500.596784
 Sum of electronic and thermal Enthalpies=            -500.595840
 Sum of electronic and thermal Free Energies=         -500.626649

                     E (Thermal)             CV                S
                      KCal/Mol        Cal/Mol-Kelvin    Cal/Mol-Kelvin
 Total                   27.091             11.852             64.843
 Electronic               0.000              0.000              1.377
 Translational            0.889              2.981             37.711
 Rotational               0.889              2.981             22.047
 Vibrational             25.313              5.891              3.708
 Vibration     1          0.693              1.673              1.416
 Vibration     2          0.693              1.673              1.415

 Optimization completed.
    -- Stationary point found.
 Normal termination of Gaussian 16 at Tue Oct  6 20:48:59 2020.
