 Gaussian 16, Revision A.03,

 ----------------------------------------------------------------------
 #P Opt(TS,MaxCyc=50,NoEigenTest,MaxStep=10,CalcFC) B3LYP/6-31G* 5D 7F
 Integral=UltraFineGrid SCF=(NoSymm,XQC,MaxCyc=120) IOp(1/33=1) Empiric
 alDispersion=GD3BJ
 ----------------------------------------------------------------------

 TstMul:  Mul=     2
 TstMul:  ICh=     0
 TstMul:  Mul=     2
 Symbolic Z-matrix:
 Charge =  0 Multiplicity = 2

 SCF Done:  E(UB3LYP) =  -116.235958255     A.U. after   16 cycles
 SCF Done:  E(UB3LYP) =  -116.235940184     A.U. after   15 cycles
 SCF Done:  E(UB3LYP) =  -116.235993095     A.U. after   14 cycles
 SCF Done:  E(UB3LYP) =  -116.235991695     A.U. after   13 cycles
 SCF Done:  E(UB3LYP) =  -116.235990648     A.U. after   15 cycles
 SCF Done:  E(UB3LYP) =  -116.235991740     A.U. after   12 cycles
 SCF Done:  E(UB3LYP) =  -116.235991749     A.U. after    9 cycles
 Optimization completed.
    -- Stationary point found.
 Normal termination of Gaussian 16 at Tue Oct  6 20:47:49 2020.
 Gaussian 16:  ES64L-G16RevA.03 25-Dec-2016

 ----------------------------------------------------------------------
 #P Freq B3LYP/6-31G* 5D 7F Integral=UltraFineGrid SCF=(NoSymm,XQC,MaxC
 yc=120) IOp(1/33=1) EmpiricalDispersion=GD3BJ Geom=Check Guess=Read
 ----------------------------------------------------------------------

 TstMul:  Mul=     2
 TstMul:  ICh=     0
 TstMul:  Mul=     2
 Structure from the checkpoint file:  "MN_81_RKT04_BH76_B3LYP_631Gs.chk"
 Charge =  0 Multiplicity = 2

                         Standard orientation:
 ---------------------------------------------------------------------
 Center     Atomic      Atomic             Coordinates (Angstroms)
 Number     Number       Type             X           Y           Z
 ---------------------------------------------------------------------
      1          6           0       -1.212111    0.009830    0.000301
      2          8           0        1.286573   -0.109507    0.000127
      3          1           0        0.051016   -0.153600    0.015100
      4          1           0       -1.530832   -0.130695    1.033217
      5          1           0       -1.402131    1.015031   -0.376636
      6          1           0       -1.563837   -0.771468   -0.674130
      7          1           0        1.425871    0.857807   -0.000376
 ---------------------------------------------------------------------

 SCF Done:  E(UB3LYP) =  -116.235991749     A.U. after    1 cycles

 The electronic state is 2-A.
 Alpha  occ. eigenvalues --  -19.15162 -10.19444  -0.98095  -0.71464  -0.49092
 Alpha  occ. eigenvalues --   -0.42480  -0.42247  -0.40751  -0.29329  -0.26893
 Alpha virt. eigenvalues --    0.08402   0.12369   0.15986   0.16258   0.28412
 Alpha virt. eigenvalues --    0.51142   0.51274   0.54207   0.76005   0.82006
 Alpha virt. eigenvalues --    0.87974   0.88139   0.89885   0.91568   0.97363

  Beta  occ. eigenvalues --  -19.13606 -10.18577  -0.94085  -0.69120  -0.46006
  Beta  occ. eigenvalues --   -0.41648  -0.41527  -0.36743  -0.27754
  Beta virt. eigenvalues --   -0.12356   0.09011   0.13047   0.16537   0.16816
  Beta virt. eigenvalues --    0.30616   0.51605   0.51710   0.57965   0.76480
  Beta virt. eigenvalues --    0.83451   0.88587   0.88774   0.90815   0.92514

 Mulliken charges and spin densities:
               1          2
     1  C   -0.636842   0.550870
     2  O   -0.645435   0.575218
     3  H    0.350602  -0.069292
     4  H    0.184525  -0.013654
     5  H    0.174236  -0.017074
     6  H    0.187930  -0.012232
     7  H    0.384983  -0.013835
 Sum of Mulliken charges =  -0.00000   1.00000

 Dipole moment (field-independent basis, Debye):
    X=             -1.3997    Y=              1.5279    Z=              0.0025  Tot=              2.0721
 Quadrupole moment (field-independent basis, Debye-Ang):
   XX=            -14.6519   YY=            -12.5457   ZZ=            -14.3973
   XY=              2.6098   XZ=             -0.0057   YZ=              0.0166

  Exact polarizability:  35.300   1.175  17.971  -0.059  -0.007  14.458
 Approx polarizability:  43.809   0.029  22.675  -0.132  -0.018  17.172

 ******    1 imaginary frequencies (negative Signs) ******

                      1                      2                      3
                      A                      A                      A
 Frequencies --  -1470.3276                25.0438               317.6541
 Red. masses --      1.0706                 1.0478                 1.0703
 Frc consts  --      1.3637                 0.0004                 0.0636
 IR Inten    --    584.4020                82.2246                 9.4928

                      4                      5                      6
                      A                      A                      A
 Frequencies --    380.6196               609.7485               905.8695
 Red. masses --      1.1415                 3.2824                 1.1720
 Frc consts  --      0.0974                 0.7190                 0.5666
 IR Inten    --     10.0808                29.5240                93.8892

                      7                      8                      9
                      A                      A                      A
 Frequencies --   1107.5470              1249.9064              1454.3479
 Red. masses --      1.0908                 1.1606                 1.1044
 Frc consts  --      0.7884                 1.0683                 1.3763
 IR Inten    --     45.0242                 0.5730                30.1889

                     10                     11                     12
                      A                      A                      A
 Frequencies --   1467.7411              1506.5510              3090.5504
 Red. masses --      1.0658                 1.0246                 1.0212
 Frc consts  --      1.3528                 1.3702                 5.7471
 IR Inten    --      2.7076                53.6677                 1.6596

                     13                     14                     15
                      A                      A                      A
 Frequencies --   3216.1818              3220.2895              3684.7685
 Red. masses --      1.1089                 1.1094                 1.0664
 Frc consts  --      6.7578                 6.7787                 8.5307
 IR Inten    --     10.8085                 9.4014                13.1753

 - Thermochemistry -
 -------------------
 Temperature   298.150 Kelvin.  Pressure   1.00000 Atm.
 Atom     1 has atomic number  6 and mass  12.00000

 Molecular mass:    33.03404 amu.
 Principal axes and moments of inertia in atomic units:
                           1         2         3
     Eigenvalues --    15.16323 194.25621 197.44142
           X            0.99975   0.02224   0.00002
           Y           -0.02224   0.99975   0.00005
           Z           -0.00002  -0.00006   1.00000
 This molecule is an asymmetric top.
 Rotational symmetry number  1.
 Rotational temperatures (Kelvin)      5.71210     0.44587     0.43868
 Rotational constants (GHZ):         119.02089     9.29052     9.14064
    1 imaginary frequencies ignored.
 Zero-point vibrational energy     133005.7 (Joules/Mol)
                                   31.78913 (Kcal/Mol)
 Warning -- explicit consideration of   4 degrees of freedom as
           vibrations may cause significant error
 Vibrational temperatures:     36.03   457.03   547.63   877.29  1303.34
          (Kelvin)           1593.51  1798.34  2092.48  2111.75  2167.59
                             4446.61  4627.37  4633.28  5301.56

 Zero-point correction=                           0.050659 (Hartree/Particle)
 Thermal correction to Energy=                    0.055369
 Thermal correction to Enthalpy=                  0.056313
 Thermal correction to Gibbs Free Energy=         0.023988
 Sum of electronic and zero-point Energies=           -116.185333
 Sum of electronic and thermal Energies=              -116.180623
 Sum of electronic and thermal Enthalpies=            -116.179679
 Sum of electronic and thermal Free Energies=         -116.212004

                     E (Thermal)             CV                S
                      KCal/Mol        Cal/Mol-Kelvin    Cal/Mol-Kelvin
 Total                   34.745             13.294             68.035
 Electronic               0.000              0.000              1.377
 Translational            0.889              2.981             36.416
 Rotational               0.889              2.981             20.991
 Vibrational             32.967              7.333              9.250
 Vibration     1          0.593              1.985              6.188
 Vibration     2          0.704              1.640              1.322
 Vibration     3          0.750              1.511              1.037
 Vibration     4          0.969              1.011              0.433

 Optimization completed.
    -- Stationary point found.
 Normal termination of Gaussian 16 at Tue Oct  6 20:48:18 2020.
