 Gaussian 16, Revision A.03,

 ----------------------------------------------------------------------
 #P Opt(TS,MaxCyc=50,NoEigenTest,MaxStep=10,CalcFC) B3LYP/6-31G* 5D 7F
 Integral=UltraFineGrid SCF=(NoSymm,XQC,MaxCyc=120) IOp(1/33=1) Empiric
 alDispersion=GD3BJ
 ----------------------------------------------------------------------

 TstMul:  Mul=     3
 TstMul:  ICh=     0
 TstMul:  Mul=     3
 Symbolic Z-matrix:
 Charge =  0 Multiplicity = 3

 SCF Done:  E(UB3LYP) =  -76.2196371439     A.U. after   12 cycles
 SCF Done:  E(UB3LYP) =  -76.2192499351     A.U. after   11 cycles
 SCF Done:  E(UB3LYP) =  -76.2191579205     A.U. after   11 cycles
 SCF Done:  E(UB3LYP) =  -76.2191933873     A.U. after    9 cycles
 SCF Done:  E(UB3LYP) =  -76.2191918969     A.U. after    8 cycles
 SCF Done:  E(UB3LYP) =  -76.2191917098     A.U. after    8 cycles
 Optimization completed.
    -- Stationary point found.
 Normal termination of Gaussian 16 at Tue Oct  6 20:48:10 2020.
 Gaussian 16:  ES64L-G16RevA.03 25-Dec-2016

 ----------------------------------------------------------------------
 #P Freq B3LYP/6-31G* 5D 7F Integral=UltraFineGrid SCF=(NoSymm,XQC,MaxC
 yc=120) IOp(1/33=1) EmpiricalDispersion=GD3BJ Geom=Check Guess=Read
 ----------------------------------------------------------------------

 TstMul:  Mul=     3
 TstMul:  ICh=     0
 TstMul:  Mul=     3
 Structure from the checkpoint file:  "MN_89_RKT14_BH76_B3LYP_631Gs.chk"
 Charge =  0 Multiplicity = 3

                         Standard orientation:
 ---------------------------------------------------------------------
 Center     Atomic      Atomic             Coordinates (Angstroms)
 Number     Number       Type             X           Y           Z
 ---------------------------------------------------------------------
      1          1           0        0.000000    0.000000   -0.804595
      2          8           0        0.000000    0.000000    0.326022
      3          1           0        0.000000    0.000000   -1.803580
 ---------------------------------------------------------------------

 SCF Done:  E(UB3LYP) =  -76.2191917098     A.U. after    1 cycles

 Unable to determine electronic state:  partially filled degenerate orbitals.
 Alpha  occ. eigenvalues --  -19.23456  -1.00504  -0.52907  -0.41902  -0.34365
 Alpha  occ. eigenvalues --   -0.33046
 Alpha virt. eigenvalues --    0.17559   0.63578   0.76421   0.80441   0.85238
 Alpha virt. eigenvalues --    0.91969   1.37434   1.68234   1.73079   1.74215
 Alpha virt. eigenvalues --    1.74250   2.22258
  Beta  occ. eigenvalues --  -19.19798  -0.89984  -0.45105  -0.30572
  Beta virt. eigenvalues --   -0.15605  -0.15520   0.21733   0.66838   0.84332
  Beta virt. eigenvalues --    0.87413   0.90999   0.96707   1.43338   1.76535
  Beta virt. eigenvalues --    1.77594   1.80860   1.81665   2.27562

 Mulliken charges and spin densities:
               1          2
     1  H    0.254329  -0.099798
     2  O   -0.280836   1.445428
     3  H    0.026507   0.654370
 Sum of Mulliken charges =   0.00000   2.00000

 Dipole moment (field-independent basis, Debye):
    X=              0.0000    Y=             -0.0000    Z=             -1.2352  Tot=              1.2352
 Quadrupole moment (field-independent basis, Debye-Ang):
   XX=             -7.6940   YY=             -6.5598   ZZ=             -6.2412
   XY=              0.0000   XZ=              0.0000   YZ=             -0.0000

  Exact polarizability:   2.304   0.000   2.636  -0.000  -0.000  19.912
 Approx polarizability:   2.411   0.000   3.160  -0.000  -0.000  26.566

 ******    1 imaginary frequencies (negative Signs) ******

                      1                      2                      3
                     SG                     PI                     PI
 Frequencies --  -1285.6141               465.7698               889.5812
 Red. masses --      1.0219                 1.0180                 1.0180
 Frc consts  --      0.9952                 0.1301                 0.4747
 IR Inten    --    263.3266                28.8949                22.8550

                      4
                     SG
 Frequencies --   1490.3173
 Red. masses --      1.1088
 Frc consts  --      1.4510
 IR Inten    --      7.9230

 - Thermochemistry -
 -------------------
 Temperature   298.150 Kelvin.  Pressure   1.00000 Atm.
 Atom     1 has atomic number  1 and mass   1.00783

 Molecular mass:    18.01056 amu.
 Principal axes and moments of inertia in atomic units:
                           1         2         3
     Eigenvalues --     0.00000  18.78223  18.78223
           X            0.00000   0.00000   1.00000
           Y            0.00000   1.00000   0.00000
           Z            1.00000   0.00000   0.00000
 This molecule is a prolate symmetric top.
 Rotational symmetry number  1.
 Rotational temperature (Kelvin)      4.61148
 Rotational constant (GHZ):          96.087690
    1 imaginary frequencies ignored.
 Zero-point vibrational energy      17020.9 (Joules/Mol)
                                    4.06809 (Kcal/Mol)
 Warning -- explicit consideration of   1 degrees of freedom as
           vibrations may cause significant error
 Vibrational temperatures:    670.14  1279.91  2144.23
          (Kelvin)

 Zero-point correction=                           0.006483 (Hartree/Particle)
 Thermal correction to Energy=                    0.009155
 Thermal correction to Enthalpy=                  0.010100
 Thermal correction to Gibbs Free Energy=        -0.012693
 Sum of electronic and zero-point Energies=            -76.212709
 Sum of electronic and thermal Energies=               -76.210036
 Sum of electronic and thermal Enthalpies=             -76.209092
 Sum of electronic and thermal Free Energies=          -76.231885

                     E (Thermal)             CV                S
                      KCal/Mol        Cal/Mol-Kelvin    Cal/Mol-Kelvin
 Total                    5.745              6.886             47.971
 Electronic               0.000              0.000              2.183
 Translational            0.889              2.981             34.608
 Rotational               0.592              1.987             10.272
 Vibrational              4.264              1.918              0.907
 Vibration     1          0.823              1.326              0.749

 Optimization completed.
    -- Stationary point found.

 1\1\GINC-NODE61\Freq\UB3LYP\6-31G(d)\H2O1(3)\RPEVERATI\06-Oct-2020\0\\
 #P Freq B3LYP/6-31G* 5D 7F Integral=UltraFineGrid SCF=(NoSymm,XQC,MaxC
 yc=120) IOp(1/33=1) EmpiricalDispersion=GD3BJ Geom=Check Guess=Read\\T
 S search on BH76.\\0,3\H,0.,0.,-0.8116012491\O,0.,0.,0.3190152267\H,0.
 ,0.,-1.8105863487\\Version=ES64L-G16RevA.03\HF=-76.2191917\S2=2.010943
 \S2-1=0.\S2A=2.000019\RMSD=1.090e-09\RMSF=2.223e-06\ZeroPoint=0.006482
 9\Thermal=0.0091553\Dipole=0.,0.,-0.4859775\DipoleDeriv=0.1985537,0.,0
 .,0.,0.181759,0.,0.,0.,-0.4369282,-0.2138853,0.,0.,0.,-0.2060161,0.,0.

 Normal termination of Gaussian 16 at Tue Oct  6 20:48:32 2020.
