 Gaussian 16, Revision A.03,

 ----------------------------------------------------------------------
 #P Opt(TS,MaxCyc=50,NoEigenTest,MaxStep=10,CalcFC) B3LYP/6-31G* 5D 7F
 Integral=UltraFineGrid SCF=(NoSymm,XQC,MaxCyc=120) IOp(1/33=1) Empiric
 alDispersion=GD3BJ
 ----------------------------------------------------------------------

 TstMul:  Mul=     2
 TstMul:  ICh=     0
 TstMul:  Mul=     2
 Symbolic Z-matrix:
 Charge =  0 Multiplicity = 2

 SCF Done:  E(UB3LYP) =  -343.642640570     A.U. after   14 cycles
 SCF Done:  E(UB3LYP) =  -343.642179911     A.U. after   12 cycles
 SCF Done:  E(UB3LYP) =  -343.641840410     A.U. after   12 cycles
 SCF Done:  E(UB3LYP) =  -343.641608493     A.U. after   12 cycles
 SCF Done:  E(UB3LYP) =  -343.641459805     A.U. after   12 cycles
 SCF Done:  E(UB3LYP) =  -343.641374448     A.U. after   12 cycles
 SCF Done:  E(UB3LYP) =  -343.641335503     A.U. after   12 cycles
 SCF Done:  E(UB3LYP) =  -343.641328584     A.U. after   11 cycles
 SCF Done:  E(UB3LYP) =  -343.641328084     A.U. after    9 cycles
 SCF Done:  E(UB3LYP) =  -343.641328075     A.U. after    8 cycles
 Optimization completed.
    -- Stationary point found.
 Normal termination of Gaussian 16 at Tue Oct  6 20:48:37 2020.
 Gaussian 16:  ES64L-G16RevA.03 25-Dec-2016

 ----------------------------------------------------------------------
 #P Freq B3LYP/6-31G* 5D 7F Integral=UltraFineGrid SCF=(NoSymm,XQC,MaxC
 yc=120) IOp(1/33=1) EmpiricalDispersion=GD3BJ Geom=Check Guess=Read
 ----------------------------------------------------------------------

 TstMul:  Mul=     2
 TstMul:  ICh=     0
 TstMul:  Mul=     2
 Structure from the checkpoint file:  "MN_88_RKT12_BH76_B3LYP_631Gs.chk"
 Charge =  0 Multiplicity = 2

                         Standard orientation:
 ---------------------------------------------------------------------
 Center     Atomic      Atomic             Coordinates (Angstroms)
 Number     Number       Type             X           Y           Z
 ---------------------------------------------------------------------
      1         15           0        0.233397   -0.000000   -0.110183
      2          1           0        0.258464    1.035727    0.867784
      3          1           0        0.258292   -1.035847    0.867661
      4          1           0       -1.212018    0.000124   -0.184915
      5          1           0       -2.805694   -0.000001    0.102212
 ---------------------------------------------------------------------

 SCF Done:  E(UB3LYP) =  -343.641328075     A.U. after    1 cycles

 The electronic state is 2-A.
 Alpha  occ. eigenvalues --  -77.06519  -6.55493  -4.71640  -4.71565  -4.71190
 Alpha  occ. eigenvalues --   -0.65382  -0.41025  -0.39123  -0.30861  -0.26579
 Alpha virt. eigenvalues --    0.02908   0.03454   0.12431   0.27875   0.28941
 Alpha virt. eigenvalues --    0.31014   0.37455   0.65573   0.65940   0.67488
 Alpha virt. eigenvalues --    0.67687   0.72239   0.76582   0.96724   1.14099

  Beta  occ. eigenvalues --  -77.06443  -6.55415  -4.71520  -4.71458  -4.71067
  Beta  occ. eigenvalues --   -0.64879  -0.39428  -0.39039  -0.28074
  Beta virt. eigenvalues --   -0.09975   0.02952   0.04370   0.13092   0.27931
  Beta virt. eigenvalues --    0.29016   0.32229   0.37791   0.66223   0.66378
  Beta virt. eigenvalues --    0.67536   0.68299   0.72961   0.89709   0.98133

 Mulliken charges and spin densities:
               1          2
     1  P   -0.046048   0.142684
     2  H    0.034358  -0.003555
     3  H    0.034359  -0.003555
     4  H   -0.008751  -0.054724
     5  H   -0.013919   0.919151
 Sum of Mulliken charges =  -0.00000   1.00000

 Dipole moment (field-independent basis, Debye):
    X=             -0.2344    Y=             -0.0000    Z=              0.7606  Tot=              0.7959
 Quadrupole moment (field-independent basis, Debye-Ang):
   XX=            -17.7178   YY=            -15.8485   ZZ=            -17.4357
   XY=              0.0000   XZ=              1.2223   YZ=              0.0000

  Exact polarizability:  38.801   0.000  21.650  -0.198  -0.000  19.761
 Approx polarizability:  48.455   0.000  30.969   0.895  -0.000  26.811

 ******    1 imaginary frequencies (negative Signs) ******

                      1                      2                      3
                      A                      A                      A
 Frequencies --   -286.5718               238.7268               243.4902
 Red. masses --      1.0324                 1.0176                 1.0079
 Frc consts  --      0.0500                 0.0342                 0.0352
 IR Inten    --     45.5213                 3.8707                 3.7615

                      4                      5                      6
                      A                      A                      A
 Frequencies --   1038.6434              1155.9500              1163.6533
 Red. masses --      1.0776                 1.0251                 1.0264
 Frc consts  --      0.6849                 0.8070                 0.8189
 IR Inten    --     13.8037                13.6043                 8.3601

                      7                      8                      9
                      A                      A                      A
 Frequencies --   2078.2388              2408.3736              2417.9228
 Red. masses --      1.0425                 1.0350                 1.0409
 Frc consts  --      2.6528                 3.5372                 3.5855
 IR Inten    --    144.4240                73.9145               111.2043

 - Thermochemistry -
 -------------------
 Temperature   298.150 Kelvin.  Pressure   1.00000 Atm.
 Atom     1 has atomic number 15 and mass  30.97376

 Molecular mass:    35.00506 amu.
 Principal axes and moments of inertia in atomic units:
                           1         2         3
     Eigenvalues --    14.31447  45.33844  46.46882
           X            0.99969   0.00000   0.02478
           Y           -0.00000   1.00000  -0.00000
           Z           -0.02478   0.00000   0.99969
 This molecule is an asymmetric top.
 Rotational symmetry number  1.
 Rotational temperatures (Kelvin)      6.05080     1.91039     1.86391
 Rotational constants (GHZ):         126.07814    39.80599    38.83768
    1 imaginary frequencies ignored.
 Zero-point vibrational energy      64269.4 (Joules/Mol)
                                   15.36075 (Kcal/Mol)
 Warning -- explicit consideration of   2 degrees of freedom as
           vibrations may cause significant error
 Vibrational temperatures:    343.47   350.33  1494.38  1663.15  1674.24
          (Kelvin)           2990.12  3465.11  3478.85

 Zero-point correction=                           0.024479 (Hartree/Particle)
 Thermal correction to Energy=                    0.028381
 Thermal correction to Enthalpy=                  0.029326
 Thermal correction to Gibbs Free Energy=         0.000919
 Sum of electronic and zero-point Energies=           -343.616849
 Sum of electronic and thermal Energies=              -343.612947
 Sum of electronic and thermal Enthalpies=            -343.612003
 Sum of electronic and thermal Free Energies=         -343.640409

                     E (Thermal)             CV                S
                      KCal/Mol        Cal/Mol-Kelvin    Cal/Mol-Kelvin
 Total                   17.810             10.332             59.786
 Electronic               0.000              0.000              1.377
 Translational            0.889              2.981             36.589
 Rotational               0.889              2.981             18.051
 Vibrational             16.032              4.370              3.769
 Vibration     1          0.657              1.781              1.812
 Vibration     2          0.659              1.774              1.777

 Optimization completed.
    -- Stationary point found.

 1\1\GINC-NODE22\Freq\UB3LYP\6-31G(d)\H4P1(2)\RPEVERATI\06-Oct-2020\0\\
 #P Freq B3LYP/6-31G* 5D 7F Integral=UltraFineGrid SCF=(NoSymm,XQC,MaxC
 yc=120) IOp(1/33=1) EmpiricalDispersion=GD3BJ Geom=Check Guess=Read\\T
 S search on BH76.\\0,2\P,0.2773676267,0.0000019132,-0.1087610341\H,0.3
 012432909,1.0410007038,0.8636216747\H,0.3068885599,-1.0305367337,0.874
 5472726\H,-1.1681706711,-0.0043189481,-0.180932467\H,-2.7613333973,-0.
 0073720873,0.1090126793\\Version=ES64L-G16RevA.03\State=2-A\HF=-343.64
 13281\S2=0.75294\S2-1=0.\S2A=0.750001\RMSD=8.288e-10\RMSF=6.702e-07\Ze

 Normal termination of Gaussian 16 at Tue Oct  6 20:48:59 2020.
