 Gaussian 16, Revision A.03,

 ----------------------------------------------------------------------
 #P Opt(TS,MaxCyc=50,NoEigenTest,MaxStep=10,CalcFC) B3LYP/6-31G* 5D 7F
 Integral=UltraFineGrid SCF=(NoSymm,XQC,MaxCyc=120) IOp(1/33=1) Empiric
 alDispersion=GD3BJ
 ----------------------------------------------------------------------

 TstMul:  Mul=     2
 TstMul:  ICh=     0
 TstMul:  Mul=     2
 Symbolic Z-matrix:
 Charge =  0 Multiplicity = 2

 SCF Done:  E(UB3LYP) =  -399.885879585     A.U. after   13 cycles
 SCF Done:  E(UB3LYP) =  -399.885339560     A.U. after   12 cycles
 SCF Done:  E(UB3LYP) =  -399.884959619     A.U. after   12 cycles
 SCF Done:  E(UB3LYP) =  -399.884731126     A.U. after   12 cycles
 SCF Done:  E(UB3LYP) =  -399.884611630     A.U. after   12 cycles
 SCF Done:  E(UB3LYP) =  -399.884571857     A.U. after   12 cycles
 SCF Done:  E(UB3LYP) =  -399.884570524     A.U. after    9 cycles
 Optimization completed.
    -- Stationary point found.
 Normal termination of Gaussian 16 at Tue Oct  6 20:48:14 2020.
 Gaussian 16:  ES64L-G16RevA.03 25-Dec-2016

 ----------------------------------------------------------------------
 #P Freq B3LYP/6-31G* 5D 7F Integral=UltraFineGrid SCF=(NoSymm,XQC,MaxC
 yc=120) IOp(1/33=1) EmpiricalDispersion=GD3BJ Geom=Check Guess=Read
 ----------------------------------------------------------------------

 TstMul:  Mul=     2
 TstMul:  ICh=     0
 TstMul:  Mul=     2
 Structure from the checkpoint file:  "MN_90_RKT16_BH76_B3LYP_631Gs.chk"
 Charge =  0 Multiplicity = 2

                         Standard orientation:
 ---------------------------------------------------------------------
 Center     Atomic      Atomic             Coordinates (Angstroms)
 Number     Number       Type             X           Y           Z
 ---------------------------------------------------------------------
      1          1           0        1.290331   -0.167276    0.000000
      2         16           0        0.000000    0.231166    0.000000
      3          1           0       -0.462248   -1.080897    0.000000
      4          1           0       -0.828083   -2.450475    0.000000
 ---------------------------------------------------------------------

 SCF Done:  E(UB3LYP) =  -399.884570524     A.U. after    1 cycles

 The electronic state is 2-A'.
 Alpha  occ. eigenvalues --  -88.86612  -7.94708  -5.91167  -5.90828  -5.89992
 Alpha  occ. eigenvalues --   -0.75018  -0.46951  -0.38817  -0.30473  -0.26310
 Alpha virt. eigenvalues --    0.02447   0.08189   0.32247   0.33263   0.35331
 Alpha virt. eigenvalues --    0.36374   0.69788   0.72261   0.73242   0.75596
 Alpha virt. eigenvalues --    0.76339   0.86727   1.00636   1.17892
  Beta  occ. eigenvalues --  -88.86484  -7.94582  -5.90916  -5.90589  -5.89916
  Beta  occ. eigenvalues --   -0.74221  -0.45415  -0.37210  -0.26043
  Beta virt. eigenvalues --   -0.13057   0.02994   0.09993   0.32376   0.33922
  Beta virt. eigenvalues --    0.36461   0.36469   0.70387   0.74400   0.76192
  Beta virt. eigenvalues --    0.77055   0.81544   0.92207   1.00651   1.18104

 Mulliken charges and spin densities:
               1          2
     1  H    0.118335  -0.003694
     2  S   -0.171065   0.187311
     3  H    0.025281  -0.067932
     4  H    0.027449   0.884315
 Sum of Mulliken charges =   0.00000   1.00000

 Dipole moment (field-independent basis, Debye):
    X=              0.6637    Y=             -1.2254    Z=              0.0000  Tot=              1.3936
 Quadrupole moment (field-independent basis, Debye-Ang):
   XX=            -13.7295   YY=            -14.8166   ZZ=            -17.8684
   XY=              0.5226   XZ=              0.0000   YZ=              0.0000

  Exact polarizability:  18.531   5.213  30.335   0.000  -0.000  11.179
 Approx polarizability:  25.920   6.280  39.174   0.000  -0.000  13.810

 ******    1 imaginary frequencies (negative Signs) ******

                      1                      2                      3
                     A'                     A'                     A"
 Frequencies --   -511.5888               357.7109               390.5351
 Red. masses --      1.0229                 1.0168                 1.0152
 Frc consts  --      0.1577                 0.0767                 0.0912
 IR Inten    --     16.6532                 7.6318                14.0422

                      4                      5                      6
                     A'                     A'                     A'
 Frequencies --   1219.1452              2012.0101              2692.4440
 Red. masses --      1.0398                 1.0494                 1.0381
 Frc consts  --      0.9106                 2.5029                 4.4338
 IR Inten    --      4.5191                 4.0838                13.2261

 - Thermochemistry -
 -------------------
 Temperature   298.150 Kelvin.  Pressure   1.00000 Atm.
 Atom     1 has atomic number  1 and mass   1.00783

 Molecular mass:    34.99555 amu.
 Principal axes and moments of inertia in atomic units:
                           1         2         3
     Eigenvalues --     6.37437  33.50356  39.87793
           X            0.32439   0.94592   0.00000
           Y            0.94592  -0.32439   0.00000
           Z            0.00000   0.00000   1.00000
 This molecule is an asymmetric top.
 Rotational symmetry number  1.
 Rotational temperatures (Kelvin)     13.58784     2.58522     2.17198
 Rotational constants (GHZ):         283.12454    53.86715    45.25664
    1 imaginary frequencies ignored.
 Zero-point vibrational energy      39906.5 (Joules/Mol)
                                    9.53788 (Kcal/Mol)
 Warning -- explicit consideration of   2 degrees of freedom as
           vibrations may cause significant error
 Vibrational temperatures:    514.67   561.89  1754.08  2894.83  3873.83
          (Kelvin)

 Zero-point correction=                           0.015200 (Hartree/Particle)
 Thermal correction to Energy=                    0.018720
 Thermal correction to Enthalpy=                  0.019664
 Thermal correction to Gibbs Free Energy=        -0.007385
 Sum of electronic and zero-point Energies=           -399.869371
 Sum of electronic and thermal Energies=              -399.865851
 Sum of electronic and thermal Enthalpies=            -399.864907
 Sum of electronic and thermal Free Energies=         -399.891956

                     E (Thermal)             CV                S
                      KCal/Mol        Cal/Mol-Kelvin    Cal/Mol-Kelvin
 Total                   11.747              9.216             56.930
 Electronic               0.000              0.000              1.377
 Translational            0.889              2.981             36.588
 Rotational               0.889              2.981             16.795
 Vibrational              9.969              3.255              2.170
 Vibration     1          0.733              1.559              1.132
 Vibration     2          0.758              1.490              0.998

 Optimization completed.
    -- Stationary point found.

 1\1\GINC-NODE20\Freq\UB3LYP\6-31G(d)\H3S1(2)\RPEVERATI\06-Oct-2020\0\\
 #P Freq B3LYP/6-31G* 5D 7F Integral=UltraFineGrid SCF=(NoSymm,XQC,MaxC
 yc=120) IOp(1/33=1) EmpiricalDispersion=GD3BJ Geom=Check Guess=Read\\T
 S search on BH76.\\0,2\H,1.3026149667,-0.1603808225,0.\S,0.0196032186,
 0.2610342437,0.\H,-0.4659958832,-1.042566071,0.\H,-0.8562233604,-2.405
 3951512,0.\\Version=ES64L-G16RevA.03\State=2-A'\HF=-399.8845705\S2=0.7
 53727\S2-1=0.\S2A=0.750001\RMSD=1.529e-09\RMSF=2.384e-05\ZeroPoint=0.0
 151996\Thermal=0.0187198\Dipole=0.2524597,-0.4866911,0.\DipoleDeriv=-0

 Normal termination of Gaussian 16 at Tue Oct  6 20:48:35 2020.
