 Gaussian 16, Revision A.03,

 ----------------------------------------------------------------------
 #P Opt(TS,MaxCyc=50,NoEigenTest,MaxStep=10,CalcFC) B3LYP/6-31G* 5D 7F
 Integral=UltraFineGrid SCF=(NoSymm,XQC,MaxCyc=120) IOp(1/33=1) Empiric
 alDispersion=GD3BJ
 ----------------------------------------------------------------------

 TstMul:  Mul=     3
 TstMul:  ICh=     0
 TstMul:  Mul=     3
 Symbolic Z-matrix:
 Charge =  0 Multiplicity = 3

 SCF Done:  E(UB3LYP) =  -95.7087669609     A.U. after   14 cycles
 SCF Done:  E(UB3LYP) =  -95.7087114378     A.U. after   13 cycles
 SCF Done:  E(UB3LYP) =  -95.7086999423     A.U. after   13 cycles
 SCF Done:  E(UB3LYP) =  -95.7086954279     A.U. after   13 cycles
 SCF Done:  E(UB3LYP) =  -95.7086998142     A.U. after   14 cycles
 SCF Done:  E(UB3LYP) =  -95.7086998440     A.U. after    9 cycles
 Optimization completed.
    -- Stationary point found.
 Normal termination of Gaussian 16 at Tue Oct  6 20:48:30 2020.
 Gaussian 16:  ES64L-G16RevA.03 25-Dec-2016

 ----------------------------------------------------------------------
 #P Freq B3LYP/6-31G* 5D 7F Integral=UltraFineGrid SCF=(NoSymm,XQC,MaxC
 yc=120) IOp(1/33=1) EmpiricalDispersion=GD3BJ Geom=Check Guess=Read
 ----------------------------------------------------------------------

 TstMul:  Mul=     3
 TstMul:  ICh=     0
 TstMul:  Mul=     3
 Structure from the checkpoint file:  "MN_92_RKT18_BH76_B3LYP_631Gs.chk"
 Charge =  0 Multiplicity = 3

                         Standard orientation:
 ---------------------------------------------------------------------
 Center     Atomic      Atomic             Coordinates (Angstroms)
 Number     Number       Type             X           Y           Z
 ---------------------------------------------------------------------
      1          6           0       -1.216042   -0.012216    0.000000
      2          7           0        1.414147    0.128862    0.000001
      3          1           0       -1.422088   -0.561498    0.917209
      4          1           0       -1.422068   -0.561475   -0.917227
      5          1           0       -1.558825    1.021080    0.000007
      6          1           0        0.232578    0.172724    0.000007
      7          1           0        1.567630   -0.899564   -0.000002
 ---------------------------------------------------------------------

 SCF Done:  E(UB3LYP) =  -95.7086998440     A.U. after    1 cycles

 The electronic state is 3-A.
 Alpha  occ. eigenvalues --  -14.36377 -10.18991  -0.84373  -0.69776  -0.46249
 Alpha  occ. eigenvalues --   -0.41963  -0.41842  -0.35102  -0.31045  -0.23016
 Alpha virt. eigenvalues --    0.09255   0.12557   0.16593   0.16760   0.27279
 Alpha virt. eigenvalues --    0.50481   0.50611   0.54625   0.68548   0.69679
 Alpha virt. eigenvalues --    0.71480   0.82875   0.88994   0.89024   0.89804

  Beta  occ. eigenvalues --  -14.33549 -10.17905  -0.76780  -0.66768  -0.42897
  Beta  occ. eigenvalues --   -0.41153  -0.40911  -0.29807
  Beta virt. eigenvalues --   -0.09059  -0.08659   0.10356   0.13690   0.17261
  Beta virt. eigenvalues --    0.17417   0.30282   0.51334   0.52081   0.59525
  Beta virt. eigenvalues --    0.72032   0.73868   0.76981   0.84102   0.89711

 Mulliken charges and spin densities:
               1          2
     1  C   -0.605597   0.725105
     2  N   -0.512585   1.487747
     3  H    0.175002  -0.023463
     4  H    0.175002  -0.023463
     5  H    0.183019  -0.021914
     6  H    0.298359  -0.098290
     7  H    0.286798  -0.045723
 Sum of Mulliken charges =  -0.00000   2.00000

 Dipole moment (field-independent basis, Debye):
    X=             -1.1948    Y=             -1.4173    Z=             -0.0000  Tot=              1.8537
 Quadrupole moment (field-independent basis, Debye-Ang):
   XX=            -16.6273   YY=            -13.8148   ZZ=            -14.1811
   XY=             -2.7535   XZ=             -0.0000   YZ=             -0.0000

  Exact polarizability:  40.403  -0.772  20.318  -0.000   0.000  15.983
 Approx polarizability:  49.657   0.409  25.483  -0.000   0.000  18.986

 ******    1 imaginary frequencies (negative Signs) ******

                      1                      2                      3
                      A                      A                      A
 Frequencies --  -1278.9766                65.0588               362.7702
 Red. masses --      1.1398                 1.0497                 1.0823
 Frc consts  --      1.0985                 0.0026                 0.0839
 IR Inten    --    368.0875                60.1157                11.3593

                      4                      5                      6
                      A                      A                      A
 Frequencies --    417.7165               577.8488               803.6338
 Red. masses --      1.0800                 2.4499                 1.2010
 Frc consts  --      0.1110                 0.4820                 0.4570
 IR Inten    --      5.5845                 2.2753                26.4423

                      7                      8                      9
                      A                      A                      A
 Frequencies --   1128.1847              1170.0541              1452.6922
 Red. masses --      1.0613                 1.2707                 1.0903
 Frc consts  --      0.7959                 1.0249                 1.3557
 IR Inten    --     46.9073                 1.8585                10.7088

                     10                     11                     12
                      A                      A                      A
 Frequencies --   1456.5673              1523.8724              3096.5517
 Red. masses --      1.0795                 1.0444                 1.0172
 Frc consts  --      1.3493                 1.4289                 5.7464
 IR Inten    --      3.5640               119.7449                 0.5489

                     13                     14                     15
                      A                      A                      A
 Frequencies --   3236.6382              3238.9630              3308.7134
 Red. masses --      1.1120                 1.1120                 1.0726
 Frc consts  --      6.8637                 6.8735                 6.9181
 IR Inten    --     12.4832                 8.4049                20.7576

 - Thermochemistry -
 -------------------
 Temperature   298.150 Kelvin.  Pressure   1.00000 Atm.
 Atom     1 has atomic number  6 and mass  12.00000

 Molecular mass:    31.04220 amu.
 Principal axes and moments of inertia in atomic units:
                           1         2         3
     Eigenvalues --    15.74206 201.11201 204.74284
           X            0.99969  -0.02478  -0.00000
           Y            0.02478   0.99969  -0.00000
           Z            0.00000   0.00000   1.00000
 This molecule is an asymmetric top.
 Rotational symmetry number  1.
 Rotational temperatures (Kelvin)      5.50207     0.43068     0.42304
 Rotational constants (GHZ):         114.64457     8.97381     8.81467
    1 imaginary frequencies ignored.
 Zero-point vibrational energy     130627.8 (Joules/Mol)
                                   31.22080 (Kcal/Mol)
 Warning -- explicit consideration of   4 degrees of freedom as
           vibrations may cause significant error
 Vibrational temperatures:     93.61   521.95   601.00   831.40  1156.25
          (Kelvin)           1623.21  1683.45  2090.10  2095.68  2192.51
                             4455.25  4656.80  4660.15  4760.50

 Zero-point correction=                           0.049754 (Hartree/Particle)
 Thermal correction to Energy=                    0.054337
 Thermal correction to Enthalpy=                  0.055281
 Thermal correction to Gibbs Free Energy=         0.023611
 Sum of electronic and zero-point Energies=            -95.658946
 Sum of electronic and thermal Energies=               -95.654363
 Sum of electronic and thermal Enthalpies=             -95.653419
 Sum of electronic and thermal Free Energies=          -95.685089

                     E (Thermal)             CV                S
                      KCal/Mol        Cal/Mol-Kelvin    Cal/Mol-Kelvin
 Total                   34.097             13.364             66.656
 Electronic               0.000              0.000              2.183
 Translational            0.889              2.981             36.231
 Rotational               0.889              2.981             21.099
 Vibrational             32.320              7.402              7.143
 Vibration     1          0.597              1.971              4.298
 Vibration     2          0.737              1.549              1.110
 Vibration     3          0.781              1.432              0.900
 Vibration     4          0.934              1.079              0.489

 Optimization completed.
    -- Stationary point found.
 Normal termination of Gaussian 16 at Tue Oct  6 20:48:56 2020.
