 Gaussian 16, Revision A.03,

 ----------------------------------------------------------------------
 #P Opt(TS,MaxCyc=50,NoEigenTest,MaxStep=10,CalcFC) B3LYP/6-31G* 5D 7F
 Integral=UltraFineGrid SCF=(NoSymm,XQC,MaxCyc=120) IOp(1/33=1) Empiric
 alDispersion=GD3BJ
 ----------------------------------------------------------------------

 TstMul:  Mul=     2
 TstMul:  ICh=     0
 TstMul:  Mul=     2
 Symbolic Z-matrix:
 Charge =  0 Multiplicity = 2

 SCF Done:  E(UB3LYP) =  -96.3741862654     A.U. after   14 cycles
 SCF Done:  E(UB3LYP) =  -96.3744064040     A.U. after   13 cycles
 SCF Done:  E(UB3LYP) =  -96.3744442550     A.U. after   13 cycles
 SCF Done:  E(UB3LYP) =  -96.3744446103     A.U. after    9 cycles
 Optimization completed.
    -- Stationary point found.
 Normal termination of Gaussian 16 at Tue Oct  6 20:48:46 2020.
 Gaussian 16:  ES64L-G16RevA.03 25-Dec-2016

 ----------------------------------------------------------------------
 #P Freq B3LYP/6-31G* 5D 7F Integral=UltraFineGrid SCF=(NoSymm,XQC,MaxC
 yc=120) IOp(1/33=1) EmpiricalDispersion=GD3BJ Geom=Check Guess=Read
 ----------------------------------------------------------------------

 TstMul:  Mul=     2
 TstMul:  ICh=     0
 TstMul:  Mul=     2
 Structure from the checkpoint file:  "MN_95_RKT21_BH76_B3LYP_631Gs.chk"
 Charge =  0 Multiplicity = 2

                         Standard orientation:
 ---------------------------------------------------------------------
 Center     Atomic      Atomic             Coordinates (Angstroms)
 Number     Number       Type             X           Y           Z
 ---------------------------------------------------------------------
      1          6           0       -1.263427    0.000003    0.013708
      2          7           0        1.315481   -0.000001   -0.138052
      3          1           0       -1.609216    0.909467   -0.478560
      4          1           0       -1.430184    0.002514    1.090681
      5          1           0       -1.608467   -0.912074   -0.474240
      6          1           0        0.067870    0.000168   -0.213457
      7          1           0        1.476239    0.806776    0.479863
      8          1           0        1.475958   -0.806860    0.479831
 ---------------------------------------------------------------------

 SCF Done:  E(UB3LYP) =  -96.3744446103     A.U. after    1 cycles

 The electronic state is 2-A.
 Alpha  occ. eigenvalues --  -14.32445 -10.17840  -0.85038  -0.69349  -0.45811
 Alpha  occ. eigenvalues --   -0.44694  -0.40858  -0.40702  -0.29374  -0.22174
 Alpha virt. eigenvalues --    0.08297   0.13113   0.15708   0.16983   0.17438
 Alpha virt. eigenvalues --    0.29155   0.50486   0.51656   0.55707   0.70933
 Alpha virt. eigenvalues --    0.72696   0.72779   0.88289   0.88779   0.89363

  Beta  occ. eigenvalues --  -14.31251 -10.16906  -0.82000  -0.67034  -0.45015
  Beta  occ. eigenvalues --   -0.41423  -0.40033  -0.39956  -0.26684
  Beta virt. eigenvalues --   -0.08731   0.08968   0.13822   0.16129   0.17574
  Beta virt. eigenvalues --    0.18004   0.31101   0.50813   0.52345   0.59893
  Beta virt. eigenvalues --    0.72571   0.72864   0.75432   0.88797   0.89505

 Mulliken charges and spin densities:
               1          2
     1  C   -0.628615   0.589258
     2  N   -0.763496   0.571917
     3  H    0.173768  -0.015532
     4  H    0.163451  -0.020098
     5  H    0.173740  -0.015552
     6  H    0.291228  -0.078456
     7  H    0.294962  -0.015768
     8  H    0.294963  -0.015769
 Sum of Mulliken charges =   0.00000   1.00000

 Dipole moment (field-independent basis, Debye):
    X=             -0.6065    Y=              0.0000    Z=              1.6983  Tot=              1.8034
 Quadrupole moment (field-independent basis, Debye-Ang):
   XX=            -16.2268   YY=            -13.6102   ZZ=            -15.5157
   XY=              0.0001   XZ=              3.0578   YZ=             -0.0001

  Exact polarizability:  43.870  -0.000  21.457   0.633  -0.000  18.996
 Approx polarizability:  52.086   0.000  26.846  -0.337  -0.000  23.675

 ******    1 imaginary frequencies (negative Signs) ******

                      1                      2                      3
                      A                      A                      A
 Frequencies --  -1726.5397                34.9053               384.6337
 Red. masses --      1.0716                 1.0261                 1.2282
 Frc consts  --      1.8821                 0.0007                 0.1071
 IR Inten    --    431.8658                35.4485                 8.8195

                      4                      5                      6
                      A                      A                      A
 Frequencies --    401.7440               562.8303               804.2425
 Red. masses --      1.0251                 2.4015                 1.1090
 Frc consts  --      0.0975                 0.4482                 0.4226
 IR Inten    --      3.1165                 4.4516                 6.2371

                      7                      8                      9
                      A                      A                      A
 Frequencies --    879.1586              1177.6567              1408.8545
 Red. masses --      1.2494                 1.1781                 1.1143
 Frc consts  --      0.5690                 0.9627                 1.3032
 IR Inten    --     98.7249                13.6186               152.0622

                     10                     11                     12
                      A                      A                      A
 Frequencies --   1459.3538              1469.9416              1556.2018
 Red. masses --      1.0944                 1.0569                 1.0303
 Frc consts  --      1.3732                 1.3455                 1.4701
 IR Inten    --      8.9420                 9.0630                11.2664

                     13                     14                     15
                      A                      A                      A
 Frequencies --   1641.1956              3086.6066              3214.3686
 Red. masses --      1.0629                 1.0205                 1.1097
 Frc consts  --      1.6868                 5.7281                 6.7552
 IR Inten    --     22.5574                 3.5479                13.2601

                     16                     17                     18
                      A                      A                      A
 Frequencies --   3216.3759              3369.1481              3470.4260
 Red. masses --      1.1098                 1.0498                 1.0889
 Frc consts  --      6.7643                 7.0208                 7.7271
 IR Inten    --     15.7257                 8.6847                 3.6939

 - Thermochemistry -
 -------------------
 Temperature   298.150 Kelvin.  Pressure   1.00000 Atm.
 Atom     1 has atomic number  6 and mass  12.00000

 Molecular mass:    32.05002 amu.
 Principal axes and moments of inertia in atomic units:
                           1         2         3
     Eigenvalues --    19.14961 204.95059 207.11378
           X            0.99969   0.00000   0.02510
           Y           -0.00000   1.00000  -0.00000
           Z           -0.02510   0.00000   0.99969
 This molecule is an asymmetric top.
 Rotational symmetry number  1.
 Rotational temperatures (Kelvin)      4.52301     0.42261     0.41819
 Rotational constants (GHZ):          94.24426     8.80574     8.71377
    1 imaginary frequencies ignored.
 Zero-point vibrational energy     168300.5 (Joules/Mol)
                                   40.22478 (Kcal/Mol)
 Warning -- explicit consideration of   4 degrees of freedom as
           vibrations may cause significant error
 Vibrational temperatures:     50.22   553.40   578.02   809.79  1157.13
          (Kelvin)           1264.91  1694.39  2027.03  2099.68  2114.92
                             2239.03  2361.31  4440.94  4624.76  4627.65
                             4847.45  4993.17

 Zero-point correction=                           0.064102 (Hartree/Particle)
 Thermal correction to Energy=                    0.068795
 Thermal correction to Enthalpy=                  0.069739
 Thermal correction to Gibbs Free Energy=         0.037661
 Sum of electronic and zero-point Energies=            -96.310342
 Sum of electronic and thermal Energies=               -96.305650
 Sum of electronic and thermal Enthalpies=             -96.304706
 Sum of electronic and thermal Free Energies=          -96.336784

                     E (Thermal)             CV                S
                      KCal/Mol        Cal/Mol-Kelvin    Cal/Mol-Kelvin
 Total                   43.169             13.797             67.514
 Electronic               0.000              0.000              1.377
 Translational            0.889              2.981             36.326
 Rotational               0.889              2.981             21.324
 Vibrational             41.392              7.836              8.486
 Vibration     1          0.594              1.983              5.529
 Vibration     2          0.754              1.503              1.021
 Vibration     3          0.767              1.466              0.956
 Vibration     4          0.919              1.112              0.518

                           ! Non-Optimized Parameters !
 Normal termination of Gaussian 16 at Tue Oct  6 20:49:13 2020.
