 Gaussian 16, Revision A.03,

 ----------------------------------------------------------------------
 #P Opt(TS,MaxCyc=50,NoEigenTest,MaxStep=10,CalcFC) B3LYP/6-31G* 5D 7F
 Integral=UltraFineGrid SCF=(NoSymm,XQC,MaxCyc=120) IOp(1/33=1) Empiric
 alDispersion=GD3BJ
 ----------------------------------------------------------------------

 TstMul:  Mul=     3
 TstMul:  ICh=     0
 TstMul:  Mul=     3
 Symbolic Z-matrix:
 Charge =  0 Multiplicity = 3

 SCF Done:  E(UB3LYP) =  -535.851438709     A.U. after   24 cycles
 SCF Done:  E(UB3LYP) =  -535.850580894     A.U. after   17 cycles
 SCF Done:  E(UB3LYP) =  -535.850218886     A.U. after   17 cycles
 SCF Done:  E(UB3LYP) =  -535.850223471     A.U. after   16 cycles
 SCF Done:  E(UB3LYP) =  -535.850223723     A.U. after   12 cycles
 Optimization completed.
    -- Stationary point found.
 Normal termination of Gaussian 16 at Tue Oct  6 20:48:14 2020.
 Gaussian 16:  ES64L-G16RevA.03 25-Dec-2016

 ----------------------------------------------------------------------
 #P Freq B3LYP/6-31G* 5D 7F Integral=UltraFineGrid SCF=(NoSymm,XQC,MaxC
 yc=120) IOp(1/33=1) EmpiricalDispersion=GD3BJ Geom=Check Guess=Read
 ----------------------------------------------------------------------

 TstMul:  Mul=     3
 TstMul:  ICh=     0
 TstMul:  Mul=     3
 Structure from the checkpoint file:  "MN_91_RKT17_BH76_B3LYP_631Gs.chk"
 Charge =  0 Multiplicity = 3

                         Standard orientation:
 ---------------------------------------------------------------------
 Center     Atomic      Atomic             Coordinates (Angstroms)
 Number     Number       Type             X           Y           Z
 ---------------------------------------------------------------------
      1         17           0        0.019570   -0.833952    0.000000
      2          1           0       -0.489260    0.491247    0.000000
      3          8           0        0.019570    1.710742    0.000000
 ---------------------------------------------------------------------

 SCF Done:  E(UB3LYP) =  -535.850223723     A.U. after    1 cycles

 The electronic state is 3-A".
 Alpha  occ. eigenvalues -- -101.54241 -19.31411  -9.47625  -7.24059  -7.23013
 Alpha  occ. eigenvalues --   -7.22928  -1.05724  -0.84530  -0.54488  -0.48002
 Alpha  occ. eigenvalues --   -0.43403  -0.37551  -0.34174  -0.33980
 Alpha virt. eigenvalues --    0.06943   0.37779   0.42699   0.42896   0.44010
 Alpha virt. eigenvalues --    0.60663   0.75624   0.79838   0.84215   0.84297
 Alpha virt. eigenvalues --    0.85225   0.85415   0.91024   1.04498   1.23332

  Beta  occ. eigenvalues -- -101.53966 -19.26979  -9.47369  -7.23374  -7.22750
  Beta  occ. eigenvalues --   -7.22706  -0.93370  -0.81962  -0.49104  -0.35116
  Beta  occ. eigenvalues --   -0.33483  -0.33423
  Beta virt. eigenvalues --   -0.21547  -0.20662   0.08585   0.38403   0.43289
  Beta virt. eigenvalues --    0.43346   0.45757   0.63132   0.82145   0.82408
  Beta virt. eigenvalues --    0.85738   0.85853   0.87684   0.90218   0.96501

 Mulliken charges and spin densities:
               1          2
     1  Cl  -0.219303   0.326022
     2  H    0.325468  -0.045204
     3  O   -0.106165   1.719182
 Sum of Mulliken charges =  -0.00000   2.00000

 Dipole moment (field-independent basis, Debye):
    X=             -0.7088    Y=              1.0040    Z=              0.0000  Tot=              1.2290
 Quadrupole moment (field-independent basis, Debye-Ang):
   XX=            -18.8377   YY=            -18.2964   ZZ=            -18.4535
   XY=             -0.7217   XZ=              0.0000   YZ=              0.0000

  Exact polarizability:   9.410  -1.068  48.489   0.000  -0.000   8.410
 Approx polarizability:  11.792  -1.443  87.469   0.000   0.000  10.391

 ******    1 imaginary frequencies (negative Signs) ******

                      1                      2                      3
                     A'                     A'                     A'
 Frequencies --  -1138.0720               307.6335              1387.5727
 Red. masses --      1.1093                 5.2333                 1.1108
 Frc consts  --      0.8465                 0.2918                 1.2601
 IR Inten    --     36.0081                15.6668                49.9773

 - Thermochemistry -
 -------------------
 Temperature   298.150 Kelvin.  Pressure   1.00000 Atm.
 Atom     1 has atomic number 17 and mass  34.96885

 Molecular mass:    51.97159 amu.
 Principal axes and moments of inertia in atomic units:
                           1         2         3
     Eigenvalues --     0.91022 254.76975 255.67998
           X           -0.00372   0.99999   0.00000
           Y            0.99999   0.00372   0.00000
           Z            0.00000   0.00000   1.00000
 This molecule is an asymmetric top.
 Rotational symmetry number  1.
 Rotational temperatures (Kelvin)     95.15692     0.33997     0.33876
 Rotational constants (GHZ):        1982.74831     7.08381     7.05859
    1 imaginary frequencies ignored.
 Zero-point vibrational energy      10139.6 (Joules/Mol)
                                    2.42342 (Kcal/Mol)
 Warning -- explicit consideration of   1 degrees of freedom as
           vibrations may cause significant error
 Vibrational temperatures:    442.62  1996.41
          (Kelvin)

 Zero-point correction=                           0.003862 (Hartree/Particle)
 Thermal correction to Energy=                    0.007113
 Thermal correction to Enthalpy=                  0.008057
 Thermal correction to Gibbs Free Energy=        -0.020483
 Sum of electronic and zero-point Energies=           -535.846362
 Sum of electronic and thermal Energies=              -535.843111
 Sum of electronic and thermal Enthalpies=            -535.842167
 Sum of electronic and thermal Free Energies=         -535.870706

                     E (Thermal)             CV                S
                      KCal/Mol        Cal/Mol-Kelvin    Cal/Mol-Kelvin
 Total                    4.463              7.731             60.067
 Electronic               0.000              0.000              2.183
 Translational            0.889              2.981             37.767
 Rotational               0.889              2.981             18.723
 Vibrational              2.686              1.770              1.394
 Vibration     1          0.697              1.659              1.375

 Optimization completed.
    -- Stationary point found.
 Normal termination of Gaussian 16 at Tue Oct  6 20:48:37 2020.
