 Gaussian 16, Revision A.03,

 ----------------------------------------------------------------------
 #P Opt(TS,MaxCyc=50,NoEigenTest,MaxStep=10,CalcFC) B3LYP/6-31G* 5D 7F
 Integral=UltraFineGrid SCF=(NoSymm,XQC,MaxCyc=120) IOp(1/33=1) Empiric
 alDispersion=GD3BJ
 ----------------------------------------------------------------------

 TstMul:  Mul=     2
 TstMul:  ICh=     0
 TstMul:  Mul=     2
 Symbolic Z-matrix:
 Charge =  0 Multiplicity = 2

 SCF Done:  E(UB3LYP) =  -135.693445231     A.U. after   14 cycles
 SCF Done:  E(UB3LYP) =  -135.693795200     A.U. after   14 cycles
 SCF Done:  E(UB3LYP) =  -135.693792226     A.U. after   14 cycles
 SCF Done:  E(UB3LYP) =  -135.693803557     A.U. after   12 cycles
 SCF Done:  E(UB3LYP) =  -135.693804299     A.U. after   12 cycles
 SCF Done:  E(UB3LYP) =  -135.693804529     A.U. after   10 cycles
 SCF Done:  E(UB3LYP) =  -135.693804563     A.U. after   10 cycles
 SCF Done:  E(UB3LYP) =  -135.693804575     A.U. after    9 cycles
 Optimization completed.
    -- Stationary point found.
 Normal termination of Gaussian 16 at Tue Oct  6 20:50:11 2020.
 Gaussian 16:  ES64L-G16RevA.03 25-Dec-2016

 ----------------------------------------------------------------------
 #P Freq B3LYP/6-31G* 5D 7F Integral=UltraFineGrid SCF=(NoSymm,XQC,MaxC
 yc=120) IOp(1/33=1) EmpiricalDispersion=GD3BJ Geom=Check Guess=Read
 ----------------------------------------------------------------------

 TstMul:  Mul=     2
 TstMul:  ICh=     0
 TstMul:  Mul=     2
 Structure from the checkpoint file:  "MN_94_RKT20_BH76_B3LYP_631Gs.chk"
 Charge =  0 Multiplicity = 2

                         Standard orientation:
 ---------------------------------------------------------------------
 Center     Atomic      Atomic             Coordinates (Angstroms)
 Number     Number       Type             X           Y           Z
 ---------------------------------------------------------------------
      1          6           0       -1.518144   -0.429930    0.000070
      2          6           0       -0.495505    0.684652   -0.000116
      3          7           0        1.889606   -0.342948    0.000227
      4          1           0       -1.412655   -1.067225   -0.884761
      5          1           0       -1.412750   -1.066828    0.885198
      6          1           0       -2.543114   -0.030360   -0.000079
      7          1           0       -0.492252    1.303604   -0.901390
      8          1           0       -0.492390    1.304025    0.900871
      9          1           0        0.676593    0.078529    0.000210
     10          1           0        2.265227    0.174143   -0.806689
     11          1           0        2.265991    0.176419    0.805323
 ---------------------------------------------------------------------

 SCF Done:  E(UB3LYP) =  -135.693804575     A.U. after    1 cycles

 The electronic state is 2-A.
 Alpha  occ. eigenvalues --  -14.31931 -10.18172 -10.17038  -0.84362  -0.75474
 Alpha  occ. eigenvalues --   -0.61542  -0.45633  -0.45463  -0.44009  -0.38909
 Alpha  occ. eigenvalues --   -0.37437  -0.35091  -0.28763  -0.21080
 Alpha virt. eigenvalues --    0.08315   0.12069   0.14805   0.15147   0.16797
 Alpha virt. eigenvalues --    0.17424   0.19543   0.24054   0.30204   0.49764
 Alpha virt. eigenvalues --    0.52308   0.55139   0.59901   0.60636   0.66350

  Beta  occ. eigenvalues --  -14.30709 -10.17285 -10.17059  -0.81297  -0.74332
  Beta  occ. eigenvalues --   -0.60245  -0.44746  -0.43516  -0.43192  -0.37414
  Beta  occ. eigenvalues --   -0.36647  -0.34822  -0.26147
  Beta virt. eigenvalues --   -0.08067   0.08916   0.12412   0.15159   0.15706
  Beta virt. eigenvalues --    0.17035   0.17696   0.20000   0.24681   0.32163
  Beta virt. eigenvalues --    0.50369   0.52486   0.55651   0.60761   0.63134

 Mulliken charges and spin densities:
               1          2
     1  C   -0.424745  -0.023552
     2  C   -0.437399   0.537288
     3  N   -0.760138   0.591971
     4  H    0.157131   0.004594
     5  H    0.157153   0.004594
     6  H    0.151186   0.030805
     7  H    0.152194  -0.015825
     8  H    0.152208  -0.015819
     9  H    0.269868  -0.080919
    10  H    0.291269  -0.016568
    11  H    0.291271  -0.016568
 Sum of Mulliken charges =  -0.00000   1.00000

 Dipole moment (field-independent basis, Debye):
    X=             -0.2419    Y=              1.7478    Z=             -0.0025  Tot=              1.7644
 Quadrupole moment (field-independent basis, Debye-Ang):
   XX=            -20.5620   YY=            -23.3088   ZZ=            -20.0716
   XY=              3.6683   XZ=             -0.0052   YZ=              0.0036

  Exact polarizability:  57.508  -4.853  30.809   0.001   0.004  30.957
 Approx polarizability:  67.288  -9.070  40.025   0.003   0.005  40.852

 ******    1 imaginary frequencies (negative Signs) ******

                      1                      2                      3
                      A                      A                      A
 Frequencies --  -1714.8245                17.3789               146.1115
 Red. masses --      1.0782                 1.0829                 2.6905
 Frc consts  --      1.8680                 0.0002                 0.0338
 IR Inten    --    606.0941                50.8478                 5.6021

                      4                      5                      6
                      A                      A                      A
 Frequencies --    169.4590               433.2775               469.0583
 Red. masses --      1.0838                 1.0187                 2.4642
 Frc consts  --      0.0183                 0.1127                 0.3194
 IR Inten    --      0.4244                 1.9785                 0.7900

                      7                      8                      9
                      A                      A                      A
 Frequencies --    772.0434               778.4954               898.1951
 Red. masses --      1.1145                 1.3458                 1.0538
 Frc consts  --      0.3914                 0.4805                 0.5009
 IR Inten    --      5.9689                59.1680                 0.3789

                     10                     11                     12
                      A                      A                      A
 Frequencies --    947.4810              1056.6093              1209.9438
 Red. masses --      1.2347                 2.9578                 1.4084
 Frc consts  --      0.6531                 1.9456                 1.2148
 IR Inten    --     84.8504                 7.5977                12.3366

                     13                     14                     15
                      A                      A                      A
 Frequencies --   1245.7342              1375.2549              1433.8713
 Red. masses --      1.3887                 1.0868                 1.1984
 Frc consts  --      1.2697                 1.2111                 1.4517
 IR Inten    --      0.4047               110.0824                 0.1577

                     16                     17                     18
                      A                      A                      A
 Frequencies --   1494.4172              1517.7557              1522.7115
 Red. masses --      1.1359                 1.0353                 1.0496
 Frc consts  --      1.4946                 1.4051                 1.4338
 IR Inten    --      1.4016                 3.2408                 4.0059

                     19                     20                     21
                      A                      A                      A
 Frequencies --   1547.5443              1630.5476              3024.5585
 Red. masses --      1.0428                 1.0688                 1.0461
 Frc consts  --      1.4714                 1.6742                 5.6381
 IR Inten    --     10.9558                18.7324                27.1959

                     22                     23                     24
                      A                      A                      A
 Frequencies --   3085.1673              3095.2697              3118.3832
 Red. masses --      1.0668                 1.0754                 1.1030
 Frc consts  --      5.9825                 6.0706                 6.3196
 IR Inten    --      2.3359                42.2251                11.3848

                     25                     26                     27
                      A                      A                      A
 Frequencies --   3161.1803              3360.7591              3463.3100
 Red. masses --      1.1097                 1.0497                 1.0890
 Frc consts  --      6.5336                 6.9854                 7.6956
 IR Inten    --     40.0707                 8.2759                 5.0919

 - Thermochemistry -
 -------------------
 Temperature   298.150 Kelvin.  Pressure   1.00000 Atm.
 Atom     1 has atomic number  6 and mass  12.00000

 Molecular mass:    46.06567 amu.
 Principal axes and moments of inertia in atomic units:
                           1         2         3
     Eigenvalues --    70.38792 382.15689 420.22757
           X            0.99955   0.02997  -0.00002
           Y           -0.02997   0.99955   0.00010
           Z            0.00003  -0.00010   1.00000
 This molecule is an asymmetric top.
 Rotational symmetry number  1.
 Rotational temperatures (Kelvin)      1.23052     0.22664     0.20611
 Rotational constants (GHZ):          25.63993     4.72251     4.29468
    1 imaginary frequencies ignored.
 Zero-point vibrational energy     245082.0 (Joules/Mol)
                                   58.57601 (Kcal/Mol)
 Warning -- explicit consideration of   5 degrees of freedom as
           vibrations may cause significant error
 Vibrational temperatures:     25.00   210.22   243.81   623.39   674.87
          (Kelvin)           1110.80  1120.08  1292.30  1363.21  1520.23
                             1740.84  1792.33  1978.69  2063.02  2150.13
                             2183.71  2190.84  2226.57  2345.99  4351.67
                             4438.87  4453.40  4486.66  4548.23  4835.38
                             4982.93

 Zero-point correction=                           0.093347 (Hartree/Particle)
 Thermal correction to Energy=                    0.099238
 Thermal correction to Enthalpy=                  0.100182
 Thermal correction to Gibbs Free Energy=         0.063437
 Sum of electronic and zero-point Energies=           -135.600458
 Sum of electronic and thermal Energies=              -135.594567
 Sum of electronic and thermal Enthalpies=            -135.593623
 Sum of electronic and thermal Free Energies=         -135.630368

                     E (Thermal)             CV                S
                      KCal/Mol        Cal/Mol-Kelvin    Cal/Mol-Kelvin
 Total                   62.273             18.008             77.337
 Electronic               0.000              0.000              1.377
 Translational            0.889              2.981             37.408
 Rotational               0.889              2.981             23.940
 Vibrational             60.495             12.046             14.612
 Vibration     1          0.593              1.986              6.913
 Vibration     2          0.617              1.907              2.722
 Vibration     3          0.625              1.880              2.441
 Vibration     4          0.794              1.398              0.848
 Vibration     5          0.826              1.319              0.740

 Optimization completed on the basis of negligible forces.
    -- Stationary point found.
 Normal termination of Gaussian 16 at Tue Oct  6 20:50:56 2020.
