 Gaussian 16, Revision A.03,

 ----------------------------------------------------------------------
 #P Opt(TS,MaxCyc=50,NoEigenTest,MaxStep=10,CalcFC) B3LYP/6-31G* 5D 7F
 Integral=UltraFineGrid SCF=(NoSymm,XQC,MaxCyc=120) IOp(1/33=1) Empiric
 alDispersion=GD3BJ
 ----------------------------------------------------------------------

 TstMul:  Mul=     1
 TstMul:  ICh=     0
 TstMul:  Mul=     1
 Symbolic Z-matrix:
 Charge =  0 Multiplicity = 1

 SCF Done:  E(RB3LYP) =  -195.261374128     A.U. after   13 cycles
 SCF Done:  E(RB3LYP) =  -195.261835488     A.U. after   11 cycles
 SCF Done:  E(RB3LYP) =  -195.261836522     A.U. after    7 cycles
 Optimization completed.
    -- Stationary point found.
 Normal termination of Gaussian 16 at Tue Oct  6 20:49:35 2020.
 Gaussian 16:  ES64L-G16RevA.03 25-Dec-2016

 ----------------------------------------------------------------------
 #P Freq B3LYP/6-31G* 5D 7F Integral=UltraFineGrid SCF=(NoSymm,XQC,MaxC
 yc=120) IOp(1/33=1) EmpiricalDispersion=GD3BJ Geom=Check Guess=Read
 ----------------------------------------------------------------------

 TstMul:  Mul=     1
 TstMul:  ICh=     0
 TstMul:  Mul=     1
 Structure from the checkpoint file:  "MN_96_RKT22_BH76_B3LYP_631Gs.chk"
 Charge =  0 Multiplicity = 1

                         Standard orientation:
 ---------------------------------------------------------------------
 Center     Atomic      Atomic             Coordinates (Angstroms)
 Number     Number       Type             X           Y           Z
 ---------------------------------------------------------------------
      1          6           0       -1.314528   -0.906023   -0.021805
      2          6           0       -1.211940    0.507708   -0.012146
      3          6           0       -0.000000    1.183156    0.150864
      4          6           0        1.211940    0.507708   -0.012145
      5          6           0        1.314528   -0.906023   -0.021803
      6          1           0        2.190262   -1.327383   -0.518927
      7          1           0        1.063638   -1.458402    0.883056
      8          1           0        2.045548    1.095387   -0.395974
      9          1           0       -0.000000    2.268590    0.088883
     10          1           0       -2.045548    1.095387   -0.395975
     11          1           0       -2.190261   -1.327383   -0.518929
     12          1           0        0.000000   -1.206946   -0.522983
     13          1           0       -1.063639   -1.458402    0.883055
 ---------------------------------------------------------------------

 SCF Done:  E(RB3LYP) =  -195.261836522     A.U. after    1 cycles

 The electronic state is 1-A.
 Alpha  occ. eigenvalues --  -10.18580 -10.18579 -10.17756 -10.17596 -10.17596
 Alpha  occ. eigenvalues --   -0.82009  -0.73583  -0.68745  -0.58686  -0.52670
 Alpha  occ. eigenvalues --   -0.49217  -0.42256  -0.41120  -0.40679  -0.38267
 Alpha  occ. eigenvalues --   -0.36155  -0.34846  -0.25574  -0.21858
 Alpha virt. eigenvalues --   -0.02114   0.03225   0.09714   0.12696   0.14374
 Alpha virt. eigenvalues --    0.17404   0.18632   0.18963   0.21802   0.23576
 Alpha virt. eigenvalues --    0.28119   0.29847   0.35395   0.42012   0.51057

 Mulliken charges:
               1
     1  C   -0.471779
     2  C   -0.068503
     3  C   -0.128917
     4  C   -0.068503
     5  C   -0.471779
     6  H    0.140484
     7  H    0.178990
     8  H    0.136881
     9  H    0.122452
    10  H    0.136881
    11  H    0.140484
    12  H    0.174318
    13  H    0.178990
 Sum of Mulliken charges =  -0.00000

 Dipole moment (field-independent basis, Debye):
    X=              0.0000    Y=              0.0407    Z=             -0.1109  Tot=              0.1181
 Quadrupole moment (field-independent basis, Debye-Ang):
   XX=            -30.2163   YY=            -29.9898   ZZ=            -33.5496
   XY=              0.0000   XZ=              0.0000   YZ=             -1.3512

  Exact polarizability:  73.734   0.000  62.622   0.000  -0.561  29.326
 Approx polarizability: 123.773  -0.000 104.323   0.000   3.450  42.884

 ******    1 imaginary frequencies (negative Signs) ******

                      1                      2                      3
                      A                      A                      A
 Frequencies --  -1579.1058               276.5192               463.5129
 Red. masses --      1.1868                 2.1187                 2.7063
 Frc consts  --      1.7436                 0.0954                 0.3426
 IR Inten    --     12.9705                 0.2082                 0.7011

                      4                      5                      6
                      A                      A                      A
 Frequencies --    503.4308               558.4939               617.2203
 Red. masses --      2.1350                 3.5487                 1.3149
 Frc consts  --      0.3188                 0.6522                 0.2951
 IR Inten    --      4.1074                 3.2464                25.1304

                      7                      8                      9
                      A                      A                      A
 Frequencies --    745.6947               803.3311               817.1820
 Red. masses --      1.9353                 1.2451                 1.2907
 Frc consts  --      0.6340                 0.4734                 0.5078
 IR Inten    --      7.0972                 3.5122                45.2295

                     10                     11                     12
                      A                      A                      A
 Frequencies --    979.1545               988.9484              1013.3975
 Red. masses --      1.3761                 1.3029                 1.6990
 Frc consts  --      0.7773                 0.7508                 1.0280
 IR Inten    --      9.8097                 0.9681                 8.1450

                     13                     14                     15
                      A                      A                      A
 Frequencies --   1018.1004              1022.2750              1110.6622
 Red. masses --      1.8399                 1.3644                 1.2999
 Frc consts  --      1.1236                 0.8401                 0.9448
 IR Inten    --     11.8112                 0.2909                 2.2242

                     16                     17                     18
                      A                      A                      A
 Frequencies --   1144.9447              1194.5661              1268.2175
 Red. masses --      1.5849                 1.2158                 1.5049
 Frc consts  --      1.2241                 1.0222                 1.4261
 IR Inten    --      1.6406                 6.2426                 7.0317

                     19                     20                     21
                      A                      A                      A
 Frequencies --   1284.5281              1421.0240              1453.8678
 Red. masses --      1.2346                 1.0913                 1.3786
 Frc consts  --      1.2002                 1.2984                 1.7169
 IR Inten    --     11.4662                 9.3282                 1.9212

                     22                     23                     24
                      A                      A                      A
 Frequencies --   1469.2900              1541.3442              1554.9008
 Red. masses --      1.0743                 1.4750                 1.4580
 Frc consts  --      1.3665                 2.0646                 2.0768
 IR Inten    --      4.1426                 0.1027                 0.9511

                     25                     26                     27
                      A                      A                      A
 Frequencies --   1566.3652              1610.9227              3110.9484
 Red. masses --      4.0662                 1.8070                 1.0571
 Frc consts  --      5.8779                 2.7629                 6.0278
 IR Inten    --      9.5413                 4.3222                27.1035

                     28                     29                     30
                      A                      A                      A
 Frequencies --   3111.1115              3150.6947              3154.1454
 Red. masses --      1.0569                 1.0881                 1.0934
 Frc consts  --      6.0273                 6.3642                 6.4088
 IR Inten    --     13.9369                 0.6608                 6.9115

                     31                     32                     33
                      A                      A                      A
 Frequencies --   3171.1230              3176.2127              3192.0491
 Red. masses --      1.1097                 1.1074                 1.0941
 Frc consts  --      6.5750                 6.5823                 6.5682
 IR Inten    --     33.1015                16.2033                28.1010

 - Thermochemistry -
 -------------------
 Temperature   298.150 Kelvin.  Pressure   1.00000 Atm.
 Atom     1 has atomic number  6 and mass  12.00000

 Molecular mass:    68.06260 amu.
 Principal axes and moments of inertia in atomic units:
                           1         2         3
     Eigenvalues --   223.25849 357.39050 559.41644
           X            1.00000  -0.00000  -0.00000
           Y            0.00000   0.99977  -0.02138
           Z            0.00000   0.02138   0.99977
 This molecule is an asymmetric top.
 Rotational symmetry number  1.
 Rotational temperatures (Kelvin)      0.38795     0.24235     0.15483
 Rotational constants (GHZ):           8.08364     5.04977     3.22611
    1 imaginary frequencies ignored.
 Zero-point vibrational energy     290059.6 (Joules/Mol)
                                   69.32591 (Kcal/Mol)
 Warning -- explicit consideration of   5 degrees of freedom as
           vibrations may cause significant error
 Vibrational temperatures:    397.85   666.89   724.32   803.55   888.04
          (Kelvin)           1072.89  1155.81  1175.74  1408.78  1422.88
                             1458.05  1464.82  1470.83  1598.00  1647.32
                             1718.71  1824.68  1848.15  2044.54  2091.79
                             2113.98  2217.65  2237.16  2253.65  2317.76
                             4475.96  4476.20  4533.15  4538.11  4562.54
                             4569.86  4592.65

 Zero-point correction=                           0.110478 (Hartree/Particle)
 Thermal correction to Energy=                    0.115118
 Thermal correction to Enthalpy=                  0.116062
 Thermal correction to Gibbs Free Energy=         0.083186
 Sum of electronic and zero-point Energies=           -195.151359
 Sum of electronic and thermal Energies=              -195.146719
 Sum of electronic and thermal Enthalpies=            -195.145775
 Sum of electronic and thermal Free Energies=         -195.178650

                     E (Thermal)             CV                S
                      KCal/Mol        Cal/Mol-Kelvin    Cal/Mol-Kelvin
 Total                   72.238             17.795             69.193
 Electronic               0.000              0.000              0.000
 Translational            0.889              2.981             38.571
 Rotational               0.889              2.981             25.304
 Vibrational             70.460             11.834              5.318
 Vibration     1          0.678              1.717              1.555
 Vibration     2          0.821              1.331              0.756
 Vibration     3          0.859              1.242              0.650
 Vibration     4          0.914              1.121              0.527
 Vibration     5          0.977              0.995              0.421

 Optimization completed.
    -- Stationary point found.
 Normal termination of Gaussian 16 at Tue Oct  6 20:50:34 2020.
