 Gaussian 16, Revision A.03,

 ----------------------------------------------------------------------
 #P Opt(TS,MaxCyc=50,NoEigenTest,MaxStep=10,CalcFC) B3LYP/6-31G* 5D 7F
 Integral=UltraFineGrid SCF=(NoSymm,XQC,MaxCyc=120) IOp(1/33=1) Empiric
 alDispersion=GD3BJ
 ----------------------------------------------------------------------

 TstMul:  Mul=     3
 TstMul:  ICh=     0
 TstMul:  Mul=     3
 Symbolic Z-matrix:
 Charge =  0 Multiplicity = 3

 SCF Done:  E(UB3LYP) =  -135.027902404     A.U. after   15 cycles
 SCF Done:  E(UB3LYP) =  -135.028734459     A.U. after   14 cycles
 SCF Done:  E(UB3LYP) =  -135.029074190     A.U. after   13 cycles
 SCF Done:  E(UB3LYP) =  -135.029048795     A.U. after   16 cycles
 SCF Done:  E(UB3LYP) =  -135.029086304     A.U. after   16 cycles
 SCF Done:  E(UB3LYP) =  -135.029087926     A.U. after   13 cycles
 SCF Done:  E(UB3LYP) =  -135.029089720     A.U. after   14 cycles
 SCF Done:  E(UB3LYP) =  -135.029089733     A.U. after    9 cycles
 Optimization completed.
    -- Stationary point found.
 Normal termination of Gaussian 16 at Tue Oct  6 20:51:04 2020.
 Gaussian 16:  ES64L-G16RevA.03 25-Dec-2016

 ----------------------------------------------------------------------
 #P Freq B3LYP/6-31G* 5D 7F Integral=UltraFineGrid SCF=(NoSymm,XQC,MaxC
 yc=120) IOp(1/33=1) EmpiricalDispersion=GD3BJ Geom=Check Guess=Read
 ----------------------------------------------------------------------

 TstMul:  Mul=     3
 TstMul:  ICh=     0
 TstMul:  Mul=     3
 Structure from the checkpoint file:  "MN_93_RKT19_BH76_B3LYP_631Gs.chk"
 Charge =  0 Multiplicity = 3

                         Standard orientation:
 ---------------------------------------------------------------------
 Center     Atomic      Atomic             Coordinates (Angstroms)
 Number     Number       Type             X           Y           Z
 ---------------------------------------------------------------------
      1          6           0       -1.425388   -0.436073   -0.000060
      2          6           0       -0.436107    0.702116    0.000065
      3          7           0        1.961546   -0.372489    0.000107
      4          1           0       -1.306898   -1.069463   -0.886082
      5          1           0       -1.307087   -1.069491    0.885967
      6          1           0       -2.460723   -0.062025   -0.000168
      7          1           0       -0.411049    1.311002   -0.906515
      8          1           0       -0.411159    1.310904    0.906713
      9          1           0        0.828521    0.075972    0.000170
     10          1           0        2.506540    0.514268   -0.000864
 ---------------------------------------------------------------------

 SCF Done:  E(UB3LYP) =  -135.029089733     A.U. after    1 cycles

 The electronic state is 3-A.
 Alpha  occ. eigenvalues --  -14.35870 -10.19045 -10.17597  -0.83609  -0.75917
 Alpha  occ. eigenvalues --   -0.61896  -0.46583  -0.45055  -0.40302  -0.38516
 Alpha  occ. eigenvalues --   -0.35813  -0.34246  -0.30477  -0.21505
 Alpha virt. eigenvalues --    0.09393   0.11860   0.14409   0.15012   0.16855
 Alpha virt. eigenvalues --    0.19119   0.23898   0.28494   0.48741   0.52184
 Alpha virt. eigenvalues --    0.54577   0.58589   0.60646   0.66151   0.70704

  Beta  occ. eigenvalues --  -14.32984 -10.18024 -10.17630  -0.76709  -0.73642
  Beta  occ. eigenvalues --   -0.60288  -0.44564  -0.43710  -0.38663  -0.37869
  Beta  occ. eigenvalues --   -0.35473  -0.29145
  Beta virt. eigenvalues --   -0.08493  -0.07726   0.10182   0.12716   0.15170
  Beta virt. eigenvalues --    0.15275   0.17149   0.19625   0.24617   0.31411
  Beta virt. eigenvalues --    0.49319   0.53061   0.55125   0.62221   0.63627

 Mulliken charges and spin densities:
               1          2
     1  C   -0.429143  -0.033366
     2  C   -0.421229   0.649014
     3  N   -0.507597   1.522195
     4  H    0.160325   0.006241
     5  H    0.160332   0.006238
     6  H    0.156231   0.036534
     7  H    0.159414  -0.019562
     8  H    0.159427  -0.019557
     9  H    0.278464  -0.101040
    10  H    0.283776  -0.046697
 Sum of Mulliken charges =  -0.00000   2.00000

 Dipole moment (field-independent basis, Debye):
    X=             -0.8421    Y=              1.6508    Z=             -0.0013  Tot=              1.8532
 Quadrupole moment (field-independent basis, Debye-Ang):
   XX=            -21.3904   YY=            -21.8024   ZZ=            -20.5804
   XY=              3.8643   XZ=             -0.0034   YZ=              0.0002

  Exact polarizability:  54.213  -3.563  31.797  -0.003  -0.003  25.626
 Approx polarizability:  65.136  -7.893  41.766  -0.003  -0.005  32.891

 ******    1 imaginary frequencies (negative Signs) ******

                      1                      2                      3
                      A                      A                      A
 Frequencies --  -1588.3502                56.4267               137.4359
 Red. masses --      1.0948                 1.0811                 2.8186
 Frc consts  --      1.6273                 0.0020                 0.0314
 IR Inten    --    486.7407                71.7138                 5.0419

                      4                      5                      6
                      A                      A                      A
 Frequencies --    163.8323               464.2784               475.7940
 Red. masses --      1.1028                 1.0675                 2.2196
 Frc consts  --      0.0174                 0.1356                 0.2960
 IR Inten    --      1.3778                 3.8519                 5.5823

                      7                      8                      9
                      A                      A                      A
 Frequencies --    721.3599               837.9491               929.5799
 Red. masses --      1.3763                 1.0488                 1.1644
 Frc consts  --      0.4219                 0.4339                 0.5928
 IR Inten    --     14.9880                 7.6323                35.0660

                     10                     11                     12
                      A                      A                      A
 Frequencies --   1061.6106              1187.0979              1193.5565
 Red. masses --      3.0552                 1.1410                 1.4736
 Frc consts  --      2.0287                 0.9474                 1.2369
 IR Inten    --      1.4691                21.1399                 6.2389

                     13                     14                     15
                      A                      A                      A
 Frequencies --   1247.0394              1432.4651              1482.4357
 Red. masses --      1.2771                 1.2033                 1.0589
 Frc consts  --      1.1701                 1.4547                 1.3711
 IR Inten    --      6.8415                 4.7189                36.0215

                     16                     17                     18
                      A                      A                      A
 Frequencies --   1497.4061              1517.1476              1520.8117
 Red. masses --      1.1358                 1.0371                 1.0503
 Frc consts  --      1.5005                 1.4065                 1.4313
 IR Inten    --     28.4435                 5.4920                 7.4651

                     19                     20                     21
                      A                      A                      A
 Frequencies --   3018.0934              3086.5541              3098.7100
 Red. masses --      1.0489                 1.0802                 1.0579
 Frc consts  --      5.6290                 6.0631                 5.9849
 IR Inten    --     24.4584                 7.4678                31.4308

                     22                     23                     24
                      A                      A                      A
 Frequencies --   3119.8784              3175.0815              3295.5214
 Red. masses --      1.1031                 1.1117                 1.0729
 Frc consts  --      6.3261                 6.6030                 6.8652
 IR Inten    --     13.8301                33.9332                22.6065

 - Thermochemistry -
 -------------------
 Temperature   298.150 Kelvin.  Pressure   1.00000 Atm.
 Atom     1 has atomic number  6 and mass  12.00000

 Molecular mass:    45.05785 amu.
 Principal axes and moments of inertia in atomic units:
                           1         2         3
     Eigenvalues --    68.85518 359.49492 405.21583
           X            0.99925   0.03864  -0.00002
           Y           -0.03864   0.99925  -0.00002
           Z            0.00002   0.00002   1.00000
 This molecule is an asymmetric top.
 Rotational symmetry number  1.
 Rotational temperatures (Kelvin)      1.25791     0.24093     0.21375
 Rotational constants (GHZ):          26.21068     5.02021     4.45378
    1 imaginary frequencies ignored.
 Zero-point vibrational energy     207672.1 (Joules/Mol)
                                   49.63483 (Kcal/Mol)
 Warning -- explicit consideration of   5 degrees of freedom as
           vibrations may cause significant error
 Vibrational temperatures:     81.19   197.74   235.72   667.99   684.56
          (Kelvin)           1037.88  1205.62  1337.46  1527.42  1707.97
                             1717.26  1794.21  2061.00  2132.89  2154.43
                             2182.84  2188.11  4342.36  4440.86  4458.35
                             4488.81  4568.23  4741.52

 Zero-point correction=                           0.079098 (Hartree/Particle)
 Thermal correction to Energy=                    0.084856
 Thermal correction to Enthalpy=                  0.085800
 Thermal correction to Gibbs Free Energy=         0.049888
 Sum of electronic and zero-point Energies=           -134.949992
 Sum of electronic and thermal Energies=              -134.944234
 Sum of electronic and thermal Enthalpies=            -134.943289
 Sum of electronic and thermal Free Energies=         -134.979201

                     E (Thermal)             CV                S
                      KCal/Mol        Cal/Mol-Kelvin    Cal/Mol-Kelvin
 Total                   53.248             17.516             75.583
 Electronic               0.000              0.000              2.183
 Translational            0.889              2.981             37.342
 Rotational               0.889              2.981             23.821
 Vibrational             51.471             11.555             12.237
 Vibration     1          0.596              1.975              4.578
 Vibration     2          0.614              1.916              2.839
 Vibration     3          0.623              1.887              2.505
 Vibration     4          0.822              1.329              0.754
 Vibration     5          0.832              1.304              0.721

 Optimization completed.
    -- Stationary point found.
 Normal termination of Gaussian 16 at Tue Oct  6 20:51:51 2020.
