 Q-Chem 5.3 (devel), Q-Chem, Inc., Pleasanton, CA (2020)
 Q-Chem 5.3.0 for Intel X86 EM64T Linux

User input:
--------------------------------------------------------------
$Comment
Geometry optimizations for CLB18.
$End

$Rem
SYMMETRY              False
SYM_IGNORE            True
JOBTYPE               Opt
METHOD                HF-3c
BASIS                 MINIX
MAX_SCF_CYCLES        50
SCF_ALGORITHM         DIIS
SCF_PRINT             1
SCF_FINAL_PRINT       1
XC_GRID               000099000590
MEM_TOTAL             20000
MEM_STATIC            4000
BLAS3_DFT             True
New_DFT               True
$End

$Molecule
0 1
C -2.0556365013 -0.6122739082 0.0000070000
C -1.2310990303 0.6404473029 0.0000490000
C 0.1056338256 0.7342757142 0.0000260000
C 1.0575553640 -0.3744071644 -0.0000440000
C 2.3835834942 -0.1989362347 -0.0000360000
H -2.7050851086 -0.6415956175 0.8771323940
H -2.7051274427 -0.6415056573 -0.8770900598
H -1.4513320019 -1.5160821254 -0.0000550000
H -1.7936673231 1.5675869433 0.0001030001
H 0.5457563328 1.7256415926 0.0000640003
H 0.6652604223 -1.3832427702 -0.0001049999
H 3.0646927739 -1.0377218022 -0.0000880001
H 2.8192762589 0.7922841200 0.0000230000
$End

--------------------------------------------------------------

   12    -192.6907320810      5.76e-09  Convergence criterion met
 Total energy in the final basis set =     -192.6907320810
   10    -192.6924768879      5.39e-09  Convergence criterion met
 Total energy in the final basis set =     -192.6924768879
    9    -192.6926129169      5.46e-09  Convergence criterion met
 Total energy in the final basis set =     -192.6926129169
    8    -192.6926136298      7.52e-09  Convergence criterion met
 Total energy in the final basis set =     -192.6926136298

             Standard Nuclear Orientation (Angstroms)
    I     Atom           X                Y                Z
 ----------------------------------------------------------------
    1      C      -2.0429342099    -0.6213116953     0.0002420676
    2      C      -1.2217058546     0.6621148691    -0.0006637195
    3      C       0.0953245489     0.7557990924    -0.0010721593
    4      C       1.0535964911    -0.3807443210    -0.0006968432
    5      C       2.3618687988    -0.2099822405     0.0009594461
    6      H      -2.6823536140    -0.6569589449     0.8790713110
    7      H      -2.6874488124    -0.6549308193    -0.8749125073
    8      H      -1.4152873159    -1.5022631105    -0.0026641857
    9      H      -1.8057337999     1.5730439791    -0.0006893462
   10      H       0.5534625637     1.7341703807    -0.0013640732
   11      H       0.6368445314    -1.3765801975    -0.0016698645
   12      H       3.0495279581    -1.0439234810     0.0013673689
   13      H       2.8046497785     0.7760368817     0.0020788398
 ----------------------------------------------------------------

    8    -192.6926143793      1.63e-09  Convergence criterion met
 Total energy in the final basis set =     -192.6926143793
 Final energy is   -192.69261437926841
 **  OPTIMIZATION CONVERGED  **

                    Orbital Energies (a.u.)
 --------------------------------------------------------------

 Alpha MOs
 -- Occupied --
-11.1703 -11.1665 -11.1622 -11.1577 -11.1495  -1.0993  -1.0292  -0.9348
 -0.8023  -0.7259  -0.6574  -0.6159  -0.5751  -0.5626  -0.5337  -0.5188
 -0.4613  -0.4471  -0.3254

          Ground-State Mulliken Net Atomic Charges

     Atom                 Charge (a.u.)
  ----------------------------------------
      1 C                    -0.379553
      2 C                    -0.126155
      3 C                    -0.149657
      4 C                    -0.144686
      5 C                    -0.259302
      6 H                     0.134938
      7 H                     0.134897
      8 H                     0.131292
      9 H                     0.131209
     10 H                     0.132303
     11 H                     0.133703
     12 H                     0.131315
     13 H                     0.129698
  ----------------------------------------
  Sum of atomic charges =     0.000000

                    Cartesian Multipole Moments
 -----------------------------------------------------------------
    Charge (ESU x 10^10)
                     0.00000000
    Dipole Moment (Debye)
         X          -0.37284453      Y          -0.08406308      Z           0.00089911
       Tot           0.38220473
    Quadrupole Moments (Debye-Ang)
        XX         -30.26597483     XY           0.12191963     YY         -30.78208601
        XZ           0.00117564     YZ           0.00090030     ZZ         -34.61776974

 Total job time:  2.14s(wall), 12.28s(cpu)
        *  Thank you very much for using Q-Chem.  Have a nice day.  *
