 Q-Chem 5.3 (devel), Q-Chem, Inc., Pleasanton, CA (2020)
 Q-Chem 5.3.0 for Intel X86 EM64T Linux

User input:
--------------------------------------------------------------
$Comment
Geometry optimizations for CLB18.
$End

$Rem
SYMMETRY              False
SYM_IGNORE            True
JOBTYPE               Opt
METHOD                HF-3c
BASIS                 MINIX
MAX_SCF_CYCLES        50
SCF_ALGORITHM         DIIS
SCF_PRINT             1
SCF_FINAL_PRINT       1
XC_GRID               000099000590
MEM_TOTAL             20000
MEM_STATIC            4000
BLAS3_DFT             True
New_DFT               True
$End

$Molecule
0 1
C 0.0000000000 0.0000000000 -0.1499169622
Cl 0.0000000000 0.0000000000 1.6328016844
H -0.5139977625 -0.8902702396 -0.4942949074
H -0.5139977625 0.8902702396 -0.4942949074
H 1.0279955250 0.0000000000 -0.4942949074
$End

--------------------------------------------------------------

   10    -496.6597433415      2.05e-09  Convergence criterion met
 Total energy in the final basis set =     -496.6597433415
    9    -496.6605234670      1.97e-09  Convergence criterion met
 Total energy in the final basis set =     -496.6605234670
    8    -496.6606588943      2.29e-09  Convergence criterion met
 Total energy in the final basis set =     -496.6606588943

             Standard Nuclear Orientation (Angstroms)
    I     Atom           X                Y                Z
 ----------------------------------------------------------------
    1      C       0.0000658751     0.0000685613    -0.1474072732
    2      Cl     -0.0000878679    -0.0000731618     1.6677958012
    3      H      -0.5156775453    -0.8931903796    -0.5066685504
    4      H      -0.5157547926     0.8932380455    -0.5068170184
    5      H       1.0314543307    -0.0000430653    -0.5069029592
 ----------------------------------------------------------------

    6    -496.6606601157      9.98e-09  Convergence criterion met
 Total energy in the final basis set =     -496.6606601157
 Final energy is   -496.66066011567307
 **  OPTIMIZATION CONVERGED  **

                    Orbital Energies (a.u.)
 --------------------------------------------------------------

 Alpha MOs
 -- Occupied --
******** -11.2374 -10.4775  -7.9111  -7.9068  -7.9068  -1.1141  -0.9194
 -0.6201  -0.6201  -0.5355  -0.4274  -0.4274

          Ground-State Mulliken Net Atomic Charges

     Atom                 Charge (a.u.)
  ----------------------------------------
      1 C                    -0.311831
      2 Cl                   -0.174629
      3 H                     0.162149
      4 H                     0.162155
      5 H                     0.162156
  ----------------------------------------
  Sum of atomic charges =     0.000000

                    Cartesian Multipole Moments
 -----------------------------------------------------------------
    Charge (ESU x 10^10)
                    -0.00000000
    Dipole Moment (Debye)
         X           0.00002272      Y           0.00000065      Z          -2.15175782
       Tot           2.15175783
    Quadrupole Moments (Debye-Ang)
        XX         -20.19077087     XY          -0.00020440     YY         -20.19101328
        XZ          -0.00019699     YZ          -0.00015671     ZZ         -22.36500082

 Total job time:  1.94s(wall), 7.49s(cpu)
        *  Thank you very much for using Q-Chem.  Have a nice day.  *
