 Q-Chem 5.3 (devel), Q-Chem, Inc., Pleasanton, CA (2020)
 Q-Chem 5.3.0 for Intel X86 EM64T Linux

User input:
--------------------------------------------------------------
$Comment
Geometry optimizations for CLB18.
$End

$Rem
SYMMETRY              False
SYM_IGNORE            True
JOBTYPE               Opt
METHOD                HF-3c
BASIS                 MINIX
MAX_SCF_CYCLES        50
SCF_ALGORITHM         DIIS
SCF_PRINT             1
SCF_FINAL_PRINT       1
XC_GRID               000099000590
MEM_TOTAL             20000
MEM_STATIC            4000
BLAS3_DFT             True
New_DFT               True
$End

$Molecule
0 1
C 0.0000000000 0.0000000000 0.6655938040
C 0.0000000000 0.0000000000 -0.6655938040
H 0.0000000000 0.9214933196 1.2316705417
H 0.0000000000 -0.9214933196 1.2316705417
H 0.0000000000 0.9214933196 -1.2316705417
H 0.0000000000 -0.9214933196 -1.2316705417
$End

--------------------------------------------------------------

    8     -77.5154332814      2.83e-09  Convergence criterion met
 Total energy in the final basis set =      -77.5154332814
    7     -77.5158106550      4.52e-09  Convergence criterion met
 Total energy in the final basis set =      -77.5158106550

             Standard Nuclear Orientation (Angstroms)
    I     Atom           X                Y                Z
 ----------------------------------------------------------------
    1      C       0.0000000000     0.0000530436     0.6573801011
    2      C       0.0000000000     0.0000040297    -0.6573338757
    3      H       0.0000000000     0.9169177064     1.2319905706
    4      H       0.0000000000    -0.9169229975     1.2318353738
    5      H       0.0000000000     0.9168637551    -1.2319652174
    6      H       0.0000000000    -0.9169155373    -1.2319069525
 ----------------------------------------------------------------

    6     -77.5158490999      5.37e-09  Convergence criterion met
 Total energy in the final basis set =      -77.5158490999
 Final energy is   -77.515849099939729
 **  OPTIMIZATION CONVERGED  **

                    Orbital Energies (a.u.)
 --------------------------------------------------------------

 Alpha MOs
 -- Occupied --
-11.1572 -11.1561  -1.0398  -0.7858  -0.6437  -0.5817  -0.4950  -0.3924

          Ground-State Mulliken Net Atomic Charges

     Atom                 Charge (a.u.)
  ----------------------------------------
      1 C                    -0.265715
      2 C                    -0.265701
      3 H                     0.132860
      4 H                     0.132853
      5 H                     0.132849
      6 H                     0.132853
  ----------------------------------------
  Sum of atomic charges =     0.000000

                    Cartesian Multipole Moments
 -----------------------------------------------------------------
    Charge (ESU x 10^10)
                     0.00000000
    Dipole Moment (Debye)
         X           0.00000000      Y          -0.00006667      Z          -0.00006669
       Tot           0.00009430
    Quadrupole Moments (Debye-Ang)
        XX         -14.96019331     XY           0.00000000     YY         -12.70234635
        XZ          -0.00000000     YZ           0.00020782     ZZ         -12.80397680

 Total job time:  0.53s(wall), 2.11s(cpu)
        *  Thank you very much for using Q-Chem.  Have a nice day.  *
