 Q-Chem 5.3 (devel), Q-Chem, Inc., Pleasanton, CA (2020)
 Q-Chem 5.3.1 for Intel X86 EM64T Linux

User input:
--------------------------------------------------------------
$Comment
Geometry optimizations for CLB18.
$End

$Rem
SYMMETRY              False
SYM_IGNORE            True
JOBTYPE               TS
METHOD                HF-3c
BASIS                 MINIX
GEOM_OPT_MAX_CYCLES   150
GEOM_OPT_DMAX         10
MAX_SCF_CYCLES        50
SCF_ALGORITHM         DIIS
SCF_PRINT             1
SCF_FINAL_PRINT       1
XC_GRID               000099000590
MEM_TOTAL             20000
MEM_STATIC            4000
BLAS3_DFT             True
New_DFT               True
$End

$Molecule
0 2
C -0.5678759402 0.0000510000 -0.2189581837
C 0.7511405919 -0.0000360000 0.0419320022
H -1.4938831414 -0.0004880003 1.5317669379
H -1.1016940352 0.9206519278 -0.4086264088
H -1.1020221250 -0.9202338778 -0.4091100767
H 1.2991300525 -0.9223452949 0.1737632748
H 1.2988972145 0.9223241278 0.1743628326
$End

--------------------------------------------------------------

   16     -77.9833433310      2.06e-09  Convergence criterion met
 Total energy in the final basis set =      -77.9833433310
    7     -77.9833422255      9.76e-09  Convergence criterion met
 Total energy in the final basis set =      -77.9833422255
    9     -77.9833395607      5.59e-09  Convergence criterion met
 Total energy in the final basis set =      -77.9833395607
    9     -77.9833357949      6.05e-09  Convergence criterion met
 Total energy in the final basis set =      -77.9833357949
    9     -77.9833312287      6.22e-09  Convergence criterion met
 Total energy in the final basis set =      -77.9833312287
    9     -77.9833261783      6.01e-09  Convergence criterion met
 Total energy in the final basis set =      -77.9833261783
    9     -77.9833210945      6.53e-09  Convergence criterion met
 Total energy in the final basis set =      -77.9833210945
    9     -77.9833167991      7.09e-09  Convergence criterion met
 **  OPTIMIZATION CONVERGED  **
 Total job time:  8.59s(wall), 19.08s(cpu)
        *  Thank you very much for using Q-Chem.  Have a nice day.  *

User input: 2 of 2

                  Welcome to Q-Chem
     A Quantum Leap Into The Future Of Chemistry

 Q-Chem 5.3 (devel), Q-Chem, Inc., Pleasanton, CA (2020)

 Yihan Shao,  Zhengting Gan,  E. Epifanovsky,  A. T. B. Gilbert,  M. Wormit,
 J. Kussmann,  A. W. Lange,  A. Behn,  Jia Deng,  Xintian Feng,  D. Ghosh,
 M. Goldey,  P. R. Horn,  L. D. Jacobson,  I. Kaliman,  T. Kus,  A. Landau,
 Jie Liu,  E. I. Proynov,  R. M. Richard,  R. P. Steele,  E. J. Sundstrom,
 H. L. Woodcock III,  P. M. Zimmerman,  D. Zuev,  B. Alam,  B. Albrecht,
 A. Aldossary,  E. Alguire,  S. A. Baeppler,  D. Barton,  Z. Benda,
 Y. A. Bernard,  E. J. Berquist,  K. B. Bravaya,  H. Burton,  K. Carter-Fenk,
 D. Casanova,  Chun-Min Chang,  Yunqing Chen,  A. Chien,  K. D. Closser,
 M. P. Coons,  S. Coriani,  S. Dasgupta,  A. L. Dempwolff,  M. Diedenhofen,
 Hainam Do,  R. G. Edgar,  Po-Tung Fang,  S. Faraji,  S. Fatehi,
 Qingguo Feng,  J. Fosso-Tande,  J. Gayvert,  Qinghui Ge,  A. Ghysels,
 G. Gidofalvi,  J. Gomes,  J. Gonthier,  S. Gulania,  A. Gunina,  D. Hait,
 M. W. D. Hanson-Heine,  S. Hammes-Schiffer,  P. H. P. Harbach,
 A. W. Hauser,  M. F. Herbst,  J. E. Herr,  E. G. Hohenstein,  Z. C. Holden,
 S. Houck,  Kerwin Hui,  B. C. Huynh,  M. Ivanov,  T.-C. Jagau,  Hyunjun Ji,
 B. Kaduk,  K. Khistyaev,  Jaehoon Kim,  P. Klunzinger,  K. Koh,
 D. Kosenkov,  L. Koulias,  T. Kowalczyk,  C. M. Krauter,  A. Kunitsa,
 Ka Un Lao,  A. Laurent,  K. V. Lawler,  Joonho Lee,  D. Lefrancois,
 S. Lehtola,  D. S. Levine,  Yi-Pei Li,  You-Sheng Lin,  Fenglai Liu,
 Kuan-Yu Liu,  E. Livshits,  M. Loipersberger,  A. Luenser,  P. Manohar,
 E. Mansoor,  S. F. Manzer,  Shan-Ping Mao,  Yuezhi Mao,  N. Mardirossian,
 A. V. Marenich,  T. Markovich,  L. A. Martinez-Martinez,  S. A. Maurer,
 N. J. Mayhall,  S. C. McKenzie,  J.-M. Mewes,  P. Morgante,  A. F. Morrison,
 J. W. Mullinax,  K. Nanda,  T. S. Nguyen-Beck,  R. Olivares-Amaya,
 K. J. Oosterbaan,  J. A. Parkhill,  S. K. Paul,  F. Pavosevic,  Zheng Pei,
 T. M. Perrine,  F. Plasser,  P. Pokhilko,  S. Prager,  A. Prociuk,
 E. Ramos,  B. Rana,  D. R. Rehn,  F. Rob,  E. Rossomme,  M. Scheurer,
 M. Schneider,  N. Sergueev,  S. M. Sharada,  S. Sharma,  W. Skomorowski,
 D. W. Small,  T. Stauch,  C. J. Stein,  T. Stein,  Yu-Chuan Su,
 S. P. Veccham,  Zhen Tao,  A. J. W. Thom,  A. Tkatchenko,  T. Tsuchimochi,
 N. M. Tubman,  L. Vogt,  M. L. Vidal,  O. Vydrov,  M. A. Watson,  J. Wenzel,
 M. de Wergifosse,  T. A. Wesolowski,  A. White,  J. Witte,  A. Yamada,
 Jun Yang,  K. Yao,  S. Yeganeh,  S. R. Yost,  Zhi-Qiang You,  A. Zech,
 Igor Ying Zhang,  Xing Zhang,  Yan Zhao,  Ying Zhu,  B. R. Brooks,
 G. K. L. Chan,  C. J. Cramer,  M. S. Gordon,  W. J. Hehre,  A. Klamt,
 M. W. Schmidt,  C. D. Sherrill,  D. G. Truhlar,  A. Aspuru-Guzik,  R. Baer,
 A. T. Bell,  N. A. Besley,  Jeng-Da Chai,  A. E. DePrince, III,
 R. A. DiStasio Jr.,  A. Dreuw,  B. D. Dunietz,  T. R. Furlani,
 Chao-Ping Hsu,  Yousung Jung,  Jing Kong,  D. S. Lambrecht,  WanZhen Liang,
 C. Ochsenfeld,  V. A. Rassolov,  L. V. Slipchenko,  J. E. Subotnik,
 T. Van Voorhis,  J. M. Herbert,  A. I. Krylov,  P. M. W. Gill,  M. Head-Gordon

 Contributors to earlier versions of Q-Chem not listed above:
 R. D. Adamson,  B. Austin,  J. Baker,  G. J. O. Beran,  K. Brandhorst,
 S. T. Brown,  E. F. C. Byrd,  A. K. Chakraborty,  C.-L. Cheng,
 Siu Hung Chien,  D. M. Chipman,  D. L. Crittenden,  H. Dachsel,
 R. J. Doerksen,  A. D. Dutoi,  L. Fusti-Molnar,  W. A. Goddard III,
 A. Golubeva-Zadorozhnaya,  S. R. Gwaltney,  G. Hawkins,  A. Heyden,
 S. Hirata,  G. Kedziora,  F. J. Keil,  C. Kelley,  Jihan Kim,  R. A. King,
 R. Z. Khaliullin,  P. P. Korambath,  W. Kurlancheek,  A. M. Lee,  M. S. Lee,
 S. V. Levchenko,  Ching Yeh Lin,  D. Liotard,  R. C. Lochan,  I. Lotan,
 P. E. Maslen,  N. Nair,  D. P. O'Neill,  D. Neuhauser,  E. Neuscamman,
 C. M. Oana,  R. Olson,  B. Peters,  R. Peverati,  P. A. Pieniazek,
 Y. M. Rhee,  J. Ritchie,  M. A. Rohrdanz,  E. Rosta,  N. J. Russ,
 H. F. Schaefer III,  N. E. Schultz,  N. Shenvi,  A. C. Simmonett,  A. Sodt,
 D. Stuck,  K. S. Thanthiriwatte,  V. Vanovschi,  Tao Wang,  A. Warshel,
 C. F. Williams,  Q. Wu,  X. Xu,  W. Zhang

 Please cite Q-Chem as follows:
 Y. Shao et al., Mol. Phys. 113, 184-215 (2015)
 DOI: 10.1080/00268976.2014.952696

 Q-Chem 5.3.1 for Intel X86 EM64T Linux

 Parts of Q-Chem use Armadillo 9.800.1 (Horizon Scraper).
 http://arma.sourceforge.net/

 Q-Chem begins on Fri Oct 30 10:17:24 2020

Host:
0

     Scratch files written to /data/scratch/MN_13_c2h5ts_BH76_HF_3c//
Processing $rem in /home/pierpa/qchem53/config/preferences:
Processing $rem in /home/pierpa/.qchemrc:
The previous job contains 0 fragments, simply inherited here

!!********************************************.
!!******************Warning*******************.
!!Desired Analytical derivatives not available.
!!Finite difference job might take a long time.
!!********************************************.
!!********************************************.

 2-order derivative to be evaluated numerically with 1-order analytical derivatives

Checking the input file for inconsistencies... 	...done.

--------------------------------------------------------------
User input:
--------------------------------------------------------------

$Comment
Geometry optimizations for CLB18.
$End

$Rem
SYMMETRY              False
SYM_IGNORE            True
JOBTYPE               Freq
METHOD                HF-3c
BASIS                 MINIX
GEOM_OPT_MAX_CYCLES   150
GEOM_OPT_DMAX         10
MAX_SCF_CYCLES        50
SCF_ALGORITHM         DIIS
SCF_PRINT             1
SCF_FINAL_PRINT       1
XC_GRID               000099000590
MEM_TOTAL             20000
MEM_STATIC            4000
BLAS3_DFT             True
New_DFT               True
$End

$Molecule
Read
$End

--------------------------------------------------------------

 Total energy in the final basis set =      -77.9836817830
    8     -77.9836818035      7.86e-09  Convergence criterion met
 Total energy in the final basis set =      -77.9836818035
    9     -77.9836815741      4.54e-09  Convergence criterion met
 Total energy in the final basis set =      -77.9836815741
    9     -77.9836815196      6.10e-09  Convergence criterion met
 Total energy in the final basis set =      -77.9836815196
    8     -77.9836811769      2.76e-09  Convergence criterion met
 Total energy in the final basis set =      -77.9836811769
    9     -77.9836812226      4.96e-09  Convergence criterion met
 Total energy in the final basis set =      -77.9836812226
    8     -77.9836818001      6.99e-09  Convergence criterion met
 Total energy in the final basis set =      -77.9836818001
    8     -77.9836817866      8.17e-09  Convergence criterion met
 Total energy in the final basis set =      -77.9836817866

                    Orbital Energies (a.u.)
 --------------------------------------------------------------

 Alpha MOs
 -- Occupied --
-11.1535 -11.1408  -1.0266  -0.7879  -0.6363  -0.5721  -0.4997  -0.4722
 -0.3809

 Beta MOs
 -- Occupied --
-11.1609 -11.1320  -1.0245  -0.7828  -0.6357  -0.5698  -0.4988  -0.4057

          Ground-State Mulliken Net Atomic Charges

     Atom                 Charge (a.u.)    Spin (a.u.)
  --------------------------------------------------------
      1 C                    -0.260167      -0.735227
      2 C                    -0.261046       0.772498
      3 H                     0.003122       0.965370
      4 H                     0.130952       0.048676
      5 H                     0.130953       0.048694
      6 H                     0.128098      -0.050010
      7 H                     0.128088      -0.050001
  --------------------------------------------------------
  Sum of atomic charges =    -0.000000

                    Cartesian Multipole Moments
 -----------------------------------------------------------------
    Charge (ESU x 10^10)
                -0.0000
    Dipole Moment (Debye)
         X      -0.0615      Y      -0.0001      Z      -0.0204
       Tot       0.0648
    Quadrupole Moments (Debye-Ang)
        XX     -13.8869     XY       0.0001     YY     -13.5666
        XZ       0.4375     YZ      -0.0014     ZZ     -15.5431

             Standard Nuclear Orientation (Angstroms)
    I     Atom           X                Y                Z
 ----------------------------------------------------------------
    1      C      -0.5580503820     0.0002293644    -0.2563290921
    2      C       0.7698377019     0.0000000433     0.0343961731
    3      H      -1.5719885667    -0.0007556206     1.6369137081
    4      H      -1.1007974127     0.9191895553    -0.4312060742
    5      H      -1.1011947766    -0.9185564025    -0.4308737641
    6      H       1.3227263845    -0.9195848275     0.1663851451
    7      H       1.3231596687     0.9194017702     0.1658442824
 ----------------------------------------------------------------

 Frequency:      -342.97                 339.81                 382.85
 Force Cnst:      0.0790                 0.0822                 0.0898
 Red. Mass:       1.1394                 1.2080                 1.0397
 IR Intens:        1.949                  0.061                  0.035
 Frequency:       897.73                1005.86                1049.25
 Force Cnst:      0.4947                 0.7985                 0.7782
 Red. Mass:       1.0419                 1.3395                 1.1998
 IR Intens:        4.334                 29.383                 26.101
 Frequency:      1090.64                1286.07                1360.36
 Force Cnst:      0.7076                 2.5753                 1.6256
 Red. Mass:       1.0096                 2.6427                 1.4910
 IR Intens:        0.001                  0.598                  0.002
 Frequency:      1643.35                1699.42                3607.81
 Force Cnst:      1.7650                 2.1783                 8.0598
 Red. Mass:       1.1093                 1.2801                 1.0510
 IR Intens:        9.907                  0.064                135.228
 Frequency:      3625.13                3749.68                3762.00
 Force Cnst:      8.2253                 9.2975                 9.3260
 Red. Mass:       1.0623                 1.1223                 1.1184
 IR Intens:        2.517                  2.299                 81.006

 STANDARD THERMODYNAMIC QUANTITIES AT   298.15 K  AND     1.00 ATM

   This Molecule has  1 Imaginary Frequencies
   Zero point vibrational energy:       36.454 kcal/mol

   Atom    1 Element C  Has Mass   12.00000
   Atom    2 Element C  Has Mass   12.00000
   Atom    3 Element H  Has Mass    1.00783
   Atom    4 Element H  Has Mass    1.00783
   Atom    5 Element H  Has Mass    1.00783
   Atom    6 Element H  Has Mass    1.00783
   Atom    7 Element H  Has Mass    1.00783
   Molecular Mass:    29.039150 amu
   Principal axes and moments of inertia in amu*Bohr^2:
                             1           2           3
    Eigenvalues --       25.72092    81.07322    82.46782
          X               0.99825    -0.05915    -0.00039
          Y              -0.00005    -0.00741     0.99997
          Z               0.05916     0.99822     0.00740
   Rotational Symmetry Number is   1
   The Molecule is an Asymmetric Top
   Translational Enthalpy:        0.889 kcal/mol
   Rotational Enthalpy:           0.889 kcal/mol
   Vibrational Enthalpy:         37.001 kcal/mol
   gas constant (RT):             0.592 kcal/mol
   Translational Entropy:        36.032  cal/mol.K
   Rotational Entropy:           19.781  cal/mol.K
   Vibrational Entropy:           2.676  cal/mol.K

   Total Enthalpy:               39.371 kcal/mol
   Total Entropy:                58.489  cal/mol.K

 Total job time:  7.70s(wall), 16.92s(cpu)
        *  Thank you very much for using Q-Chem.  Have a nice day.  *
