 Q-Chem 5.3 (devel), Q-Chem, Inc., Pleasanton, CA (2020)
 Q-Chem 5.3.0 for Intel X86 EM64T Linux

User input:
--------------------------------------------------------------
$Comment
Geometry optimizations for CLB18.
$End

$Rem
SYMMETRY              False
SYM_IGNORE            True
JOBTYPE               Opt
METHOD                HF-3c
BASIS                 MINIX
MAX_SCF_CYCLES        50
SCF_ALGORITHM         DIIS
SCF_PRINT             1
SCF_FINAL_PRINT       1
XC_GRID               000099000590
MEM_TOTAL             20000
MEM_STATIC            4000
BLAS3_DFT             True
New_DFT               True
$End

$Molecule
0 1
C -0.7630947051 0.0000000000 0.0000000000
C 0.7630947051 0.0000000000 0.0000000000
H 1.1583107049 -0.4436420648 -0.9140954222
H -1.1583107049 -1.0133267327 -0.0746399164
H 1.1583107049 -0.5698127288 0.8412541791
H 1.1583107049 1.0134537353 0.0728481224
H -1.1583107049 0.4420201366 0.9148838962
H -1.1583107049 0.5713050086 -0.8402434506
$End

--------------------------------------------------------------

    8     -78.7246792723      6.62e-09  Convergence criterion met
 Total energy in the final basis set =      -78.7246792723
    7     -78.7251822694      1.11e-09  Convergence criterion met
 Total energy in the final basis set =      -78.7251822694
    6     -78.7252336954      2.31e-09  Convergence criterion met
 Total energy in the final basis set =      -78.7252336954

             Standard Nuclear Orientation (Angstroms)
    I     Atom           X                Y                Z
 ----------------------------------------------------------------
    1      C      -0.7750177752     0.0000676292     0.0000410915
    2      C       0.7751739020     0.0000327002     0.0000293947
    3      H       1.1580535420    -0.4429376782    -0.9128558629
    4      H      -1.1580519917    -1.0118276130    -0.0744563073
    5      H       1.1580643345    -0.5691883737     0.8400115755
    6      H       1.1581399132     1.0120660677     0.0728087399
    7      H      -1.1581988407     0.4414606032     0.9135728758
    8      H      -1.1581630841     0.5703240188    -0.8391440986
 ----------------------------------------------------------------

    6     -78.7252350241      1.14e-09  Convergence criterion met
 Total energy in the final basis set =      -78.7252350241
 Final energy is   -78.725235024129333
 **  OPTIMIZATION CONVERGED  **

                    Orbital Energies (a.u.)
 --------------------------------------------------------------

 Alpha MOs
 -- Occupied --
-11.1452 -11.1429  -1.0186  -0.8465  -0.6025  -0.6025  -0.5064  -0.4916
 -0.4916

          Ground-State Mulliken Net Atomic Charges

     Atom                 Charge (a.u.)
  ----------------------------------------
      1 C                    -0.370542
      2 C                    -0.370553
      3 H                     0.123521
      4 H                     0.123504
      5 H                     0.123524
      6 H                     0.123525
      7 H                     0.123512
      8 H                     0.123508
  ----------------------------------------
  Sum of atomic charges =     0.000000

                    Cartesian Multipole Moments
 -----------------------------------------------------------------
    Charge (ESU x 10^10)
                    -0.00000000
    Dipole Moment (Debye)
         X          -0.00012880      Y          -0.00017909      Z          -0.00012007
       Tot           0.00025116
    Quadrupole Moments (Debye-Ang)
        XX         -15.48958414     XY          -0.00004150     YY         -15.01901067
        XZ          -0.00002528     YZ          -0.00004636     ZZ         -15.01880728

 Total job time:  0.74s(wall), 3.39s(cpu)
        *  Thank you very much for using Q-Chem.  Have a nice day.  *
