 Q-Chem 5.3 (devel), Q-Chem, Inc., Pleasanton, CA (2020)
 Q-Chem 5.3.0 for Intel X86 EM64T Linux

User input:
--------------------------------------------------------------
$Comment
Geometry optimizations for CLB18.
$End

$Rem
SYMMETRY              False
SYM_IGNORE            True
JOBTYPE               Opt
METHOD                HF-3c
BASIS                 MINIX
MAX_SCF_CYCLES        50
SCF_ALGORITHM         DIIS
SCF_PRINT             1
SCF_FINAL_PRINT       1
XC_GRID               000099000590
MEM_TOTAL             20000
MEM_STATIC            4000
BLAS3_DFT             True
New_DFT               True
$End

$Molecule
0 2
C 1.2084396621 -0.2871892349 0.0000569998
C -0.0653592065 0.5761311047 -0.0000569998
C -1.3147884062 -0.2395183059 -0.0000110000
H 1.2413703600 -0.9283937904 0.8812335174
H 1.2413968188 -0.9285842942 -0.8809795123
H 2.1018707142 0.3387273910 0.0000000000
H -0.0482180454 1.2268497373 -0.8770900598
H -0.0482720214 1.2270349493 0.8768360548
H -1.7291447458 -0.6157717696 0.9244355449
H -1.7287637382 -0.6164173658 -0.9243667518
$End

--------------------------------------------------------------

   15    -116.8746538657      2.36e-09  Convergence criterion met
 Total energy in the final basis set =     -116.8746538657
   11    -116.8757905583      5.94e-09  Convergence criterion met
 Total energy in the final basis set =     -116.8757905583
   11    -116.8759220312      2.69e-09  Convergence criterion met
 Total energy in the final basis set =     -116.8759220312
   10    -116.8759291015      5.67e-09  Convergence criterion met
 Total energy in the final basis set =     -116.8759291015

             Standard Nuclear Orientation (Angstroms)
    I     Atom           X                Y                Z
 ----------------------------------------------------------------
    1      C       1.2150905543    -0.2925569680     0.0002031011
    2      C      -0.0624607394     0.6003853510     0.0002596789
    3      C      -1.3419444976    -0.2316356129    -0.0003281202
    4      H       1.2336380518    -0.9258181092     0.8799342082
    5      H       1.2316675753    -0.9283231543    -0.8777666920
    6      H       2.1089918064     0.3215867848    -0.0017845237
    7      H      -0.0428295683     1.2437483298    -0.8737037497
    8      H      -0.0431401666     1.2433192108     0.8745154820
    9      H      -1.7204395733    -0.6394080387     0.9248192525
   10      H      -1.7200420508    -0.6384293718    -0.9260908439
 ----------------------------------------------------------------

    9    -116.8759304606      8.12e-09  Convergence criterion met
 Total energy in the final basis set =     -116.8759304606
 Final energy is   -116.87593046056078
 **  OPTIMIZATION CONVERGED  **

                    Orbital Energies (a.u.)
 --------------------------------------------------------------

 Alpha MOs
 -- Occupied --
-11.1574 -11.1450 -11.1220  -1.0551  -0.9254  -0.8017  -0.6344  -0.5915
 -0.5501  -0.5316  -0.4887  -0.4780  -0.3592

 Beta MOs
 -- Occupied --
-11.1617 -11.1423 -11.0872  -1.0356  -0.8793  -0.7658  -0.6281  -0.5817
 -0.5415  -0.5074  -0.4767  -0.4753

          Ground-State Mulliken Net Atomic Charges

     Atom                 Charge (a.u.)    Spin (a.u.)
  --------------------------------------------------------
      1 C                    -0.364985       0.066609
      2 C                    -0.263004      -0.147721
      3 C                    -0.218933       1.217110
      4 H                     0.123334      -0.005036
      5 H                     0.123331      -0.005040
      6 H                     0.123354       0.000465
      7 H                     0.127035       0.016796
      8 H                     0.127039       0.016801
      9 H                     0.111417      -0.079990
     10 H                     0.111413      -0.079992
  --------------------------------------------------------
  Sum of atomic charges =    -0.000000

                    Cartesian Multipole Moments
 -----------------------------------------------------------------
    Charge (ESU x 10^10)
                    -0.00000000
    Dipole Moment (Debye)
         X           0.19273364      Y          -0.05692493      Z          -0.00018794
       Tot           0.20096452
    Quadrupole Moments (Debye-Ang)
        XX         -21.90588955     XY           0.53181312     YY         -21.29270436
        XZ          -0.00010556     YZ          -0.00037124     ZZ         -20.53329187

 Total job time:  1.57s(wall), 8.29s(cpu)
        *  Thank you very much for using Q-Chem.  Have a nice day.  *
