 Q-Chem 5.3 (devel), Q-Chem, Inc., Pleasanton, CA (2020)
 Q-Chem 5.3.0 for Intel X86 EM64T Linux

User input:
--------------------------------------------------------------
$Comment
Geometry optimizations for CLB18.
$End

$Rem
SYMMETRY              False
SYM_IGNORE            True
JOBTYPE               Opt
METHOD                HF-3c
BASIS                 MINIX
MAX_SCF_CYCLES        50
SCF_ALGORITHM         DIIS
SCF_PRINT             1
SCF_FINAL_PRINT       1
XC_GRID               000099000590
MEM_TOTAL             20000
MEM_STATIC            4000
BLAS3_DFT             True
New_DFT               True
$End

$Molecule
0 2
C -0.0105750245 -0.6958574487 0.0000000000
C -0.0105750245 0.7951840111 0.0000000000
H 1.0090827315 -1.0996831618 0.0000000000
H -0.5086202637 -1.0954814947 0.8834190193
H -0.5086202637 -1.0954814947 -0.8834190193
H 0.0675288330 1.3473433882 -0.9243191259
H 0.0675288330 1.3473433882 0.9243191259
$End

--------------------------------------------------------------

   13     -78.0882526719      5.82e-09  Convergence criterion met
 Total energy in the final basis set =      -78.0882526719
   11     -78.0890669089      3.66e-09  Convergence criterion met
 Total energy in the final basis set =      -78.0890669089
    9     -78.0891427289      9.81e-09  Convergence criterion met
 Total energy in the final basis set =      -78.0891427289
    9     -78.0891450583      6.14e-09  Convergence criterion met
 Total energy in the final basis set =      -78.0891450583

             Standard Nuclear Orientation (Angstroms)
    I     Atom           X                Y                Z
 ----------------------------------------------------------------
    1      C      -0.0095665088    -0.7133706038     0.0000316651
    2      C      -0.0240849638     0.8123571883    -0.0000013732
    3      H       1.0089944249    -1.0989790492    -0.0002443188
    4      H      -0.5098300636    -1.1056098338     0.8801756956
    5      H      -0.5101339382    -1.1055833160    -0.8799730944
    6      H       0.0755181806     1.3572423211    -0.9266771156
    7      H       0.0748526901     1.3573104811     0.9266885413
 ----------------------------------------------------------------

    9     -78.0891456077      5.58e-09  Convergence criterion met
 Total energy in the final basis set =      -78.0891456077
 Final energy is   -78.089145607741685
 **  OPTIMIZATION CONVERGED  **

                    Orbital Energies (a.u.)
 --------------------------------------------------------------

 Alpha MOs
 -- Occupied --
-11.1485 -11.1257  -1.0207  -0.8388  -0.6129  -0.5807  -0.5259  -0.5028
 -0.3628

 Beta MOs
 -- Occupied --
-11.1527 -11.0909  -0.9834  -0.7774  -0.6023  -0.5522  -0.5115  -0.4970

          Ground-State Mulliken Net Atomic Charges

     Atom                 Charge (a.u.)    Spin (a.u.)
  --------------------------------------------------------
      1 C                    -0.394049      -0.147479
      2 C                    -0.221769       1.219881
      3 H                     0.129941       0.053470
      4 H                     0.129560       0.018099
      5 H                     0.129558       0.018143
      6 H                     0.113378      -0.081057
      7 H                     0.113381      -0.081056
  --------------------------------------------------------
  Sum of atomic charges =     0.000000

                    Cartesian Multipole Moments
 -----------------------------------------------------------------
    Charge (ESU x 10^10)
                     0.00000000
    Dipole Moment (Debye)
         X           0.11812043      Y          -0.13349906      Z          -0.00005438
       Tot           0.17825386
    Quadrupole Moments (Debye-Ang)
        XX         -14.80047092     XY           0.13237380     YY         -14.36620497
        XZ          -0.00042692     YZ           0.00012452     ZZ         -13.89367091

 Total job time:  1.14s(wall), 4.63s(cpu)
        *  Thank you very much for using Q-Chem.  Have a nice day.  *
