 Q-Chem 5.3 (devel), Q-Chem, Inc., Pleasanton, CA (2020)
 Q-Chem 5.3.0 for Intel X86 EM64T Linux

User input:
--------------------------------------------------------------
$Comment
Geometry optimizations for CLB18.
$End

$Rem
SYMMETRY              False
SYM_IGNORE            True
JOBTYPE               Opt
METHOD                HF-3c
BASIS                 MINIX
MAX_SCF_CYCLES        50
SCF_ALGORITHM         DIIS
SCF_PRINT             1
SCF_FINAL_PRINT       1
XC_GRID               000099000590
MEM_TOTAL             20000
MEM_STATIC            4000
BLAS3_DFT             True
New_DFT               True
$End

$Molecule
0 2
C 0.7946072080 0.0000060000 -0.0223949912
C -0.6953706056 0.0001700003 -0.0004600000
H -1.1033979858 0.8895945173 -0.4810559520
H 1.3484758274 -0.9240492455 0.0484850153
H -1.0860409733 -0.0133270105 1.0246458333
H -1.1038266193 -0.8767196358 -0.5035740298
H 1.3493860122 0.9234459835 0.0486330261
$End

--------------------------------------------------------------

   13     -78.0881990158      5.87e-09  Convergence criterion met
 Total energy in the final basis set =      -78.0881990158
   11     -78.0890659845      3.75e-09  Convergence criterion met
 Total energy in the final basis set =      -78.0890659845
   10     -78.0891423672      4.28e-09  Convergence criterion met
 Total energy in the final basis set =      -78.0891423672
    9     -78.0891447928      5.90e-09  Convergence criterion met
 Total energy in the final basis set =      -78.0891447928

             Standard Nuclear Orientation (Angstroms)
    I     Atom           X                Y                Z
 ----------------------------------------------------------------
    1      C       0.8117833778    -0.0000203407    -0.0352286486
    2      C      -0.7136115048     0.0000502728     0.0009512518
    3      H      -1.1126223342     0.8863918548    -0.4826470104
    4      H       1.3577486541    -0.9269996979     0.0552585560
    5      H      -1.0847453667    -0.0130444385     1.0247855086
    6      H      -1.1132339140    -0.8736436947    -0.5048638433
    7      H       1.3585139513     0.9263866536     0.0560230876
 ----------------------------------------------------------------

    9     -78.0891454073      5.39e-09  Convergence criterion met
 Total energy in the final basis set =      -78.0891454073
 Final energy is   -78.089145407319165
 **  OPTIMIZATION CONVERGED  **

                    Orbital Energies (a.u.)
 --------------------------------------------------------------

 Alpha MOs
 -- Occupied --
-11.1485 -11.1257  -1.0207  -0.8388  -0.6129  -0.5807  -0.5259  -0.5029
 -0.3628

 Beta MOs
 -- Occupied --
-11.1527 -11.0909  -0.9834  -0.7774  -0.6023  -0.5522  -0.5115  -0.4971

          Ground-State Mulliken Net Atomic Charges

     Atom                 Charge (a.u.)    Spin (a.u.)
  --------------------------------------------------------
      1 C                    -0.221785       1.219941
      2 C                    -0.394045      -0.147511
      3 H                     0.129543       0.017679
      4 H                     0.113351      -0.081063
      5 H                     0.129940       0.053460
      6 H                     0.129576       0.018582
      7 H                     0.113421      -0.081088
  --------------------------------------------------------
  Sum of atomic charges =    -0.000000

                    Cartesian Multipole Moments
 -----------------------------------------------------------------
    Charge (ESU x 10^10)
                    -0.00000000
    Dipole Moment (Debye)
         X          -0.13176045      Y          -0.00046088      Z           0.11937717
       Tot           0.17779746
    Quadrupole Moments (Debye-Ang)
        XX         -14.36189327     XY           0.00124885     YY         -13.89350428
        XZ           0.12512549     YZ           0.00026519     ZZ         -14.80438834

 Total job time:  1.11s(wall), 4.54s(cpu)
        *  Thank you very much for using Q-Chem.  Have a nice day.  *
