 Q-Chem 5.3 (devel), Q-Chem, Inc., Pleasanton, CA (2020)
 Q-Chem 5.3.0 for Intel X86 EM64T Linux

User input:
--------------------------------------------------------------
$Comment
Geometry optimizations for CLB18.
$End

$Rem
SYMMETRY              False
SYM_IGNORE            True
JOBTYPE               Opt
METHOD                HF-3c
BASIS                 MINIX
MAX_SCF_CYCLES        50
SCF_ALGORITHM         DIIS
SCF_PRINT             1
SCF_FINAL_PRINT       1
XC_GRID               000099000590
MEM_TOTAL             20000
MEM_STATIC            4000
BLAS3_DFT             True
New_DFT               True
$End

$Molecule
0 1
F 0.0000000000 0.0000000000 -1.0659851570
Cl 0.0000000000 0.0000000000 0.5643463282
$End

--------------------------------------------------------------

   10    -556.0658462799      2.29e-09  Convergence criterion met
 Total energy in the final basis set =     -556.0658462799
    8    -556.0671047363      1.57e-09  Convergence criterion met
 Total energy in the final basis set =     -556.0671047363
    8    -556.0672846513      1.09e-09  Convergence criterion met
 Total energy in the final basis set =     -556.0672846513

             Standard Nuclear Orientation (Angstroms)
    I     Atom           X                Y                Z
 ----------------------------------------------------------------
    1      F       0.0000000000     0.0000000000    -1.0416224081
    2      Cl      0.0000000000     0.0000000000     0.5399835793
 ----------------------------------------------------------------

    7    -556.0672872588      2.20e-09  Convergence criterion met
 Total energy in the final basis set =     -556.0672872588
 Final energy is   -556.06728725882908
 **  OPTIMIZATION CONVERGED  **

                    Orbital Energies (a.u.)
 --------------------------------------------------------------

 Alpha MOs
 -- Occupied --
******** -26.0952 -10.6236  -8.0592  -8.0527  -8.0527  -1.6440  -1.0979
 -0.7094  -0.7094  -0.6704  -0.4785  -0.4785

          Ground-State Mulliken Net Atomic Charges

     Atom                 Charge (a.u.)
  ----------------------------------------
      1 F                    -0.201409
      2 Cl                    0.201409
  ----------------------------------------
  Sum of atomic charges =     0.000000

                    Cartesian Multipole Moments
 -----------------------------------------------------------------
    Charge (ESU x 10^10)
                     0.00000000
    Dipole Moment (Debye)
         X          -0.00000000      Y          -0.00000000      Z           0.78811047
       Tot           0.78811047
    Quadrupole Moments (Debye-Ang)
        XX         -17.32407836     XY          -0.00000000     YY         -17.32407836
        XZ          -0.00000000     YZ          -0.00000000     ZZ         -16.13397305

 Total job time:  1.69s(wall), 6.68s(cpu)
        *  Thank you very much for using Q-Chem.  Have a nice day.  *
