 Q-Chem 5.3 (devel), Q-Chem, Inc., Pleasanton, CA (2020)
 Q-Chem 5.3.0 for Intel X86 EM64T Linux

User input:
--------------------------------------------------------------
$Comment
Geometry optimizations for CLB18.
$End

$Rem
SYMMETRY              False
SYM_IGNORE            True
JOBTYPE               Opt
METHOD                HF-3c
BASIS                 MINIX
MAX_SCF_CYCLES        50
SCF_ALGORITHM         DIIS
SCF_PRINT             1
SCF_FINAL_PRINT       1
XC_GRID               000099000590
MEM_TOTAL             20000
MEM_STATIC            4000
BLAS3_DFT             True
New_DFT               True
$End

$Molecule
0 2
C 0.0000000000 0.0000000000 0.0000000000
H 0.5386580820 0.9329831659 0.0000000000
H 0.5386580820 -0.9329831659 0.0000000000
H -1.0773161640 0.0000000000 0.0000000000
$End

--------------------------------------------------------------

    9     -39.2983537919      8.61e-10  Convergence criterion met
 Total energy in the final basis set =      -39.2983537919
    6     -39.2983621057      2.19e-09  Convergence criterion met
 Total energy in the final basis set =      -39.2983621057

             Standard Nuclear Orientation (Angstroms)
    I     Atom           X                Y                Z
 ----------------------------------------------------------------
    1      C       0.0000052651     0.0000076921     0.0000000000
    2      H       0.5397058868     0.9347988733     0.0000000000
    3      H       0.5396851565    -0.9347920327     0.0000000000
    4      H      -1.0793963084    -0.0000145327     0.0000000000
 ----------------------------------------------------------------

    6     -39.2983652543      2.39e-09  Convergence criterion met
 Total energy in the final basis set =      -39.2983652543
 Final energy is   -39.298365254322398
 **  OPTIMIZATION CONVERGED  **

                    Orbital Energies (a.u.)
 --------------------------------------------------------------

 Alpha MOs
 -- Occupied --
-11.1192  -0.9381  -0.5678  -0.5678  -0.3965

 Beta MOs
 -- Occupied --
-11.0848  -0.8357  -0.5524  -0.5524

          Ground-State Mulliken Net Atomic Charges

     Atom                 Charge (a.u.)    Spin (a.u.)
  --------------------------------------------------------
      1 C                    -0.351939       1.249346
      2 H                     0.117315      -0.083116
      3 H                     0.117312      -0.083115
      4 H                     0.117312      -0.083115
  --------------------------------------------------------
  Sum of atomic charges =    -0.000000

                    Cartesian Multipole Moments
 -----------------------------------------------------------------
    Charge (ESU x 10^10)
                    -0.00000000
    Dipole Moment (Debye)
         X          -0.00000316      Y          -0.00000328      Z           0.00000000
       Tot           0.00000456
    Quadrupole Moments (Debye-Ang)
        XX          -7.28497484     XY           0.00005119     YY          -7.28491361
        XZ           0.00000000     YZ           0.00000000     ZZ          -8.23582533

 Total job time:  0.51s(wall), 1.83s(cpu)
        *  Thank you very much for using Q-Chem.  Have a nice day.  *
