 Q-Chem 5.3 (devel), Q-Chem, Inc., Pleasanton, CA (2020)
 Q-Chem 5.3.0 for Intel X86 EM64T Linux

User input:
--------------------------------------------------------------
$Comment
Geometry optimizations for CLB18.
$End

$Rem
SYMMETRY              False
SYM_IGNORE            True
JOBTYPE               Opt
METHOD                HF-3c
BASIS                 MINIX
MAX_SCF_CYCLES        50
SCF_ALGORITHM         DIIS
SCF_PRINT             1
SCF_FINAL_PRINT       1
XC_GRID               000099000590
MEM_TOTAL             20000
MEM_STATIC            4000
BLAS3_DFT             True
New_DFT               True
$End

$Molecule
0 1
C 0.0000000000 0.0000000000 0.0000000000
H 0.6278370100 0.6278370100 0.6278370100
H -0.6278370100 -0.6278370100 0.6278370100
H 0.6278370100 -0.6278370100 -0.6278370100
H -0.6278370100 0.6278370100 -0.6278370100
$End

--------------------------------------------------------------

    7     -39.9397110490      1.82e-10  Convergence criterion met
 Total energy in the final basis set =      -39.9397110490
    5     -39.9397449805      1.44e-09  Convergence criterion met
 Total energy in the final basis set =      -39.9397449805

             Standard Nuclear Orientation (Angstroms)
    I     Atom           X                Y                Z
 ----------------------------------------------------------------
    1      C       0.0000179320     0.0000209392     0.0000149255
    2      H       0.6258896582     0.6258771558     0.6259021600
    3      H      -0.6258710662    -0.6258657290     0.6258527057
    4      H       0.6258458640    -0.6258713892    -0.6258820648
    5      H      -0.6258823881     0.6258390232    -0.6258877264
 ----------------------------------------------------------------

    5     -39.9397493728      1.68e-10  Convergence criterion met
 Total energy in the final basis set =      -39.9397493728
 Final energy is   -39.939749372761163
 **  OPTIMIZATION CONVERGED  **

                    Orbital Energies (a.u.)
 --------------------------------------------------------------

 Alpha MOs
 -- Occupied --
-11.1339  -0.9456  -0.5485  -0.5485  -0.5485

          Ground-State Mulliken Net Atomic Charges

     Atom                 Charge (a.u.)
  ----------------------------------------
      1 C                    -0.506709
      2 H                     0.126680
      3 H                     0.126676
      4 H                     0.126676
      5 H                     0.126677
  ----------------------------------------
  Sum of atomic charges =     0.000000

                    Cartesian Multipole Moments
 -----------------------------------------------------------------
    Charge (ESU x 10^10)
                    -0.00000000
    Dipole Moment (Debye)
         X          -0.00004072      Y          -0.00004707      Z          -0.00003437
       Tot           0.00007109
    Quadrupole Moments (Debye-Ang)
        XX          -8.38737124     XY           0.00005667     YY          -8.38742381
        XZ           0.00009469     YZ           0.00007568     ZZ          -8.38731867

 Total job time:  0.44s(wall), 1.52s(cpu)
        *  Thank you very much for using Q-Chem.  Have a nice day.  *
