 Q-Chem 5.3 (devel), Q-Chem, Inc., Pleasanton, CA (2020)
 Q-Chem 5.3.0 for Intel X86 EM64T Linux

User input:
--------------------------------------------------------------
$Comment
Geometry optimizations for CLB18.
$End

$Rem
SYMMETRY              False
SYM_IGNORE            True
JOBTYPE               Opt
METHOD                HF-3c
BASIS                 MINIX
MAX_SCF_CYCLES        50
SCF_ALGORITHM         DIIS
SCF_PRINT             1
SCF_FINAL_PRINT       1
XC_GRID               000099000590
MEM_TOTAL             20000
MEM_STATIC            4000
BLAS3_DFT             True
New_DFT               True
$End

$Molecule
-1 1
Cl 0.0000000000 0.0000000000 -2.2180722969
C 0.0000000000 0.0000000000 -0.3996659392
H -0.5125319416 0.8877313634 -0.0577142715
H -0.5125319416 -0.8877313634 -0.0577142715
H 1.0250638833 0.0000000000 -0.0577142715
Cl 0.0000000000 0.0000000000 2.7908810507
$End

--------------------------------------------------------------

   10    -953.9698940108      3.97e-09  Convergence criterion met
 Total energy in the final basis set =     -953.9698940108
    8    -953.9708273912      7.84e-09  Convergence criterion met
 Total energy in the final basis set =     -953.9708273912
    7    -953.9708629211      5.40e-09  Convergence criterion met
 Total energy in the final basis set =     -953.9708629211
    7    -953.9708773666      5.07e-09  Convergence criterion met
 Total energy in the final basis set =     -953.9708773666
    8    -953.9709001401      2.85e-09  Convergence criterion met
 Total energy in the final basis set =     -953.9709001401
    7    -953.9709064585      5.66e-09  Convergence criterion met
 Total energy in the final basis set =     -953.9709064585

             Standard Nuclear Orientation (Angstroms)
    I     Atom           X                Y                Z
 ----------------------------------------------------------------
    1      Cl     -0.0005319102    -0.0003203596    -2.2639839631
    2      C       0.0001836699     0.0001319004    -0.4157460777
    3      H      -0.5157551766     0.8940119495    -0.0590596552
    4      H      -0.5157005126    -0.8936350261    -0.0587411167
    5      H       1.0324365482     0.0001411358    -0.0595815825
    6      Cl     -0.0006326185    -0.0003295999     2.8571123954
 ----------------------------------------------------------------

    6    -953.9709073673      7.47e-09  Convergence criterion met
 Total energy in the final basis set =     -953.9709073673
 Final energy is   -953.97090736728126
 **  OPTIMIZATION CONVERGED  **

                    Orbital Energies (a.u.)
 --------------------------------------------------------------

 Alpha MOs
 -- Occupied --
********-103.4060 -11.0937 -10.3331  -9.8962  -7.7661  -7.7623  -7.7623
 -7.3230  -7.3229  -7.3229  -0.9737  -0.7737  -0.6099  -0.4709  -0.4709
 -0.3916  -0.3010  -0.3010  -0.0436  -0.0436  -0.0432

          Ground-State Mulliken Net Atomic Charges

     Atom                 Charge (a.u.)
  ----------------------------------------
      1 Cl                   -0.261609
      2 C                    -0.283402
      3 H                     0.178144
      4 H                     0.178178
      5 H                     0.178088
      6 Cl                   -0.989398
  ----------------------------------------
  Sum of atomic charges =    -1.000000

                    Cartesian Multipole Moments
 -----------------------------------------------------------------
    Charge (ESU x 10^10)
                    -4.80320440
    Dipole Moment (Debye)
         X           0.00390427      Y           0.00208165      Z         -10.42275546
       Tot          10.42275640
    Quadrupole Moments (Debye-Ang)
        XX         -34.22946956     XY          -0.00008497     YY         -34.22922805
        XZ           0.00680153     YZ           0.00358126     ZZ         -80.22170861

 Total job time:  3.23s(wall), 13.89s(cpu)
        *  Thank you very much for using Q-Chem.  Have a nice day.  *
