 Q-Chem 5.3 (devel), Q-Chem, Inc., Pleasanton, CA (2020)
 Q-Chem 5.3.0 for Intel X86 EM64T Linux

User input:
--------------------------------------------------------------
$Comment
Geometry optimizations for CLB18.
$End

$Rem
SYMMETRY              False
SYM_IGNORE            True
JOBTYPE               Opt
METHOD                HF-3c
BASIS                 MINIX
MAX_SCF_CYCLES        50
SCF_ALGORITHM         DIIS
SCF_PRINT             1
SCF_FINAL_PRINT       1
XC_GRID               000099000590
MEM_TOTAL             20000
MEM_STATIC            4000
BLAS3_DFT             True
New_DFT               True
$End

$Molecule
0 1
C -0.0464230233 0.6630696287 0.0000000000
O -0.0464230233 -0.7550617950 0.0000000000
H -1.0869564498 0.9759403628 0.0000000000
H 0.8605903144 -1.0570420621 0.0000000000
H 0.4381449719 1.0715944354 0.8895415996
H 0.4381449719 1.0715944354 -0.8895415996
$End

--------------------------------------------------------------

   11    -114.2940888144      2.28e-09  Convergence criterion met
 Total energy in the final basis set =     -114.2940888144
    9    -114.2946644193      2.48e-09  Convergence criterion met
 Total energy in the final basis set =     -114.2946644193
    8    -114.2947836799      6.64e-09  Convergence criterion met
 Total energy in the final basis set =     -114.2947836799
    8    -114.2947910261      2.24e-09  Convergence criterion met
 Total energy in the final basis set =     -114.2947910261

             Standard Nuclear Orientation (Angstroms)
    I     Atom           X                Y                Z
 ----------------------------------------------------------------
    1      C      -0.0498758176     0.6625023380     0.0000549728
    2      O      -0.0476617286    -0.7641394166     0.0000826803
    3      H      -1.0940195402     0.9891910365    -0.0000612468
    4      H       0.8746478885    -1.0809964347    -0.0001392052
    5      H       0.4369747133     1.0818424881     0.8895290131
    6      H       0.4370122463     1.0816949940    -0.8894662142
 ----------------------------------------------------------------

    7    -114.2947917322      6.31e-09  Convergence criterion met
 Total energy in the final basis set =     -114.2947917322
 Final energy is   -114.29479173216922
 **  OPTIMIZATION CONVERGED  **

                    Orbital Energies (a.u.)
 --------------------------------------------------------------

 Alpha MOs
 -- Occupied --
-20.3053 -11.2134  -1.3262  -0.9201  -0.6576  -0.6143  -0.5706  -0.4679
 -0.4236

          Ground-State Mulliken Net Atomic Charges

     Atom                 Charge (a.u.)
  ----------------------------------------
      1 C                    -0.182627
      2 O                    -0.500786
      3 H                     0.142091
      4 H                     0.296194
      5 H                     0.122568
      6 H                     0.122561
  ----------------------------------------
  Sum of atomic charges =     0.000000

                    Cartesian Multipole Moments
 -----------------------------------------------------------------
    Charge (ESU x 10^10)
                    -0.00000000
    Dipole Moment (Debye)
         X           1.59664819      Y           1.12950842      Z          -0.00048124
       Tot           1.95577988
    Quadrupole Moments (Debye-Ang)
        XX         -11.71817538     XY          -2.01506218     YY         -13.19540362
        XZ          -0.00016390     YZ           0.00056305     ZZ         -13.39409026

 Total job time:  0.94s(wall), 3.76s(cpu)
        *  Thank you very much for using Q-Chem.  Have a nice day.  *
