 Q-Chem 5.3 (devel), Q-Chem, Inc., Pleasanton, CA (2020)
 Q-Chem 5.3.1 for Intel X86 EM64T Linux

User input:
--------------------------------------------------------------
$Comment
Geometry optimizations for CLB18.
$End

$Rem
SYMMETRY              False
SYM_IGNORE            True
JOBTYPE               TS
METHOD                HF-3c
BASIS                 MINIX
GEOM_OPT_MAX_CYCLES   150
GEOM_OPT_DMAX         10
MAX_SCF_CYCLES        50
SCF_ALGORITHM         DIIS
SCF_PRINT             1
SCF_FINAL_PRINT       1
XC_GRID               000099000590
MEM_TOTAL             20000
MEM_STATIC            4000
BLAS3_DFT             True
New_DFT               True
$End

$Molecule
-1 1
Cl 0.0000250000 0.0195260041 2.3225005687
C 0.0005130003 0.0004860001 -0.0000890002
H 0.7612796272 -0.7507331254 0.0063770087
H -1.0304509073 -0.2827240376 0.0021469989
H 0.2707281194 1.0349277465 -0.0086970275
Cl -0.0002970002 -0.0197840309 -2.3224582345
$End

--------------------------------------------------------------

   10    -953.9445900577      2.55e-09  Convergence criterion met
 Total energy in the final basis set =     -953.9445900577
    8    -953.9445589294      4.51e-09  Convergence criterion met
 Total energy in the final basis set =     -953.9445589294
    8    -953.9445419191      4.99e-09  Convergence criterion met
 Total energy in the final basis set =     -953.9445419191
    8    -953.9445301144      5.03e-09  Convergence criterion met
 Total energy in the final basis set =     -953.9445301144
    8    -953.9445232619      5.25e-09  Convergence criterion met
 Total energy in the final basis set =     -953.9445232619
    8    -953.9446446519      5.16e-09  Convergence criterion met
 Total energy in the final basis set =     -953.9446446519
    8    -953.9445992068      5.69e-09  Convergence criterion met
 Total energy in the final basis set =     -953.9445992068
    8    -953.9447360649      4.99e-09  Convergence criterion met
 **  OPTIMIZATION CONVERGED  **
 Total job time:  7.85s(wall), 15.97s(cpu)
        *  Thank you very much for using Q-Chem.  Have a nice day.  *

User input: 2 of 2

                  Welcome to Q-Chem
     A Quantum Leap Into The Future Of Chemistry

 Q-Chem 5.3 (devel), Q-Chem, Inc., Pleasanton, CA (2020)

 Yihan Shao,  Zhengting Gan,  E. Epifanovsky,  A. T. B. Gilbert,  M. Wormit,
 J. Kussmann,  A. W. Lange,  A. Behn,  Jia Deng,  Xintian Feng,  D. Ghosh,
 M. Goldey,  P. R. Horn,  L. D. Jacobson,  I. Kaliman,  T. Kus,  A. Landau,
 Jie Liu,  E. I. Proynov,  R. M. Richard,  R. P. Steele,  E. J. Sundstrom,
 H. L. Woodcock III,  P. M. Zimmerman,  D. Zuev,  B. Alam,  B. Albrecht,
 A. Aldossary,  E. Alguire,  S. A. Baeppler,  D. Barton,  Z. Benda,
 Y. A. Bernard,  E. J. Berquist,  K. B. Bravaya,  H. Burton,  K. Carter-Fenk,
 D. Casanova,  Chun-Min Chang,  Yunqing Chen,  A. Chien,  K. D. Closser,
 M. P. Coons,  S. Coriani,  S. Dasgupta,  A. L. Dempwolff,  M. Diedenhofen,
 Hainam Do,  R. G. Edgar,  Po-Tung Fang,  S. Faraji,  S. Fatehi,
 Qingguo Feng,  J. Fosso-Tande,  J. Gayvert,  Qinghui Ge,  A. Ghysels,
 G. Gidofalvi,  J. Gomes,  J. Gonthier,  S. Gulania,  A. Gunina,  D. Hait,
 M. W. D. Hanson-Heine,  S. Hammes-Schiffer,  P. H. P. Harbach,
 A. W. Hauser,  M. F. Herbst,  J. E. Herr,  E. G. Hohenstein,  Z. C. Holden,
 S. Houck,  Kerwin Hui,  B. C. Huynh,  M. Ivanov,  T.-C. Jagau,  Hyunjun Ji,
 B. Kaduk,  K. Khistyaev,  Jaehoon Kim,  P. Klunzinger,  K. Koh,
 D. Kosenkov,  L. Koulias,  T. Kowalczyk,  C. M. Krauter,  A. Kunitsa,
 Ka Un Lao,  A. Laurent,  K. V. Lawler,  Joonho Lee,  D. Lefrancois,
 S. Lehtola,  D. S. Levine,  Yi-Pei Li,  You-Sheng Lin,  Fenglai Liu,
 Kuan-Yu Liu,  E. Livshits,  M. Loipersberger,  A. Luenser,  P. Manohar,
 E. Mansoor,  S. F. Manzer,  Shan-Ping Mao,  Yuezhi Mao,  N. Mardirossian,
 A. V. Marenich,  T. Markovich,  L. A. Martinez-Martinez,  S. A. Maurer,
 N. J. Mayhall,  S. C. McKenzie,  J.-M. Mewes,  P. Morgante,  A. F. Morrison,
 J. W. Mullinax,  K. Nanda,  T. S. Nguyen-Beck,  R. Olivares-Amaya,
 K. J. Oosterbaan,  J. A. Parkhill,  S. K. Paul,  F. Pavosevic,  Zheng Pei,
 T. M. Perrine,  F. Plasser,  P. Pokhilko,  S. Prager,  A. Prociuk,
 E. Ramos,  B. Rana,  D. R. Rehn,  F. Rob,  E. Rossomme,  M. Scheurer,
 M. Schneider,  N. Sergueev,  S. M. Sharada,  S. Sharma,  W. Skomorowski,
 D. W. Small,  T. Stauch,  C. J. Stein,  T. Stein,  Yu-Chuan Su,
 S. P. Veccham,  Zhen Tao,  A. J. W. Thom,  A. Tkatchenko,  T. Tsuchimochi,
 N. M. Tubman,  L. Vogt,  M. L. Vidal,  O. Vydrov,  M. A. Watson,  J. Wenzel,
 M. de Wergifosse,  T. A. Wesolowski,  A. White,  J. Witte,  A. Yamada,
 Jun Yang,  K. Yao,  S. Yeganeh,  S. R. Yost,  Zhi-Qiang You,  A. Zech,
 Igor Ying Zhang,  Xing Zhang,  Yan Zhao,  Ying Zhu,  B. R. Brooks,
 G. K. L. Chan,  C. J. Cramer,  M. S. Gordon,  W. J. Hehre,  A. Klamt,
 M. W. Schmidt,  C. D. Sherrill,  D. G. Truhlar,  A. Aspuru-Guzik,  R. Baer,
 A. T. Bell,  N. A. Besley,  Jeng-Da Chai,  A. E. DePrince, III,
 R. A. DiStasio Jr.,  A. Dreuw,  B. D. Dunietz,  T. R. Furlani,
 Chao-Ping Hsu,  Yousung Jung,  Jing Kong,  D. S. Lambrecht,  WanZhen Liang,
 C. Ochsenfeld,  V. A. Rassolov,  L. V. Slipchenko,  J. E. Subotnik,
 T. Van Voorhis,  J. M. Herbert,  A. I. Krylov,  P. M. W. Gill,  M. Head-Gordon

 Contributors to earlier versions of Q-Chem not listed above:
 R. D. Adamson,  B. Austin,  J. Baker,  G. J. O. Beran,  K. Brandhorst,
 S. T. Brown,  E. F. C. Byrd,  A. K. Chakraborty,  C.-L. Cheng,
 Siu Hung Chien,  D. M. Chipman,  D. L. Crittenden,  H. Dachsel,
 R. J. Doerksen,  A. D. Dutoi,  L. Fusti-Molnar,  W. A. Goddard III,
 A. Golubeva-Zadorozhnaya,  S. R. Gwaltney,  G. Hawkins,  A. Heyden,
 S. Hirata,  G. Kedziora,  F. J. Keil,  C. Kelley,  Jihan Kim,  R. A. King,
 R. Z. Khaliullin,  P. P. Korambath,  W. Kurlancheek,  A. M. Lee,  M. S. Lee,
 S. V. Levchenko,  Ching Yeh Lin,  D. Liotard,  R. C. Lochan,  I. Lotan,
 P. E. Maslen,  N. Nair,  D. P. O'Neill,  D. Neuhauser,  E. Neuscamman,
 C. M. Oana,  R. Olson,  B. Peters,  R. Peverati,  P. A. Pieniazek,
 Y. M. Rhee,  J. Ritchie,  M. A. Rohrdanz,  E. Rosta,  N. J. Russ,
 H. F. Schaefer III,  N. E. Schultz,  N. Shenvi,  A. C. Simmonett,  A. Sodt,
 D. Stuck,  K. S. Thanthiriwatte,  V. Vanovschi,  Tao Wang,  A. Warshel,
 C. F. Williams,  Q. Wu,  X. Xu,  W. Zhang

 Please cite Q-Chem as follows:
 Y. Shao et al., Mol. Phys. 113, 184-215 (2015)
 DOI: 10.1080/00268976.2014.952696

 Q-Chem 5.3.1 for Intel X86 EM64T Linux

 Parts of Q-Chem use Armadillo 9.800.1 (Horizon Scraper).
 http://arma.sourceforge.net/

 Q-Chem begins on Fri Oct 30 10:19:04 2020

Host:
0

     Scratch files written to /data/scratch/MN_28_clch3clts_BH76_HF_3c//
Processing $rem in /home/pierpa/qchem53/config/preferences:
Processing $rem in /home/pierpa/.qchemrc:
The previous job contains 0 fragments, simply inherited here

!!********************************************.
!!******************Warning*******************.
!!Desired Analytical derivatives not available.
!!Finite difference job might take a long time.
!!********************************************.
!!********************************************.

 2-order derivative to be evaluated numerically with 1-order analytical derivatives

Checking the input file for inconsistencies... 	...done.

--------------------------------------------------------------
User input:
--------------------------------------------------------------

$Comment
Geometry optimizations for CLB18.
$End

$Rem
SYMMETRY              False
SYM_IGNORE            True
JOBTYPE               Freq
METHOD                HF-3c
BASIS                 MINIX
GEOM_OPT_MAX_CYCLES   150
GEOM_OPT_DMAX         10
MAX_SCF_CYCLES        50
SCF_ALGORITHM         DIIS
SCF_PRINT             1
SCF_FINAL_PRINT       1
XC_GRID               000099000590
MEM_TOTAL             20000
MEM_STATIC            4000
BLAS3_DFT             True
New_DFT               True
$End

$Molecule
Read
$End

--------------------------------------------------------------

 Total energy in the final basis set =     -953.9453619397
    7    -953.9453624059      4.98e-09  Convergence criterion met
 Total energy in the final basis set =     -953.9453624059
    7    -953.9453623398      2.92e-09  Convergence criterion met
 Total energy in the final basis set =     -953.9453623398
    7    -953.9453621550      1.21e-09  Convergence criterion met
 Total energy in the final basis set =     -953.9453621550
    6    -953.9453623510      7.85e-09  Convergence criterion met
 Total energy in the final basis set =     -953.9453623510
    7    -953.9453621442      1.86e-09  Convergence criterion met
 Total energy in the final basis set =     -953.9453621442
    7    -953.9453617078      5.33e-09  Convergence criterion met
 Total energy in the final basis set =     -953.9453617078
    7    -953.9453626315      1.63e-09  Convergence criterion met
 Total energy in the final basis set =     -953.9453626315

                    Orbital Energies (a.u.)
 --------------------------------------------------------------

 Alpha MOs
 -- Occupied --
********-103.6094 -11.0927 -10.0804 -10.0792  -7.5094  -7.5082  -7.5079
 -7.5079  -7.5067  -7.5067  -0.8280  -0.7470  -0.7001  -0.4610  -0.4609
 -0.2387  -0.1654  -0.1654  -0.1573  -0.1573  -0.1073

          Ground-State Mulliken Net Atomic Charges

     Atom                 Charge (a.u.)
  ----------------------------------------
      1 Cl                   -0.686774
      2 C                    -0.168937
      3 H                     0.181473
      4 H                     0.181529
      5 H                     0.181460
      6 Cl                   -0.688751
  ----------------------------------------
  Sum of atomic charges =    -1.000000

                    Cartesian Multipole Moments
 -----------------------------------------------------------------
    Charge (ESU x 10^10)
                -4.8032
    Dipole Moment (Debye)
         X       0.0010      Y       0.0018      Z       0.0249
       Tot       0.0250
    Quadrupole Moments (Debye-Ang)
        XX     -34.0279     XY       0.0009     YY     -34.0315
        XZ      -0.0053     YZ      -0.3171     ZZ     -71.0625

             Standard Nuclear Orientation (Angstroms)
    I     Atom           X                Y                Z
 ----------------------------------------------------------------
    1      Cl      0.0004471607     0.0199583042     2.3286660370
    2      C       0.0003318899     0.0005337503     0.0005542087
    3      H       0.7734481654    -0.7626451530     0.0062390915
    4      H      -1.0471911283    -0.2874732037     0.0010960410
    5      H       0.2752856766     1.0515557530    -0.0079010864
    6      Cl     -0.0005239249    -0.0202308940    -2.3288739776
 ----------------------------------------------------------------

 Frequency:      -504.70                 242.52                 242.59
 Force Cnst:      1.9702                 0.1497                 0.1498
 Red. Mass:      13.1281                 4.3207                 4.3209
 IR Intens:     1762.180                 20.116                 20.112
 Frequency:       259.19                1166.88                1167.20
 Force Cnst:      1.3823                 0.8122                 0.8127
 Red. Mass:      34.9238                 1.0124                 1.0124
 IR Intens:        0.000                  0.000                  0.000
 Frequency:      1229.57                1510.37                1510.81
 Force Cnst:      0.9304                 1.4828                 1.4835
 Red. Mass:       1.0445                 1.1032                 1.1031
 IR Intens:      186.399                 10.570                 10.562
 Frequency:      3525.63                3779.77                3780.02
 Force Cnst:      7.3812                 9.4808                 9.4820
 Red. Mass:       1.0079                 1.1263                 1.1263
 IR Intens:        0.000                 93.480                 93.498

 STANDARD THERMODYNAMIC QUANTITIES AT   298.15 K  AND     1.00 ATM

   This Molecule has  1 Imaginary Frequencies
   Zero point vibrational energy:       26.325 kcal/mol

   Atom    1 Element Cl Has Mass   34.96885
   Atom    2 Element C  Has Mass   12.00000
   Atom    3 Element H  Has Mass    1.00783
   Atom    4 Element H  Has Mass    1.00783
   Atom    5 Element H  Has Mass    1.00783
   Atom    6 Element Cl Has Mass   34.96885
   Molecular Mass:    84.961190 amu
   Principal axes and moments of inertia in amu*Bohr^2:
                             1           2           3
    Eigenvalues --       12.74327  1360.91794  1360.92285
          X               0.00021     0.82041    -0.57177
          Y               0.00863     0.57175     0.82038
          Z               0.99996    -0.00511    -0.00696
   Rotational Symmetry Number is   1
   The Molecule is an Asymmetric Top
   Translational Enthalpy:        0.889 kcal/mol
   Rotational Enthalpy:           0.889 kcal/mol
   Vibrational Enthalpy:         27.285 kcal/mol
   gas constant (RT):             0.592 kcal/mol
   Translational Entropy:        39.232  cal/mol.K
   Rotational Entropy:           24.671  cal/mol.K
   Vibrational Entropy:           5.389  cal/mol.K

   Total Enthalpy:               29.655 kcal/mol
   Total Entropy:                69.292  cal/mol.K

 Total job time:  15.08s(wall), 29.24s(cpu)
        *  Thank you very much for using Q-Chem.  Have a nice day.  *
