 Q-Chem 5.3 (devel), Q-Chem, Inc., Pleasanton, CA (2020)
 Q-Chem 5.3.0 for Intel X86 EM64T Linux

User input:
--------------------------------------------------------------
$Comment
Geometry optimizations for CLB18.
$End

$Rem
SYMMETRY              False
SYM_IGNORE            True
JOBTYPE               Opt
METHOD                HF-3c
BASIS                 MINIX
MAX_SCF_CYCLES        50
SCF_ALGORITHM         DIIS
SCF_PRINT             1
SCF_FINAL_PRINT       1
XC_GRID               000099000590
MEM_TOTAL             20000
MEM_STATIC            4000
BLAS3_DFT             True
New_DFT               True
$End

$Molecule
0 1
C 0.0000000000 0.0000000000 0.0655663611
F 0.0000000000 0.0000000000 -1.3156284932
H 0.5149162959 -0.8918611861 0.4166873774
H 0.5149162959 0.8918611861 0.4166873774
H -1.0298325917 0.0000000000 0.4166873774
$End

--------------------------------------------------------------

    9    -138.1723501952      4.74e-09  Convergence criterion met
 Total energy in the final basis set =     -138.1723501952
    8    -138.1731630209      4.84e-09  Convergence criterion met
 Total energy in the final basis set =     -138.1731630209
    7    -138.1732517188      7.70e-10  Convergence criterion met
 Total energy in the final basis set =     -138.1732517188

             Standard Nuclear Orientation (Angstroms)
    I     Atom           X                Y                Z
 ----------------------------------------------------------------
    1      C       0.0000159117     0.0000265385     0.0439144090
    2      F      -0.0000234057    -0.0000056965    -1.3278003465
    3      H       0.5165339768    -0.8947021269     0.4279731306
    4      H       0.5165960754     0.8947240851     0.4279735089
    5      H      -1.0331225581    -0.0000428001     0.4279392981
 ----------------------------------------------------------------

    6    -138.1732525594      7.39e-09  Convergence criterion met
 Total energy in the final basis set =     -138.1732525594
 Final energy is   -138.17325255938522
 **  OPTIMIZATION CONVERGED  **

                    Orbital Energies (a.u.)
 --------------------------------------------------------------

 Alpha MOs
 -- Occupied --
-25.9620 -11.2605  -1.5533  -0.9476  -0.6705  -0.6705  -0.6214  -0.4987
 -0.4987

          Ground-State Mulliken Net Atomic Charges

     Atom                 Charge (a.u.)
  ----------------------------------------
      1 C                    -0.107364
      2 F                    -0.316156
      3 H                     0.141171
      4 H                     0.141177
      5 H                     0.141173
  ----------------------------------------
  Sum of atomic charges =     0.000000

                    Cartesian Multipole Moments
 -----------------------------------------------------------------
    Charge (ESU x 10^10)
                    -0.00000000
    Dipole Moment (Debye)
         X           0.00004518      Y           0.00000336      Z           1.96810039
       Tot           1.96810039
    Quadrupole Moments (Debye-Ang)
        XX         -11.71472147     XY           0.00015198     YY         -11.71470469
        XZ          -0.00001275     YZ          -0.00003150     ZZ         -14.67580624

 Total job time:  0.76s(wall), 2.89s(cpu)
        *  Thank you very much for using Q-Chem.  Have a nice day.  *
