 Q-Chem 5.3 (devel), Q-Chem, Inc., Pleasanton, CA (2020)
 Q-Chem 5.3.1 for Intel X86 EM64T Linux

User input:
--------------------------------------------------------------
$Comment
Geometry optimizations for CLB18.
$End

$Rem
SYMMETRY              False
SYM_IGNORE            True
JOBTYPE               TS
METHOD                HF-3c
BASIS                 MINIX
GEOM_OPT_MAX_CYCLES   150
GEOM_OPT_DMAX         10
MAX_SCF_CYCLES        50
SCF_ALGORITHM         DIIS
SCF_PRINT             1
SCF_FINAL_PRINT       1
XC_GRID               000099000590
MEM_TOTAL             20000
MEM_STATIC            4000
BLAS3_DFT             True
New_DFT               True
$End

$Molecule
0 2
Cl 1.4547504867 -0.0012369994 -0.0000400000
F -0.3235871018 0.0046310044 0.0001240000
C -2.3874200289 -0.0021469989 -0.0000730000
H -2.4950864242 -0.8553620435 -0.6494062731
H -2.4973142603 -0.1386730048 1.0631381836
H -2.5015370944 0.9862699019 -0.4137340272
$End

--------------------------------------------------------------

   19    -595.3478239463      8.65e-09  Convergence criterion met
 Total energy in the final basis set =     -595.3478239463
   10    -595.3477853289      6.15e-09  Convergence criterion met
 Total energy in the final basis set =     -595.3477853289
   10    -595.3479243519      8.52e-09  Convergence criterion met
 Total energy in the final basis set =     -595.3479243519
   10    -595.3479913524      6.99e-09  Convergence criterion met
 Total energy in the final basis set =     -595.3479913524
   10    -595.3480693086      6.90e-09  Convergence criterion met
 Total energy in the final basis set =     -595.3480693086
   10    -595.3481417216      7.22e-09  Convergence criterion met
 Total energy in the final basis set =     -595.3481417216
   10    -595.3482094385      8.02e-09  Convergence criterion met
 Total energy in the final basis set =     -595.3482094385
   10    -595.3482719374      9.28e-09  Convergence criterion met
 **  OPTIMIZATION CONVERGED  **
 Total job time:  16.28s(wall), 50.04s(cpu)
        *  Thank you very much for using Q-Chem.  Have a nice day.  *

User input: 2 of 2

                  Welcome to Q-Chem
     A Quantum Leap Into The Future Of Chemistry

 Q-Chem 5.3 (devel), Q-Chem, Inc., Pleasanton, CA (2020)

 Yihan Shao,  Zhengting Gan,  E. Epifanovsky,  A. T. B. Gilbert,  M. Wormit,
 J. Kussmann,  A. W. Lange,  A. Behn,  Jia Deng,  Xintian Feng,  D. Ghosh,
 M. Goldey,  P. R. Horn,  L. D. Jacobson,  I. Kaliman,  T. Kus,  A. Landau,
 Jie Liu,  E. I. Proynov,  R. M. Richard,  R. P. Steele,  E. J. Sundstrom,
 H. L. Woodcock III,  P. M. Zimmerman,  D. Zuev,  B. Alam,  B. Albrecht,
 A. Aldossary,  E. Alguire,  S. A. Baeppler,  D. Barton,  Z. Benda,
 Y. A. Bernard,  E. J. Berquist,  K. B. Bravaya,  H. Burton,  K. Carter-Fenk,
 D. Casanova,  Chun-Min Chang,  Yunqing Chen,  A. Chien,  K. D. Closser,
 M. P. Coons,  S. Coriani,  S. Dasgupta,  A. L. Dempwolff,  M. Diedenhofen,
 Hainam Do,  R. G. Edgar,  Po-Tung Fang,  S. Faraji,  S. Fatehi,
 Qingguo Feng,  J. Fosso-Tande,  J. Gayvert,  Qinghui Ge,  A. Ghysels,
 G. Gidofalvi,  J. Gomes,  J. Gonthier,  S. Gulania,  A. Gunina,  D. Hait,
 M. W. D. Hanson-Heine,  S. Hammes-Schiffer,  P. H. P. Harbach,
 A. W. Hauser,  M. F. Herbst,  J. E. Herr,  E. G. Hohenstein,  Z. C. Holden,
 S. Houck,  Kerwin Hui,  B. C. Huynh,  M. Ivanov,  T.-C. Jagau,  Hyunjun Ji,
 B. Kaduk,  K. Khistyaev,  Jaehoon Kim,  P. Klunzinger,  K. Koh,
 D. Kosenkov,  L. Koulias,  T. Kowalczyk,  C. M. Krauter,  A. Kunitsa,
 Ka Un Lao,  A. Laurent,  K. V. Lawler,  Joonho Lee,  D. Lefrancois,
 S. Lehtola,  D. S. Levine,  Yi-Pei Li,  You-Sheng Lin,  Fenglai Liu,
 Kuan-Yu Liu,  E. Livshits,  M. Loipersberger,  A. Luenser,  P. Manohar,
 E. Mansoor,  S. F. Manzer,  Shan-Ping Mao,  Yuezhi Mao,  N. Mardirossian,
 A. V. Marenich,  T. Markovich,  L. A. Martinez-Martinez,  S. A. Maurer,
 N. J. Mayhall,  S. C. McKenzie,  J.-M. Mewes,  P. Morgante,  A. F. Morrison,
 J. W. Mullinax,  K. Nanda,  T. S. Nguyen-Beck,  R. Olivares-Amaya,
 K. J. Oosterbaan,  J. A. Parkhill,  S. K. Paul,  F. Pavosevic,  Zheng Pei,
 T. M. Perrine,  F. Plasser,  P. Pokhilko,  S. Prager,  A. Prociuk,
 E. Ramos,  B. Rana,  D. R. Rehn,  F. Rob,  E. Rossomme,  M. Scheurer,
 M. Schneider,  N. Sergueev,  S. M. Sharada,  S. Sharma,  W. Skomorowski,
 D. W. Small,  T. Stauch,  C. J. Stein,  T. Stein,  Yu-Chuan Su,
 S. P. Veccham,  Zhen Tao,  A. J. W. Thom,  A. Tkatchenko,  T. Tsuchimochi,
 N. M. Tubman,  L. Vogt,  M. L. Vidal,  O. Vydrov,  M. A. Watson,  J. Wenzel,
 M. de Wergifosse,  T. A. Wesolowski,  A. White,  J. Witte,  A. Yamada,
 Jun Yang,  K. Yao,  S. Yeganeh,  S. R. Yost,  Zhi-Qiang You,  A. Zech,
 Igor Ying Zhang,  Xing Zhang,  Yan Zhao,  Ying Zhu,  B. R. Brooks,
 G. K. L. Chan,  C. J. Cramer,  M. S. Gordon,  W. J. Hehre,  A. Klamt,
 M. W. Schmidt,  C. D. Sherrill,  D. G. Truhlar,  A. Aspuru-Guzik,  R. Baer,
 A. T. Bell,  N. A. Besley,  Jeng-Da Chai,  A. E. DePrince, III,
 R. A. DiStasio Jr.,  A. Dreuw,  B. D. Dunietz,  T. R. Furlani,
 Chao-Ping Hsu,  Yousung Jung,  Jing Kong,  D. S. Lambrecht,  WanZhen Liang,
 C. Ochsenfeld,  V. A. Rassolov,  L. V. Slipchenko,  J. E. Subotnik,
 T. Van Voorhis,  J. M. Herbert,  A. I. Krylov,  P. M. W. Gill,  M. Head-Gordon

 Contributors to earlier versions of Q-Chem not listed above:
 R. D. Adamson,  B. Austin,  J. Baker,  G. J. O. Beran,  K. Brandhorst,
 S. T. Brown,  E. F. C. Byrd,  A. K. Chakraborty,  C.-L. Cheng,
 Siu Hung Chien,  D. M. Chipman,  D. L. Crittenden,  H. Dachsel,
 R. J. Doerksen,  A. D. Dutoi,  L. Fusti-Molnar,  W. A. Goddard III,
 A. Golubeva-Zadorozhnaya,  S. R. Gwaltney,  G. Hawkins,  A. Heyden,
 S. Hirata,  G. Kedziora,  F. J. Keil,  C. Kelley,  Jihan Kim,  R. A. King,
 R. Z. Khaliullin,  P. P. Korambath,  W. Kurlancheek,  A. M. Lee,  M. S. Lee,
 S. V. Levchenko,  Ching Yeh Lin,  D. Liotard,  R. C. Lochan,  I. Lotan,
 P. E. Maslen,  N. Nair,  D. P. O'Neill,  D. Neuhauser,  E. Neuscamman,
 C. M. Oana,  R. Olson,  B. Peters,  R. Peverati,  P. A. Pieniazek,
 Y. M. Rhee,  J. Ritchie,  M. A. Rohrdanz,  E. Rosta,  N. J. Russ,
 H. F. Schaefer III,  N. E. Schultz,  N. Shenvi,  A. C. Simmonett,  A. Sodt,
 D. Stuck,  K. S. Thanthiriwatte,  V. Vanovschi,  Tao Wang,  A. Warshel,
 C. F. Williams,  Q. Wu,  X. Xu,  W. Zhang

 Please cite Q-Chem as follows:
 Y. Shao et al., Mol. Phys. 113, 184-215 (2015)
 DOI: 10.1080/00268976.2014.952696

 Q-Chem 5.3.1 for Intel X86 EM64T Linux

 Parts of Q-Chem use Armadillo 9.800.1 (Horizon Scraper).
 http://arma.sourceforge.net/

 Q-Chem begins on Fri Oct 30 10:18:30 2020

Host:
0

     Scratch files written to /data/scratch/MN_21_ch3fclts_BH76_HF_3c//
Processing $rem in /home/pierpa/qchem53/config/preferences:
Processing $rem in /home/pierpa/.qchemrc:
The previous job contains 0 fragments, simply inherited here

!!********************************************.
!!******************Warning*******************.
!!Desired Analytical derivatives not available.
!!Finite difference job might take a long time.
!!********************************************.
!!********************************************.

 2-order derivative to be evaluated numerically with 1-order analytical derivatives

Checking the input file for inconsistencies... 	...done.

--------------------------------------------------------------
User input:
--------------------------------------------------------------

$Comment
Geometry optimizations for CLB18.
$End

$Rem
SYMMETRY              False
SYM_IGNORE            True
JOBTYPE               Freq
METHOD                HF-3c
BASIS                 MINIX
GEOM_OPT_MAX_CYCLES   150
GEOM_OPT_DMAX         10
MAX_SCF_CYCLES        50
SCF_ALGORITHM         DIIS
SCF_PRINT             1
SCF_FINAL_PRINT       1
XC_GRID               000099000590
MEM_TOTAL             20000
MEM_STATIC            4000
BLAS3_DFT             True
New_DFT               True
$End

$Molecule
Read
$End

--------------------------------------------------------------

 Total energy in the final basis set =     -595.3486365430
    7    -595.3486365568      7.03e-09  Convergence criterion met
 Total energy in the final basis set =     -595.3486365568
    9    -595.3486373405      8.79e-09  Convergence criterion met
 Total energy in the final basis set =     -595.3486373405
   10    -595.3486373244      5.12e-09  Convergence criterion met
 Total energy in the final basis set =     -595.3486373244
    9    -595.3486366409      8.48e-09  Convergence criterion met
 Total energy in the final basis set =     -595.3486366409
    7    -595.3486366540      7.76e-09  Convergence criterion met
 Total energy in the final basis set =     -595.3486366540
    6    -595.3486371636      7.76e-09  Convergence criterion met
 Total energy in the final basis set =     -595.3486371636
    7    -595.3486371572      4.47e-09  Convergence criterion met
 Total energy in the final basis set =     -595.3486371572

                    Orbital Energies (a.u.)
 --------------------------------------------------------------

 Alpha MOs
 -- Occupied --
******** -26.0916 -11.1497 -10.5627  -8.0085  -7.9895  -7.9895  -1.5419
 -1.1008  -0.9513  -0.6648  -0.6648  -0.5864  -0.5774  -0.5772  -0.4744
 -0.4744  -0.3876

 Beta MOs
 -- Occupied --
******** -26.1103 -11.1179 -10.5565  -7.9867  -7.9867  -7.9779  -1.6172
 -1.0505  -0.8629  -0.6923  -0.6817  -0.6817  -0.5627  -0.5625  -0.4661
 -0.4661

          Ground-State Mulliken Net Atomic Charges

     Atom                 Charge (a.u.)    Spin (a.u.)
  --------------------------------------------------------
      1 Cl                    0.053830       0.625099
      2 F                    -0.104294      -0.545224
      3 C                    -0.328794       1.134370
      4 H                     0.126379      -0.071398
      5 H                     0.126445      -0.071407
      6 H                     0.126434      -0.071439
  --------------------------------------------------------
  Sum of atomic charges =     0.000000

                    Cartesian Multipole Moments
 -----------------------------------------------------------------
    Charge (ESU x 10^10)
                 0.0000
    Dipole Moment (Debye)
         X      -0.7055      Y      -0.0012      Z      -0.0003
       Tot       0.7055
    Quadrupole Moments (Debye-Ang)
        XX     -20.9542     XY       0.0007     YY     -24.7176
        XZ       0.0008     YZ      -0.0013     ZZ     -24.7165

             Standard Nuclear Orientation (Angstroms)
    I     Atom           X                Y                Z
 ----------------------------------------------------------------
    1      Cl      1.5519859085     0.0012994093    -0.0000636519
    2      F      -0.2480248883     0.0016179395     0.0000214622
    3      C      -2.3982807358    -0.0021388289     0.0000136924
    4      H      -2.5503235751    -0.8556528866    -0.6498129296
    5      H      -2.5517067496    -0.1385876474     1.0638377648
    6      H      -2.5538443826     0.9869438737    -0.4139874546
 ----------------------------------------------------------------

 Frequency:      -597.90                 122.45                 122.49
 Force Cnst:      4.0718                 0.0629                 0.0629
 Red. Mass:      19.3318                 7.1166                 7.1173
 IR Intens:      178.910                  0.660                  0.660
 Frequency:       171.82                 456.92                 457.07
 Force Cnst:      0.1046                 0.1342                 0.1343
 Red. Mass:       6.0112                 1.0912                 1.0913
 IR Intens:        5.576                  0.613                  0.612
 Frequency:       859.79                1599.18                1599.18
 Force Cnst:      0.5095                 1.6486                 1.6486
 Red. Mass:       1.1699                 1.0941                 1.0941
 IR Intens:       48.206                  3.054                  3.054
 Frequency:      3516.79                3747.39                3747.39
 Force Cnst:      7.3664                 9.2654                 9.2654
 Red. Mass:       1.0109                 1.1198                 1.1198
 IR Intens:       54.408                 42.977                 42.973

 STANDARD THERMODYNAMIC QUANTITIES AT   298.15 K  AND     1.00 ATM

   This Molecule has  1 Imaginary Frequencies
   Zero point vibrational energy:       23.446 kcal/mol

   Atom    1 Element Cl Has Mass   34.96885
   Atom    2 Element F  Has Mass   18.99840
   Atom    3 Element C  Has Mass   12.00000
   Atom    4 Element H  Has Mass    1.00783
   Atom    5 Element H  Has Mass    1.00783
   Atom    6 Element H  Has Mass    1.00783
   Molecular Mass:    68.990740 amu
   Principal axes and moments of inertia in amu*Bohr^2:
                             1           2           3
    Eigenvalues --       12.41964   619.12807   619.12824
          X               1.00000    -0.00078    -0.00000
          Y               0.00078     0.99949     0.03187
          Z              -0.00002    -0.03187     0.99949
   Rotational Symmetry Number is   1
   The Molecule is an Asymmetric Top
   Translational Enthalpy:        0.889 kcal/mol
   Rotational Enthalpy:           0.889 kcal/mol
   Vibrational Enthalpy:         25.062 kcal/mol
   gas constant (RT):             0.592 kcal/mol
   Translational Entropy:        38.611  cal/mol.K
   Rotational Entropy:           23.080  cal/mol.K
   Vibrational Entropy:          10.267  cal/mol.K

   Total Enthalpy:               27.432 kcal/mol
   Total Entropy:                71.958  cal/mol.K

 Total job time:  26.18s(wall), 83.87s(cpu)
        *  Thank you very much for using Q-Chem.  Have a nice day.  *
