 Q-Chem 5.3 (devel), Q-Chem, Inc., Pleasanton, CA (2020)
 Q-Chem 5.3.1 for Intel X86 EM64T Linux

User input:
--------------------------------------------------------------
$Comment
Geometry optimizations for CLB18.
$End

$Rem
SYMMETRY              False
SYM_IGNORE            True
JOBTYPE               TS
METHOD                HF-3c
BASIS                 MINIX
GEOM_OPT_MAX_CYCLES   150
GEOM_OPT_DMAX         10
MAX_SCF_CYCLES        50
SCF_ALGORITHM         DIIS
SCF_PRINT             1
SCF_FINAL_PRINT       1
XC_GRID               000099000590
MEM_TOTAL             20000
MEM_STATIC            4000
BLAS3_DFT             True
New_DFT               True
$End

$Molecule
-1 1
F 1.8236505039 0.0002219999 0.0000770000
C 0.0002360003 -0.0003870000 -0.0002140003
H 0.0001559999 -0.3051860227 1.0250374244
H 0.0003789999 1.0398808452 -0.2489641191
H -0.0000030000 -0.7365564679 -0.7762077163
F -1.8238674665 0.0002430003 0.0000810001
$End

--------------------------------------------------------------

   10    -236.7899873783      7.93e-10  Convergence criterion met
 Total energy in the final basis set =     -236.7899873783
    8    -236.7897796060      4.50e-09  Convergence criterion met
 Total energy in the final basis set =     -236.7897796060
    8    -236.7896245329      5.88e-09  Convergence criterion met
 Total energy in the final basis set =     -236.7896245329
    8    -236.7894875833      5.38e-09  Convergence criterion met
 Total energy in the final basis set =     -236.7894875833
    8    -236.7893747395      5.45e-09  Convergence criterion met
 Total energy in the final basis set =     -236.7893747395
    8    -236.7892797104      5.36e-09  Convergence criterion met
 Total energy in the final basis set =     -236.7892797104
    8    -236.7892024927      5.22e-09  Convergence criterion met
 Total energy in the final basis set =     -236.7892024927
    8    -236.7891490473      4.60e-09  Convergence criterion met

User input: 2 of 2

                  Welcome to Q-Chem
     A Quantum Leap Into The Future Of Chemistry

 Q-Chem 5.3 (devel), Q-Chem, Inc., Pleasanton, CA (2020)

 Yihan Shao,  Zhengting Gan,  E. Epifanovsky,  A. T. B. Gilbert,  M. Wormit,
 J. Kussmann,  A. W. Lange,  A. Behn,  Jia Deng,  Xintian Feng,  D. Ghosh,
 M. Goldey,  P. R. Horn,  L. D. Jacobson,  I. Kaliman,  T. Kus,  A. Landau,
 Jie Liu,  E. I. Proynov,  R. M. Richard,  R. P. Steele,  E. J. Sundstrom,
 H. L. Woodcock III,  P. M. Zimmerman,  D. Zuev,  B. Alam,  B. Albrecht,
 A. Aldossary,  E. Alguire,  S. A. Baeppler,  D. Barton,  Z. Benda,
 Y. A. Bernard,  E. J. Berquist,  K. B. Bravaya,  H. Burton,  K. Carter-Fenk,
 D. Casanova,  Chun-Min Chang,  Yunqing Chen,  A. Chien,  K. D. Closser,
 M. P. Coons,  S. Coriani,  S. Dasgupta,  A. L. Dempwolff,  M. Diedenhofen,
 Hainam Do,  R. G. Edgar,  Po-Tung Fang,  S. Faraji,  S. Fatehi,
 Qingguo Feng,  J. Fosso-Tande,  J. Gayvert,  Qinghui Ge,  A. Ghysels,
 G. Gidofalvi,  J. Gomes,  J. Gonthier,  S. Gulania,  A. Gunina,  D. Hait,
 M. W. D. Hanson-Heine,  S. Hammes-Schiffer,  P. H. P. Harbach,
 A. W. Hauser,  M. F. Herbst,  J. E. Herr,  E. G. Hohenstein,  Z. C. Holden,
 S. Houck,  Kerwin Hui,  B. C. Huynh,  M. Ivanov,  T.-C. Jagau,  Hyunjun Ji,
 B. Kaduk,  K. Khistyaev,  Jaehoon Kim,  P. Klunzinger,  K. Koh,
 D. Kosenkov,  L. Koulias,  T. Kowalczyk,  C. M. Krauter,  A. Kunitsa,
 Ka Un Lao,  A. Laurent,  K. V. Lawler,  Joonho Lee,  D. Lefrancois,
 S. Lehtola,  D. S. Levine,  Yi-Pei Li,  You-Sheng Lin,  Fenglai Liu,
 Kuan-Yu Liu,  E. Livshits,  M. Loipersberger,  A. Luenser,  P. Manohar,
 E. Mansoor,  S. F. Manzer,  Shan-Ping Mao,  Yuezhi Mao,  N. Mardirossian,
 A. V. Marenich,  T. Markovich,  L. A. Martinez-Martinez,  S. A. Maurer,
 N. J. Mayhall,  S. C. McKenzie,  J.-M. Mewes,  P. Morgante,  A. F. Morrison,
 J. W. Mullinax,  K. Nanda,  T. S. Nguyen-Beck,  R. Olivares-Amaya,
 K. J. Oosterbaan,  J. A. Parkhill,  S. K. Paul,  F. Pavosevic,  Zheng Pei,
 T. M. Perrine,  F. Plasser,  P. Pokhilko,  S. Prager,  A. Prociuk,
 E. Ramos,  B. Rana,  D. R. Rehn,  F. Rob,  E. Rossomme,  M. Scheurer,
 M. Schneider,  N. Sergueev,  S. M. Sharada,  S. Sharma,  W. Skomorowski,
 D. W. Small,  T. Stauch,  C. J. Stein,  T. Stein,  Yu-Chuan Su,
 S. P. Veccham,  Zhen Tao,  A. J. W. Thom,  A. Tkatchenko,  T. Tsuchimochi,
 N. M. Tubman,  L. Vogt,  M. L. Vidal,  O. Vydrov,  M. A. Watson,  J. Wenzel,
 M. de Wergifosse,  T. A. Wesolowski,  A. White,  J. Witte,  A. Yamada,
 Jun Yang,  K. Yao,  S. Yeganeh,  S. R. Yost,  Zhi-Qiang You,  A. Zech,
 Igor Ying Zhang,  Xing Zhang,  Yan Zhao,  Ying Zhu,  B. R. Brooks,
 G. K. L. Chan,  C. J. Cramer,  M. S. Gordon,  W. J. Hehre,  A. Klamt,
 M. W. Schmidt,  C. D. Sherrill,  D. G. Truhlar,  A. Aspuru-Guzik,  R. Baer,
 A. T. Bell,  N. A. Besley,  Jeng-Da Chai,  A. E. DePrince, III,
 R. A. DiStasio Jr.,  A. Dreuw,  B. D. Dunietz,  T. R. Furlani,
 Chao-Ping Hsu,  Yousung Jung,  Jing Kong,  D. S. Lambrecht,  WanZhen Liang,
 C. Ochsenfeld,  V. A. Rassolov,  L. V. Slipchenko,  J. E. Subotnik,
 T. Van Voorhis,  J. M. Herbert,  A. I. Krylov,  P. M. W. Gill,  M. Head-Gordon

 Contributors to earlier versions of Q-Chem not listed above:
 R. D. Adamson,  B. Austin,  J. Baker,  G. J. O. Beran,  K. Brandhorst,
 S. T. Brown,  E. F. C. Byrd,  A. K. Chakraborty,  C.-L. Cheng,
 Siu Hung Chien,  D. M. Chipman,  D. L. Crittenden,  H. Dachsel,
 R. J. Doerksen,  A. D. Dutoi,  L. Fusti-Molnar,  W. A. Goddard III,
 A. Golubeva-Zadorozhnaya,  S. R. Gwaltney,  G. Hawkins,  A. Heyden,
 S. Hirata,  G. Kedziora,  F. J. Keil,  C. Kelley,  Jihan Kim,  R. A. King,
 R. Z. Khaliullin,  P. P. Korambath,  W. Kurlancheek,  A. M. Lee,  M. S. Lee,
 S. V. Levchenko,  Ching Yeh Lin,  D. Liotard,  R. C. Lochan,  I. Lotan,
 P. E. Maslen,  N. Nair,  D. P. O'Neill,  D. Neuhauser,  E. Neuscamman,
 C. M. Oana,  R. Olson,  B. Peters,  R. Peverati,  P. A. Pieniazek,
 Y. M. Rhee,  J. Ritchie,  M. A. Rohrdanz,  E. Rosta,  N. J. Russ,
 H. F. Schaefer III,  N. E. Schultz,  N. Shenvi,  A. C. Simmonett,  A. Sodt,
 D. Stuck,  K. S. Thanthiriwatte,  V. Vanovschi,  Tao Wang,  A. Warshel,
 C. F. Williams,  Q. Wu,  X. Xu,  W. Zhang

 Please cite Q-Chem as follows:
 Y. Shao et al., Mol. Phys. 113, 184-215 (2015)
 DOI: 10.1080/00268976.2014.952696

 Q-Chem 5.3.1 for Intel X86 EM64T Linux

 Parts of Q-Chem use Armadillo 9.800.1 (Horizon Scraper).
 http://arma.sourceforge.net/

 Q-Chem begins on Fri Oct 30 10:20:56 2020

Host:
0

     Scratch files written to /data/scratch/MN_39_fch3fts_BH76_HF_3c//
Processing $rem in /home/pierpa/qchem53/config/preferences:
Processing $rem in /home/pierpa/.qchemrc:
The previous job contains 0 fragments, simply inherited here

!!********************************************.
!!******************Warning*******************.
!!Desired Analytical derivatives not available.
!!Finite difference job might take a long time.
!!********************************************.
!!********************************************.

 2-order derivative to be evaluated numerically with 1-order analytical derivatives

Checking the input file for inconsistencies... 	...done.

--------------------------------------------------------------
User input:
--------------------------------------------------------------

$Comment
Geometry optimizations for CLB18.
$End

$Rem
SYMMETRY              False
SYM_IGNORE            True
JOBTYPE               Freq
METHOD                HF-3c
BASIS                 MINIX
GEOM_OPT_MAX_CYCLES   150
GEOM_OPT_DMAX         10
MAX_SCF_CYCLES        50
SCF_ALGORITHM         DIIS
SCF_PRINT             1
SCF_FINAL_PRINT       1
XC_GRID               000099000590
MEM_TOTAL             20000
MEM_STATIC            4000
BLAS3_DFT             True
New_DFT               True
$End

$Molecule
Read
$End

--------------------------------------------------------------

 Total energy in the final basis set =     -236.7959224726
    6    -236.7959246699      9.19e-09  Convergence criterion met
 Total energy in the final basis set =     -236.7959246699
    6    -236.7959184837      6.09e-09  Convergence criterion met
 Total energy in the final basis set =     -236.7959184837
    6    -236.7959292409      8.98e-09  Convergence criterion met
 Total energy in the final basis set =     -236.7959292409
    7    -236.7959179677      1.74e-09  Convergence criterion met
 Total energy in the final basis set =     -236.7959179677
    7    -236.7959299888      1.50e-09  Convergence criterion met
 Total energy in the final basis set =     -236.7959299888
    6    -236.7959236542      6.52e-09  Convergence criterion met
 Total energy in the final basis set =     -236.7959236542
    6    -236.7959243034      3.56e-09  Convergence criterion met
 Total energy in the final basis set =     -236.7959243034

                    Orbital Energies (a.u.)
 --------------------------------------------------------------

 Alpha MOs
 -- Occupied --
-25.5552 -25.1081 -11.0031  -1.2131  -0.9053  -0.6724  -0.3976  -0.3921
 -0.2929  -0.2351  -0.2332   0.0153   0.0156   0.0520

          Ground-State Mulliken Net Atomic Charges

     Atom                 Charge (a.u.)
  ----------------------------------------
      1 F                    -0.475679
      2 C                    -0.072437
      3 H                     0.115039
      4 H                     0.122918
      5 H                     0.113798
      6 F                    -0.803640
  ----------------------------------------
  Sum of atomic charges =    -1.000000

                    Cartesian Multipole Moments
 -----------------------------------------------------------------
    Charge (ESU x 10^10)
                -4.8032
    Dipole Moment (Debye)
         X       3.3793      Y      -0.2449      Z      -0.0212
       Tot       3.3882
    Quadrupole Moments (Debye-Ang)
        XX     -36.7493     XY       0.2172     YY     -16.6420
        XZ      -0.0094     YZ      -0.0289     ZZ     -16.7523

             Standard Nuclear Orientation (Angstroms)
    I     Atom           X                Y                Z
 ----------------------------------------------------------------
    1      F       1.7037753500     0.0243061376     0.0057736495
    2      C       0.1773679710    -0.0047294925    -0.0041654300
    3      H      -0.0085218142    -0.3404431426     1.0205556949
    4      H      -0.0446137416     1.0397712276    -0.2550748156
    5      H      -0.0080760112    -0.7692001690    -0.7687963955
    6      F      -1.8193807165     0.0485117937     0.0015168855
 ----------------------------------------------------------------

 Frequency:      -101.25                 420.03                 434.30
 Force Cnst:      0.0747                 0.3913                 0.4335
 Red. Mass:      12.3751                 3.7647                 3.9004
 IR Intens:      556.756                 23.647                 24.554
 Frequency:       664.20                1385.50                1395.72
 Force Cnst:      3.8617                 1.2211                 1.2465
 Red. Mass:      14.8569                 1.0797                 1.0861
 IR Intens:      293.452                  9.291                  6.077
 Frequency:      1461.60                1502.51                1543.20
 Force Cnst:      1.3536                 1.4616                 1.5357
 Red. Mass:       1.0755                 1.0988                 1.0945
 IR Intens:        8.185                  7.377                  7.088
 Frequency:      3417.98                3632.90                3647.96
 Force Cnst:      6.9921                 8.7325                 8.8138
 Red. Mass:       1.0158                 1.1230                 1.1241
 IR Intens:        1.349                 10.060                 11.009

 STANDARD THERMODYNAMIC QUANTITIES AT   298.15 K  AND     1.00 ATM

   This Molecule has  1 Imaginary Frequencies
   Zero point vibrational energy:       27.885 kcal/mol

   Atom    1 Element F  Has Mass   18.99840
   Atom    2 Element C  Has Mass   12.00000
   Atom    3 Element H  Has Mass    1.00783
   Atom    4 Element H  Has Mass    1.00783
   Atom    5 Element H  Has Mass    1.00783
   Atom    6 Element F  Has Mass   18.99840
   Molecular Mass:    53.020290 amu
   Principal axes and moments of inertia in amu*Bohr^2:
                             1           2           3
    Eigenvalues --       12.61720   429.00135   429.41530
          X               0.99997     0.00810     0.00013
          Y              -0.00802     0.98738     0.15819
          Z               0.00116    -0.15819     0.98741
   Rotational Symmetry Number is   1
   The Molecule is an Asymmetric Top
   Translational Enthalpy:        0.889 kcal/mol
   Rotational Enthalpy:           0.889 kcal/mol
   Vibrational Enthalpy:         28.341 kcal/mol
   gas constant (RT):             0.592 kcal/mol
   Translational Entropy:        37.827  cal/mol.K
   Rotational Entropy:           22.368  cal/mol.K
   Vibrational Entropy:           2.161  cal/mol.K

   Total Enthalpy:               30.711 kcal/mol
   Total Entropy:                62.355  cal/mol.K

 Total job time:  5.98s(wall), 13.31s(cpu)
        *  Thank you very much for using Q-Chem.  Have a nice day.  *
