 Q-Chem 5.3 (devel), Q-Chem, Inc., Pleasanton, CA (2020)
 Q-Chem 5.3.0 for Intel X86 EM64T Linux

User input:
--------------------------------------------------------------
$Comment
Geometry optimizations for CLB18.
$End

$Rem
SYMMETRY              False
SYM_IGNORE            True
JOBTYPE               Opt
METHOD                HF-3c
BASIS                 MINIX
MAX_SCF_CYCLES        50
SCF_ALGORITHM         DIIS
SCF_PRINT             1
SCF_FINAL_PRINT       1
XC_GRID               000099000590
MEM_TOTAL             20000
MEM_STATIC            4000
BLAS3_DFT             True
New_DFT               True
$End

$Molecule
-1 1
F 0.0000000000 0.0000000000 -1.8899361232
C 0.0000000000 0.0000000000 -0.4815627273
H -0.5123599590 0.8874334808 -0.1278024701
H -0.5123599590 -0.8874334808 -0.1278024701
H 1.0247199181 0.0000000000 -0.1278024701
Cl 0.0000000000 0.0000000000 2.7549062610
$End

--------------------------------------------------------------

   10    -595.4786112421      9.05e-10  Convergence criterion met
 Total energy in the final basis set =     -595.4786112421
    7    -595.4798850656      7.14e-09  Convergence criterion met
 Total energy in the final basis set =     -595.4798850656
    7    -595.4801748698      5.51e-09  Convergence criterion met
 Total energy in the final basis set =     -595.4801748698
    7    -595.4803289865      7.41e-09  Convergence criterion met
 Total energy in the final basis set =     -595.4803289865
    7    -595.4803761473      3.40e-09  Convergence criterion met
 Total energy in the final basis set =     -595.4803761473
    7    -595.4804528270      8.97e-09  Convergence criterion met
 Total energy in the final basis set =     -595.4804528270
    7    -595.4804627868      4.67e-09  Convergence criterion met
 Total energy in the final basis set =     -595.4804627868

             Standard Nuclear Orientation (Angstroms)
    I     Atom           X                Y                Z
 ----------------------------------------------------------------
    1      F      -0.0003566217    -0.0002294843    -1.9224141215
    2      C       0.0000927005     0.0000762241    -0.5401311625
    3      H      -0.5141057909     0.8909327840    -0.1478544538
    4      H      -0.5140463718    -0.8906302412    -0.1474653333
    5      H       1.0288159769     0.0000998081    -0.1482089689
    6      Cl     -0.0003998929    -0.0002490909     2.9060740403
 ----------------------------------------------------------------

    6    -595.4804631080      5.36e-09  Convergence criterion met
 Total energy in the final basis set =     -595.4804631080
 Final energy is   -595.48046310799498
 **  OPTIMIZATION CONVERGED  **

                    Orbital Energies (a.u.)
 --------------------------------------------------------------

 Alpha MOs
 -- Occupied --
******** -25.8137 -11.1063  -9.8872  -7.3139  -7.3138  -7.3138  -1.4160
 -0.7948  -0.6023  -0.5269  -0.5269  -0.4795  -0.3564  -0.3564  -0.0366
 -0.0362  -0.0362

          Ground-State Mulliken Net Atomic Charges

     Atom                 Charge (a.u.)
  ----------------------------------------
      1 F                    -0.348160
      2 C                    -0.111280
      3 H                     0.152151
      4 H                     0.152183
      5 H                     0.152117
      6 Cl                   -0.997013
  ----------------------------------------
  Sum of atomic charges =    -1.000000

                    Cartesian Multipole Moments
 -----------------------------------------------------------------
    Charge (ESU x 10^10)
                    -4.80320440
    Dipole Moment (Debye)
         X           0.00246890      Y           0.00154625      Z         -11.56579470
       Tot          11.56579507
    Quadrupole Moments (Debye-Ang)
        XX         -25.76540801     XY          -0.00008353     YY         -25.76523858
        XZ           0.00422005     YZ           0.00260302     ZZ         -72.15054232

 Total job time:  3.48s(wall), 13.95s(cpu)
        *  Thank you very much for using Q-Chem.  Have a nice day.  *
