 Q-Chem 5.3 (devel), Q-Chem, Inc., Pleasanton, CA (2020)
 Q-Chem 5.3.0 for Intel X86 EM64T Linux

User input:
--------------------------------------------------------------
$Comment
Geometry optimizations for CLB18.
$End

$Rem
SYMMETRY              False
SYM_IGNORE            True
JOBTYPE               Opt
METHOD                HF-3c
BASIS                 MINIX
MAX_SCF_CYCLES        50
SCF_ALGORITHM         DIIS
SCF_PRINT             1
SCF_FINAL_PRINT       1
XC_GRID               000099000590
MEM_TOTAL             20000
MEM_STATIC            4000
BLAS3_DFT             True
New_DFT               True
$End

$Molecule
0 1
F 0.0000000000 0.0000000000 0.6976037335
F 0.0000000000 0.0000000000 -0.6976037335
$End

--------------------------------------------------------------

    6    -197.5688473951      4.46e-10  Convergence criterion met
 Total energy in the final basis set =     -197.5688473951
    5    -197.5901557071      1.29e-11  Convergence criterion met
 Total energy in the final basis set =     -197.5901557071
    4    -197.5902154717      1.85e-10  Convergence criterion met
 Total energy in the final basis set =     -197.5902154717

             Standard Nuclear Orientation (Angstroms)
    I     Atom           X                Y                Z
 ----------------------------------------------------------------
    1      F       0.0000000000     0.0000000000     0.6285635293
    2      F       0.0000000000     0.0000000000    -0.6285635293
 ----------------------------------------------------------------

    4    -197.5902348861      1.97e-11  Convergence criterion met
 Total energy in the final basis set =     -197.5902348861
 Final energy is   -197.59023488614261
 **  OPTIMIZATION CONVERGED  **

                    Orbital Energies (a.u.)
 --------------------------------------------------------------

 Alpha MOs
 -- Occupied --
-26.2112 -26.2046  -1.8638  -1.4374  -0.8283  -0.8283  -0.7658  -0.6040
 -0.6040

          Ground-State Mulliken Net Atomic Charges

     Atom                 Charge (a.u.)
  ----------------------------------------
      1 F                    -0.000000
      2 F                     0.000000
  ----------------------------------------
  Sum of atomic charges =     0.000000

                    Cartesian Multipole Moments
 -----------------------------------------------------------------
    Charge (ESU x 10^10)
                     0.00000000
    Dipole Moment (Debye)
         X          -0.00000000      Y           0.00000000      Z          -0.00000000
       Tot           0.00000000
    Quadrupole Moments (Debye-Ang)
        XX          -8.94864181     XY           0.00000000     YY          -8.94864181
        XZ           0.00000000     YZ          -0.00000000     ZZ          -9.04366021

 Total job time:  0.54s(wall), 2.08s(cpu)
        *  Thank you very much for using Q-Chem.  Have a nice day.  *
