 Q-Chem 5.3 (devel), Q-Chem, Inc., Pleasanton, CA (2020)
 Q-Chem 5.3.0 for Intel X86 EM64T Linux

User input:
--------------------------------------------------------------
$Comment
Geometry optimizations for CLB18.
$End

$Rem
SYMMETRY              False
SYM_IGNORE            True
JOBTYPE               Opt
METHOD                HF-3c
BASIS                 MINIX
MAX_SCF_CYCLES        50
SCF_ALGORITHM         DIIS
SCF_PRINT             1
SCF_FINAL_PRINT       1
XC_GRID               000099000590
MEM_TOTAL             20000
MEM_STATIC            4000
BLAS3_DFT             True
New_DFT               True
$End

$Molecule
-1 1
Cl 0.0000000000 0.0000000000 2.1229641588
C 0.0000000000 0.0000000000 0.2724658492
H -0.5131616625 -0.8888220720 -0.0553144529
H -0.5131616625 0.8888220720 -0.0553144529
H 1.0263233250 0.0000000000 -0.0553144529
F 0.0000000000 0.0000000000 -2.2294866494
$End

--------------------------------------------------------------

   10    -595.2964882427      8.98e-09  Convergence criterion met
 Total energy in the final basis set =     -595.2964882427
    9    -595.3032058208      1.56e-09  Convergence criterion met
 Total energy in the final basis set =     -595.3032058208
    9    -595.3092483485      1.79e-09  Convergence criterion met
 Total energy in the final basis set =     -595.3092483485
    8    -595.3161631064      8.25e-09  Convergence criterion met
 Total energy in the final basis set =     -595.3161631064
    9    -595.3164284393      5.13e-09  Convergence criterion met
 Total energy in the final basis set =     -595.3164284393
    9    -595.3268684723      2.66e-09  Convergence criterion met
 Total energy in the final basis set =     -595.3268684723
    9    -595.3273118472      3.62e-09  Convergence criterion met
 Total energy in the final basis set =     -595.3273118472
    9    -595.3424542218      1.78e-09  Convergence criterion met
    8    -595.4783939583      9.01e-09  Convergence criterion met
 Total energy in the final basis set =     -595.4783939583
    9    -595.4803679332      1.91e-09  Convergence criterion met
 Total energy in the final basis set =     -595.4803679332
    8    -595.4804474583      3.19e-09  Convergence criterion met
 Total energy in the final basis set =     -595.4804474583
    7    -595.4804510997      2.64e-09  Convergence criterion met
 Total energy in the final basis set =     -595.4804510997
    7    -595.4804571689      2.19e-09  Convergence criterion met
 Total energy in the final basis set =     -595.4804571689
    7    -595.4804627726      4.56e-09  Convergence criterion met
 Total energy in the final basis set =     -595.4804627726

             Standard Nuclear Orientation (Angstroms)
    I     Atom           X                Y                Z
 ----------------------------------------------------------------
    1      Cl     -0.0013016810    -0.0011808446     2.9069100238
    2      C       0.0003487406     0.0003326843    -0.5402914253
    3      H      -0.5136065931    -0.8901339793    -0.1469347792
    4      H      -0.5136950949     0.8913458264    -0.1482579244
    5      H       1.0292440924     0.0005293338    -0.1488812972
    6      F      -0.0009894641    -0.0008930207    -1.9225445978
 ----------------------------------------------------------------

    6    -595.4804630784      4.89e-09  Convergence criterion met
 Total energy in the final basis set =     -595.4804630784
 Final energy is   -595.48046307844038
 **  OPTIMIZATION CONVERGED  **

                    Orbital Energies (a.u.)
 --------------------------------------------------------------

 Alpha MOs
 -- Occupied --
******** -25.8138 -11.1064  -9.8872  -7.3139  -7.3138  -7.3138  -1.4161
 -0.7948  -0.6023  -0.5270  -0.5270  -0.4795  -0.3565  -0.3564  -0.0366
 -0.0362  -0.0362

          Ground-State Mulliken Net Atomic Charges

     Atom                 Charge (a.u.)
  ----------------------------------------
      1 Cl                   -0.997022
      2 C                    -0.111291
      3 H                     0.152255
      4 H                     0.152130
      5 H                     0.152069
      6 F                    -0.348141
  ----------------------------------------
  Sum of atomic charges =    -1.000000

                    Cartesian Multipole Moments
 -----------------------------------------------------------------
    Charge (ESU x 10^10)
                    -4.80320440
    Dipole Moment (Debye)
         X           0.00791454      Y           0.00717151      Z         -11.57020382
       Tot          11.57020875
    Quadrupole Moments (Debye-Ang)
        XX         -25.76554567     XY          -0.00000923     YY         -25.76530938
        XZ           0.01451456     YZ           0.01318324     ZZ         -72.17406386

 Total job time:  12.00s(wall), 50.09s(cpu)
        *  Thank you very much for using Q-Chem.  Have a nice day.  *
