 Q-Chem 5.3 (devel), Q-Chem, Inc., Pleasanton, CA (2020)
 Q-Chem 5.3.0 for Intel X86 EM64T Linux

User input:
--------------------------------------------------------------
$Comment
Geometry optimizations for CLB18.
$End

$Rem
SYMMETRY              False
SYM_IGNORE            True
JOBTYPE               Opt
METHOD                HF-3c
BASIS                 MINIX
MAX_SCF_CYCLES        50
SCF_ALGORITHM         DIIS
SCF_PRINT             1
SCF_FINAL_PRINT       1
XC_GRID               000099000590
MEM_TOTAL             20000
MEM_STATIC            4000
BLAS3_DFT             True
New_DFT               True
$End

$Molecule
-1 1
F 0.0000000000 0.0000000000 -1.7913712232
C 0.0000000000 0.0000000000 -0.3656170018
H -0.5117910935 0.8864481769 -0.0175866754
H -0.5117910935 -0.8864481769 -0.0175866754
H 1.0235821871 0.0000000000 -0.0175866754
F 0.0000000000 0.0000000000 2.2097482512
$End

--------------------------------------------------------------

   10    -236.7934675756      1.04e-09  Convergence criterion met
 Total energy in the final basis set =     -236.7934675756
    8    -236.7947567441      9.43e-10  Convergence criterion met
 Total energy in the final basis set =     -236.7947567441
    7    -236.7952932383      4.21e-09  Convergence criterion met
 Total energy in the final basis set =     -236.7952932383
    7    -236.7959532963      9.42e-09  Convergence criterion met
 Total energy in the final basis set =     -236.7959532963
    8    -236.7962446407      2.18e-09  Convergence criterion met
 Total energy in the final basis set =     -236.7962446407
    7    -236.7963876623      5.03e-09  Convergence criterion met
 Total energy in the final basis set =     -236.7963876623
    8    -236.7967026324      2.74e-09  Convergence criterion met
 Total energy in the final basis set =     -236.7967026324
    8    -236.7967493070      1.90e-09  Convergence criterion met
 Total energy in the final basis set =     -236.7967493070
    7    -236.7967563972      6.86e-09  Convergence criterion met
 Total energy in the final basis set =     -236.7967563972

             Standard Nuclear Orientation (Angstroms)
    I     Atom           X                Y                Z
 ----------------------------------------------------------------
    1      F      -0.0002537102    -0.0001890737    -1.7401932599
    2      C       0.0000973021     0.0000864942    -0.2900312908
    3      H      -0.5231241238     0.9065288595     0.0279620668
    4      H      -0.5230645205    -0.9062030131     0.0284000607
    5      H       1.0468010475     0.0001112859     0.0276536343
    6      F      -0.0004559949    -0.0003345529     1.9462087888
 ----------------------------------------------------------------

    7    -236.7967562838      1.87e-09  Convergence criterion met
 Total energy in the final basis set =     -236.7967562838
 Final energy is   -236.79675628384462
 **  OPTIMIZATION CONVERGED  **

                    Orbital Energies (a.u.)
 --------------------------------------------------------------

 Alpha MOs
 -- Occupied --
-25.6652 -24.9878 -11.0236  -1.2956  -0.8288  -0.7013  -0.4321  -0.4321
 -0.3630  -0.2788  -0.2788   0.0869   0.0869   0.1035

          Ground-State Mulliken Net Atomic Charges

     Atom                 Charge (a.u.)
  ----------------------------------------
      1 F                    -0.414888
      2 C                    -0.094370
      3 H                     0.139170
      4 H                     0.139263
      5 H                     0.139103
      6 F                    -0.908277
  ----------------------------------------
  Sum of atomic charges =    -1.000000

                    Cartesian Multipole Moments
 -----------------------------------------------------------------
    Charge (ESU x 10^10)
                    -4.80320440
    Dipole Moment (Debye)
         X           0.00234961      Y           0.00172811      Z          -5.38659192
       Tot           5.38659271
    Quadrupole Moments (Debye-Ang)
        XX         -16.58386095     XY           0.00003542     YY         -16.58345072
        XZ           0.00260717     YZ           0.00190297     ZZ         -39.53760375

 Total job time:  1.95s(wall), 9.44s(cpu)
        *  Thank you very much for using Q-Chem.  Have a nice day.  *
