 Q-Chem 5.3 (devel), Q-Chem, Inc., Pleasanton, CA (2020)
 Q-Chem 5.3.0 for Intel X86 EM64T Linux

User input:
--------------------------------------------------------------
$Comment
Geometry optimizations for CLB18.
$End

$Rem
SYMMETRY              False
SYM_IGNORE            True
JOBTYPE               Opt
METHOD                HF-3c
BASIS                 MINIX
MAX_SCF_CYCLES        50
SCF_ALGORITHM         DIIS
SCF_PRINT             1
SCF_FINAL_PRINT       1
XC_GRID               000099000590
MEM_TOTAL             20000
MEM_STATIC            4000
BLAS3_DFT             True
New_DFT               True
$End

$Molecule
0 1
O 0.0000000000 0.0000000000 0.4841183005
C 0.0000000000 0.0000000000 -0.6454903617
$End

--------------------------------------------------------------

   10    -111.9880573748      1.34e-11  Convergence criterion met
 Total energy in the final basis set =     -111.9880573748
    7    -111.9879350289      6.10e-09  Convergence criterion met
 Total energy in the final basis set =     -111.9879350289
    7    -111.9881288467      3.54e-09  Convergence criterion met
 Total energy in the final basis set =     -111.9881288467

             Standard Nuclear Orientation (Angstroms)
    I     Atom           X                Y                Z
 ----------------------------------------------------------------
    1      O       0.0000000000     0.0000000000     0.4868616519
    2      C       0.0000000000     0.0000000000    -0.6482337131
 ----------------------------------------------------------------

    6    -111.9881289032      4.82e-10  Convergence criterion met
 Total energy in the final basis set =     -111.9881289032
 Final energy is   -111.98812890317299
 **  OPTIMIZATION CONVERGED  **

                    Orbital Energies (a.u.)
 --------------------------------------------------------------

 Alpha MOs
 -- Occupied --
-20.5226 -11.2886  -1.5378  -0.7717  -0.6337  -0.6337  -0.5186

          Ground-State Mulliken Net Atomic Charges

     Atom                 Charge (a.u.)
  ----------------------------------------
      1 O                    -0.350789
      2 C                     0.350789
  ----------------------------------------
  Sum of atomic charges =     0.000000

                    Cartesian Multipole Moments
 -----------------------------------------------------------------
    Charge (ESU x 10^10)
                    -0.00000000
    Dipole Moment (Debye)
         X          -0.00000000      Y           0.00000000      Z          -0.39252516
       Tot           0.39252516
    Quadrupole Moments (Debye-Ang)
        XX          -9.68619925     XY           0.00000000     YY          -9.68619925
        XZ           0.00000000     YZ          -0.00000000     ZZ         -12.97424972

 Total job time:  0.73s(wall), 2.70s(cpu)
        *  Thank you very much for using Q-Chem.  Have a nice day.  *
