 Q-Chem 5.3 (devel), Q-Chem, Inc., Pleasanton, CA (2020)
 Q-Chem 5.3.0 for Intel X86 EM64T Linux

User input:
--------------------------------------------------------------
$Comment
Geometry optimizations for CLB18.
$End

$Rem
SYMMETRY              False
SYM_IGNORE            True
JOBTYPE               Opt
METHOD                HF-3c
BASIS                 MINIX
MAX_SCF_CYCLES        50
SCF_ALGORITHM         DIIS
SCF_PRINT             1
SCF_FINAL_PRINT       1
XC_GRID               000099000590
MEM_TOTAL             20000
MEM_STATIC            4000
BLAS3_DFT             True
New_DFT               True
$End

$Molecule
0 1
S 0.0000000000 0.0000000000 0.1025190886
H 0.0000000000 0.9662511281 -0.8201558837
H 0.0000000000 -0.9662511281 -0.8201558837
$End

--------------------------------------------------------------

   10    -396.7078513696      1.52e-09  Convergence criterion met
 Total energy in the final basis set =     -396.7078513696
    8    -396.7095377595      1.97e-09  Convergence criterion met
 Total energy in the final basis set =     -396.7095377595
    7    -396.7096952071      7.02e-09  Convergence criterion met
 Total energy in the final basis set =     -396.7096952071

             Standard Nuclear Orientation (Angstroms)
    I     Atom           X                Y                Z
 ----------------------------------------------------------------
    1      S       0.0000000000    -0.0000173848     0.1171149638
    2      H       0.0000000000     0.9985892194    -0.8274620342
    3      H       0.0000000000    -0.9985718346    -0.8274456084
 ----------------------------------------------------------------

    6    -396.7096963871      7.19e-09  Convergence criterion met
 Total energy in the final basis set =     -396.7096963871
 Final energy is   -396.70969638713626
 **  OPTIMIZATION CONVERGED  **

                    Orbital Energies (a.u.)
 --------------------------------------------------------------

 Alpha MOs
 -- Occupied --
-91.2904  -8.9104  -6.5593  -6.5582  -6.5553  -0.9616  -0.5739  -0.4876
 -0.3776

          Ground-State Mulliken Net Atomic Charges

     Atom                 Charge (a.u.)
  ----------------------------------------
      1 S                    -0.362867
      2 H                     0.181435
      3 H                     0.181432
  ----------------------------------------
  Sum of atomic charges =     0.000000

                    Cartesian Multipole Moments
 -----------------------------------------------------------------
    Charge (ESU x 10^10)
                    -0.00000000
    Dipole Moment (Debye)
         X           0.00000000      Y           0.00005098      Z          -1.38340578
       Tot           1.38340578
    Quadrupole Moments (Debye-Ang)
        XX         -16.39430327     XY           0.00000000     YY         -12.41938008
        XZ          -0.00000000     YZ          -0.00005791     ZZ         -13.68446134

 Total job time:  1.65s(wall), 5.03s(cpu)
        *  Thank you very much for using Q-Chem.  Have a nice day.  *
