 Q-Chem 5.3 (devel), Q-Chem, Inc., Pleasanton, CA (2020)
 Q-Chem 5.3.0 for Intel X86 EM64T Linux

User input:
--------------------------------------------------------------
$Comment
Geometry optimizations for CLB18.
$End

$Rem
SYMMETRY              False
SYM_IGNORE            True
JOBTYPE               Opt
METHOD                HF-3c
BASIS                 MINIX
MAX_SCF_CYCLES        50
SCF_ALGORITHM         DIIS
SCF_PRINT             1
SCF_FINAL_PRINT       1
XC_GRID               000099000590
MEM_TOTAL             20000
MEM_STATIC            4000
BLAS3_DFT             True
New_DFT               True
$End

$Molecule
0 1
Cl 0.0000000000 0.0000000000 0.0708028525
H 0.0000000000 0.0000000000 -1.2036453166
$End

--------------------------------------------------------------

    9    -457.8681059812      1.27e-09  Convergence criterion met
 Total energy in the final basis set =     -457.8681059812
    7    -457.8697102955      8.81e-09  Convergence criterion met
 Total energy in the final basis set =     -457.8697102955
    7    -457.8697737665      1.86e-09  Convergence criterion met
 Total energy in the final basis set =     -457.8697737665

             Standard Nuclear Orientation (Angstroms)
    I     Atom           X                Y                Z
 ----------------------------------------------------------------
    1      Cl      0.0000000000     0.0000000000     0.0954039379
    2      H       0.0000000000     0.0000000000    -1.2282464020
 ----------------------------------------------------------------

    6    -457.8697745589      6.85e-09  Convergence criterion met
 Total energy in the final basis set =     -457.8697745589
 Final energy is   -457.86977455889377
 **  OPTIMIZATION CONVERGED  **

                    Orbital Energies (a.u.)
 --------------------------------------------------------------

 Alpha MOs
 -- Occupied --
******** -10.5093  -7.9432  -7.9388  -7.9388  -1.0994  -0.6064  -0.4682
 -0.4682

          Ground-State Mulliken Net Atomic Charges

     Atom                 Charge (a.u.)
  ----------------------------------------
      1 Cl                   -0.270946
      2 H                     0.270946
  ----------------------------------------
  Sum of atomic charges =     0.000000

                    Cartesian Multipole Moments
 -----------------------------------------------------------------
    Charge (ESU x 10^10)
                    -0.00000000
    Dipole Moment (Debye)
         X           0.00000000      Y           0.00000000      Z          -1.40826973
       Tot           1.40826973
    Quadrupole Moments (Debye-Ang)
        XX         -13.97395994     XY          -0.00000000     YY         -13.97395994
        XZ          -0.00000000     YZ           0.00000000     ZZ         -10.53350899

 Total job time:  1.47s(wall), 4.69s(cpu)
        *  Thank you very much for using Q-Chem.  Have a nice day.  *
