 Q-Chem 5.3 (devel), Q-Chem, Inc., Pleasanton, CA (2020)
 Q-Chem 5.3.0 for Intel X86 EM64T Linux

User input:
--------------------------------------------------------------
$Comment
Geometry optimizations for CLB18.
$End

$Rem
SYMMETRY              False
SYM_IGNORE            True
JOBTYPE               Opt
METHOD                HF-3c
BASIS                 MINIX
MAX_SCF_CYCLES        50
SCF_ALGORITHM         DIIS
SCF_PRINT             1
SCF_FINAL_PRINT       1
XC_GRID               000099000590
MEM_TOTAL             20000
MEM_STATIC            4000
BLAS3_DFT             True
New_DFT               True
$End

$Molecule
0 1
O 0.0000000000 0.0000000000 0.1171450175
H 0.0000000000 0.7567075361 -0.4685821867
H 0.0000000000 -0.7567075361 -0.4685821867
$End

--------------------------------------------------------------

    8     -75.5116661395      2.66e-11  Convergence criterion met
 Total energy in the final basis set =      -75.5116661395
    6     -75.5124553358      3.88e-10  Convergence criterion met
 Total energy in the final basis set =      -75.5124553358
    6     -75.5125792222      8.18e-10  Convergence criterion met
 Total energy in the final basis set =      -75.5125792222

             Standard Nuclear Orientation (Angstroms)
    I     Atom           X                Y                Z
 ----------------------------------------------------------------
    1      O       0.0000000000    -0.0000015306     0.1206718442
    2      H       0.0000000000     0.7765275254    -0.4703461735
    3      H       0.0000000000    -0.7765259948    -0.4703450265
 ----------------------------------------------------------------

    6     -75.5125806751      2.58e-11  Convergence criterion met
 Total energy in the final basis set =      -75.5125806751
 Final energy is   -75.512580675140441
 **  OPTIMIZATION CONVERGED  **

                    Orbital Energies (a.u.)
 --------------------------------------------------------------

 Alpha MOs
 -- Occupied --
-20.2978  -1.3028  -0.6557  -0.5174  -0.4665

          Ground-State Mulliken Net Atomic Charges

     Atom                 Charge (a.u.)
  ----------------------------------------
      1 O                    -0.576714
      2 H                     0.288357
      3 H                     0.288357
  ----------------------------------------
  Sum of atomic charges =     0.000000

                    Cartesian Multipole Moments
 -----------------------------------------------------------------
    Charge (ESU x 10^10)
                     0.00000000
    Dipole Moment (Debye)
         X          -0.00000000      Y           0.00000484      Z          -2.16961796
       Tot           2.16961796
    Quadrupole Moments (Debye-Ang)
        XX          -6.73813456     XY           0.00000000     YY          -4.31237421
        XZ          -0.00000000     YZ          -0.00000233     ZZ          -5.82874979

 Total job time:  0.52s(wall), 1.72s(cpu)
        *  Thank you very much for using Q-Chem.  Have a nice day.  *
