 Q-Chem 5.3 (devel), Q-Chem, Inc., Pleasanton, CA (2020)
 Q-Chem 5.3.0 for Intel X86 EM64T Linux

User input:
--------------------------------------------------------------
$Comment
Geometry optimizations for CLB18.
$End

$Rem
SYMMETRY              False
SYM_IGNORE            True
JOBTYPE               Opt
METHOD                HF-3c
BASIS                 MINIX
MAX_SCF_CYCLES        50
SCF_ALGORITHM         DIIS
SCF_PRINT             1
SCF_FINAL_PRINT       1
XC_GRID               000099000590
MEM_TOTAL             20000
MEM_STATIC            4000
BLAS3_DFT             True
New_DFT               True
$End

$Molecule
0 1
C 0.0000000000 0.0000000000 -0.5003650992
N 0.0000000000 0.0000000000 0.6526395459
H 0.0000000000 0.0000000000 -1.5662904592
$End

--------------------------------------------------------------

   10     -92.2549424007      2.12e-09  Convergence criterion met
 Total energy in the final basis set =      -92.2549424007
    8     -92.2503991466      3.20e-09  Convergence criterion met
 Total energy in the final basis set =      -92.2503991466
    8     -92.2559108957      3.13e-09  Convergence criterion met
 Total energy in the final basis set =      -92.2559108957
    7     -92.2559191836      3.34e-09  Convergence criterion met
 Total energy in the final basis set =      -92.2559191836

             Standard Nuclear Orientation (Angstroms)
    I     Atom           X                Y                Z
 ----------------------------------------------------------------
    1      C       0.0000000000     0.0000000000    -0.4905161861
    2      N       0.0000000000     0.0000000000     0.6446405433
    3      H       0.0000000000     0.0000000000    -1.5681403698
 ----------------------------------------------------------------

    6     -92.2559194964      8.44e-09  Convergence criterion met
 Total energy in the final basis set =      -92.2559194964
 Final energy is   -92.255919496408339
 **  OPTIMIZATION CONVERGED  **

                    Orbital Energies (a.u.)
 --------------------------------------------------------------

 Alpha MOs
 -- Occupied --
-15.4909 -11.2424  -1.2646  -0.7899  -0.5514  -0.5126  -0.5126

          Ground-State Mulliken Net Atomic Charges

     Atom                 Charge (a.u.)
  ----------------------------------------
      1 C                    -0.040097
      2 N                    -0.175935
      3 H                     0.216031
  ----------------------------------------
  Sum of atomic charges =     0.000000

                    Cartesian Multipole Moments
 -----------------------------------------------------------------
    Charge (ESU x 10^10)
                     0.00000000
    Dipole Moment (Debye)
         X           0.00000000      Y           0.00000000      Z          -2.63257164
       Tot           2.63257164
    Quadrupole Moments (Debye-Ang)
        XX         -11.48916631     XY          -0.00000000     YY         -11.48916631
        XZ           0.00000000     YZ           0.00000000     ZZ         -10.45549178

 Total job time:  0.81s(wall), 3.22s(cpu)
        *  Thank you very much for using Q-Chem.  Have a nice day.  *
