 Q-Chem 5.3 (devel), Q-Chem, Inc., Pleasanton, CA (2020)
 Q-Chem 5.3.0 for Intel X86 EM64T Linux

User input:
--------------------------------------------------------------
$Comment
Geometry optimizations for CLB18.
$End

$Rem
SYMMETRY              False
SYM_IGNORE            True
JOBTYPE               Opt
METHOD                HF-3c
BASIS                 MINIX
MAX_SCF_CYCLES        50
SCF_ALGORITHM         DIIS
SCF_PRINT             1
SCF_FINAL_PRINT       1
XC_GRID               000099000590
MEM_TOTAL             20000
MEM_STATIC            4000
BLAS3_DFT             True
New_DFT               True
$End

$Molecule
0 1
H 0.0000000000 0.0000000000 0.3709384078
H 0.0000000000 0.0000000000 -0.3709384078
$End

--------------------------------------------------------------

    2      -1.1169990591      0.00e+00  Convergence criterion met
 Total energy in the final basis set =       -1.1169990591
    2      -1.1181625386      0.00e+00  Convergence criterion met
 Total energy in the final basis set =       -1.1181625386

             Standard Nuclear Orientation (Angstroms)
    I     Atom           X                Y                Z
 ----------------------------------------------------------------
    1      H       0.0000000000     0.0000000000     0.3537612585
    2      H       0.0000000000     0.0000000000    -0.3537612585
 ----------------------------------------------------------------

    2      -1.1181679756      1.07e-16  Convergence criterion met
 Total energy in the final basis set =       -1.1181679756
 Final energy is   -1.1181679756042526
 **  OPTIMIZATION CONVERGED  **

                    Orbital Energies (a.u.)
 --------------------------------------------------------------

 Alpha MOs
 -- Occupied --
 -0.5897

          Ground-State Mulliken Net Atomic Charges

     Atom                 Charge (a.u.)
  ----------------------------------------
      1 H                    -0.000000
      2 H                    -0.000000
  ----------------------------------------
  Sum of atomic charges =     0.000000

                    Cartesian Multipole Moments
 -----------------------------------------------------------------
    Charge (ESU x 10^10)
                     0.00000000
    Dipole Moment (Debye)
         X           0.00000000      Y           0.00000000      Z           0.00000000
       Tot           0.00000000
    Quadrupole Moments (Debye-Ang)
        XX          -1.75916867     XY           0.00000000     YY          -1.75916867
        XZ           0.00000000     YZ           0.00000000     ZZ          -1.35825851

 Total job time:  0.24s(wall), 0.85s(cpu)
        *  Thank you very much for using Q-Chem.  Have a nice day.  *
