 Q-Chem 5.3 (devel), Q-Chem, Inc., Pleasanton, CA (2020)
 Q-Chem 5.3.0 for Intel X86 EM64T Linux

User input:
--------------------------------------------------------------
$Comment
Geometry optimizations for CLB18.
$End

$Rem
SYMMETRY              False
SYM_IGNORE            True
JOBTYPE               Opt
METHOD                HF-3c
BASIS                 MINIX
MAX_SCF_CYCLES        50
SCF_ALGORITHM         DIIS
SCF_PRINT             1
SCF_FINAL_PRINT       1
XC_GRID               000099000590
MEM_TOTAL             20000
MEM_STATIC            4000
BLAS3_DFT             True
New_DFT               True
$End

$Molecule
0 2
N -0.0624418525 0.6594923907 0.0000000000
N -0.0624418525 -0.5187090272 0.0000000000
H 0.8741954605 -0.9854761361 0.0000000000
$End

--------------------------------------------------------------

   19    -108.6879573928      3.99e-09  Convergence criterion met
 Total energy in the final basis set =     -108.6879573928
   15    -108.6909309195      7.34e-09  Convergence criterion met
 Total energy in the final basis set =     -108.6909309195
   15    -108.6926708922      1.80e-09  Convergence criterion met
 Total energy in the final basis set =     -108.6926708922
   14    -108.6928843913      2.10e-09  Convergence criterion met
 Total energy in the final basis set =     -108.6928843913

             Standard Nuclear Orientation (Angstroms)
    I     Atom           X                Y                Z
 ----------------------------------------------------------------
    1      N      -0.0585009007     0.7023042600     0.0000000000
    2      N      -0.0780903569    -0.5614467395     0.0000000000
    3      H       0.8859030131    -0.9855502932     0.0000000000
 ----------------------------------------------------------------

   11    -108.6928889197      7.72e-09  Convergence criterion met
 Total energy in the final basis set =     -108.6928889197
 Final energy is   -108.69288891970504
 **  OPTIMIZATION CONVERGED  **

                    Orbital Energies (a.u.)
 --------------------------------------------------------------

 Alpha MOs
 -- Occupied --
-15.4933 -15.4702  -1.3552  -0.8877  -0.6667  -0.5605  -0.5457  -0.3819

 Beta MOs
 -- Occupied --
-15.4936 -15.4414  -1.3190  -0.8222  -0.5691  -0.5497  -0.4870

          Ground-State Mulliken Net Atomic Charges

     Atom                 Charge (a.u.)    Spin (a.u.)
  --------------------------------------------------------
      1 N                    -0.010147       1.648907
      2 N                    -0.232972      -0.794416
      3 H                     0.243119       0.145509
  --------------------------------------------------------
  Sum of atomic charges =    -0.000000

                    Cartesian Multipole Moments
 -----------------------------------------------------------------
    Charge (ESU x 10^10)
                    -0.00000000
    Dipole Moment (Debye)
         X           1.72553092      Y          -0.85433741      Z           0.00000000
       Tot           1.92544784
    Quadrupole Moments (Debye-Ang)
        XX         -10.24306520     XY          -1.63116607     YY         -12.68713510
        XZ          -0.00000000     YZ          -0.00000000     ZZ         -10.62904920

 Total job time:  1.25s(wall), 4.79s(cpu)
        *  Thank you very much for using Q-Chem.  Have a nice day.  *
