 Q-Chem 5.3 (devel), Q-Chem, Inc., Pleasanton, CA (2020)
 Q-Chem 5.3.0 for Intel X86 EM64T Linux

User input:
--------------------------------------------------------------
$Comment
Geometry optimizations for CLB18.
$End

$Rem
SYMMETRY              False
SYM_IGNORE            True
JOBTYPE               Opt
METHOD                HF-3c
BASIS                 MINIX
MAX_SCF_CYCLES        50
SCF_ALGORITHM         DIIS
SCF_PRINT             1
SCF_FINAL_PRINT       1
XC_GRID               000099000590
MEM_TOTAL             20000
MEM_STATIC            4000
BLAS3_DFT             True
New_DFT               True
$End

$Molecule
0 1
F 0.0000000000 0.0000000000 0.0915381323
H 0.0000000000 0.0000000000 -0.8238442489
$End

--------------------------------------------------------------

    7     -99.3807695784      6.15e-09  Convergence criterion met
 Total energy in the final basis set =      -99.3807695784
    5     -99.3816014928      1.08e-09  Convergence criterion met
 Total energy in the final basis set =      -99.3816014928
    5     -99.3818698309      1.17e-10  Convergence criterion met
 Total energy in the final basis set =      -99.3818698309

             Standard Nuclear Orientation (Angstroms)
    I     Atom           X                Y                Z
 ----------------------------------------------------------------
    1      F       0.0000000000     0.0000000000     0.1059563409
    2      H       0.0000000000     0.0000000000    -0.8382624575
 ----------------------------------------------------------------

    5     -99.3818721070      1.30e-12  Convergence criterion met
 Total energy in the final basis set =      -99.3818721070
 Final energy is   -99.381872107022502
 **  OPTIMIZATION CONVERGED  **

                    Orbital Energies (a.u.)
 --------------------------------------------------------------

 Alpha MOs
 -- Occupied --
-25.9540  -1.5328  -0.6693  -0.5749  -0.5749

          Ground-State Mulliken Net Atomic Charges

     Atom                 Charge (a.u.)
  ----------------------------------------
      1 F                    -0.373654
      2 H                     0.373654
  ----------------------------------------
  Sum of atomic charges =     0.000000

                    Cartesian Multipole Moments
 -----------------------------------------------------------------
    Charge (ESU x 10^10)
                     0.00000000
    Dipole Moment (Debye)
         X          -0.00000000      Y          -0.00000000      Z          -1.92357547
       Tot           1.92357547
    Quadrupole Moments (Debye-Ang)
        XX          -5.14919089     XY           0.00000000     YY          -5.14919089
        XZ          -0.00000000     YZ          -0.00000000     ZZ          -3.45769876

 Total job time:  0.55s(wall), 1.70s(cpu)
        *  Thank you very much for using Q-Chem.  Have a nice day.  *
