 Q-Chem 5.3 (devel), Q-Chem, Inc., Pleasanton, CA (2020)
 Q-Chem 5.3.1 for Intel X86 EM64T Linux

User input:
--------------------------------------------------------------
$Comment
Geometry optimizations for CLB18.
$End

$Rem
SYMMETRY              False
SYM_IGNORE            True
JOBTYPE               TS
METHOD                HF-3c
BASIS                 MINIX
GEOM_OPT_MAX_CYCLES   150
GEOM_OPT_DMAX         10
GEOM_OPT_DMAX         10
MAX_SCF_CYCLES        50
GEOM_OPT_MAX_CYCLES   150
SCF_ALGORITHM         DIIS
SCF_PRINT             1
SCF_FINAL_PRINT       1
XC_GRID               000099000590
MEM_TOTAL             20000
MEM_STATIC            4000
BLAS3_DFT             True
New_DFT               True
$End

$Molecule
0 2
H 0.0004500001 2.0009672037 0.0000000000
F -0.0000350000 0.7624808595 0.0000000000
C -0.0000350000 -0.9061683475 0.0000000000
H 1.0537611634 -1.1415728298 0.0000000000
H -0.5268451268 -1.1423560120 0.9123544291
H -0.5268451268 -1.1423560120 -0.9123544291
$End

--------------------------------------------------------------

   14    -138.5701017636      3.73e-09  Convergence criterion met
 Total energy in the final basis set =     -138.5701017636
    8    -138.5700909713      9.58e-09  Convergence criterion met
 Total energy in the final basis set =     -138.5700909713
    9    -138.5700780839      6.45e-09  Convergence criterion met
 Total energy in the final basis set =     -138.5700780839
   10    -138.5700140257      5.80e-09  Convergence criterion met
 Total energy in the final basis set =     -138.5700140257
   10    -138.5698430559      7.87e-09  Convergence criterion met
 Total energy in the final basis set =     -138.5698430559
   10    -138.5699609825      6.43e-09  Convergence criterion met
 Total energy in the final basis set =     -138.5699609825
   10    -138.5701181144      4.59e-09  Convergence criterion met
 Total energy in the final basis set =     -138.5701181144
   10    -138.5702836783      3.24e-09  Convergence criterion met
 **  OPTIMIZATION CONVERGED  **
 Total job time:  5.26s(wall), 10.22s(cpu)
        *  Thank you very much for using Q-Chem.  Have a nice day.  *

User input: 2 of 2

                  Welcome to Q-Chem
     A Quantum Leap Into The Future Of Chemistry

 Q-Chem 5.3 (devel), Q-Chem, Inc., Pleasanton, CA (2020)

 Yihan Shao,  Zhengting Gan,  E. Epifanovsky,  A. T. B. Gilbert,  M. Wormit,
 J. Kussmann,  A. W. Lange,  A. Behn,  Jia Deng,  Xintian Feng,  D. Ghosh,
 M. Goldey,  P. R. Horn,  L. D. Jacobson,  I. Kaliman,  T. Kus,  A. Landau,
 Jie Liu,  E. I. Proynov,  R. M. Richard,  R. P. Steele,  E. J. Sundstrom,
 H. L. Woodcock III,  P. M. Zimmerman,  D. Zuev,  B. Alam,  B. Albrecht,
 A. Aldossary,  E. Alguire,  S. A. Baeppler,  D. Barton,  Z. Benda,
 Y. A. Bernard,  E. J. Berquist,  K. B. Bravaya,  H. Burton,  K. Carter-Fenk,
 D. Casanova,  Chun-Min Chang,  Yunqing Chen,  A. Chien,  K. D. Closser,
 M. P. Coons,  S. Coriani,  S. Dasgupta,  A. L. Dempwolff,  M. Diedenhofen,
 Hainam Do,  R. G. Edgar,  Po-Tung Fang,  S. Faraji,  S. Fatehi,
 Qingguo Feng,  J. Fosso-Tande,  J. Gayvert,  Qinghui Ge,  A. Ghysels,
 G. Gidofalvi,  J. Gomes,  J. Gonthier,  S. Gulania,  A. Gunina,  D. Hait,
 M. W. D. Hanson-Heine,  S. Hammes-Schiffer,  P. H. P. Harbach,
 A. W. Hauser,  M. F. Herbst,  J. E. Herr,  E. G. Hohenstein,  Z. C. Holden,
 S. Houck,  Kerwin Hui,  B. C. Huynh,  M. Ivanov,  T.-C. Jagau,  Hyunjun Ji,
 B. Kaduk,  K. Khistyaev,  Jaehoon Kim,  P. Klunzinger,  K. Koh,
 D. Kosenkov,  L. Koulias,  T. Kowalczyk,  C. M. Krauter,  A. Kunitsa,
 Ka Un Lao,  A. Laurent,  K. V. Lawler,  Joonho Lee,  D. Lefrancois,
 S. Lehtola,  D. S. Levine,  Yi-Pei Li,  You-Sheng Lin,  Fenglai Liu,
 Kuan-Yu Liu,  E. Livshits,  M. Loipersberger,  A. Luenser,  P. Manohar,
 E. Mansoor,  S. F. Manzer,  Shan-Ping Mao,  Yuezhi Mao,  N. Mardirossian,
 A. V. Marenich,  T. Markovich,  L. A. Martinez-Martinez,  S. A. Maurer,
 N. J. Mayhall,  S. C. McKenzie,  J.-M. Mewes,  P. Morgante,  A. F. Morrison,
 J. W. Mullinax,  K. Nanda,  T. S. Nguyen-Beck,  R. Olivares-Amaya,
 K. J. Oosterbaan,  J. A. Parkhill,  S. K. Paul,  F. Pavosevic,  Zheng Pei,
 T. M. Perrine,  F. Plasser,  P. Pokhilko,  S. Prager,  A. Prociuk,
 E. Ramos,  B. Rana,  D. R. Rehn,  F. Rob,  E. Rossomme,  M. Scheurer,
 M. Schneider,  N. Sergueev,  S. M. Sharada,  S. Sharma,  W. Skomorowski,
 D. W. Small,  T. Stauch,  C. J. Stein,  T. Stein,  Yu-Chuan Su,
 S. P. Veccham,  Zhen Tao,  A. J. W. Thom,  A. Tkatchenko,  T. Tsuchimochi,
 N. M. Tubman,  L. Vogt,  M. L. Vidal,  O. Vydrov,  M. A. Watson,  J. Wenzel,
 M. de Wergifosse,  T. A. Wesolowski,  A. White,  J. Witte,  A. Yamada,
 Jun Yang,  K. Yao,  S. Yeganeh,  S. R. Yost,  Zhi-Qiang You,  A. Zech,
 Igor Ying Zhang,  Xing Zhang,  Yan Zhao,  Ying Zhu,  B. R. Brooks,
 G. K. L. Chan,  C. J. Cramer,  M. S. Gordon,  W. J. Hehre,  A. Klamt,
 M. W. Schmidt,  C. D. Sherrill,  D. G. Truhlar,  A. Aspuru-Guzik,  R. Baer,
 A. T. Bell,  N. A. Besley,  Jeng-Da Chai,  A. E. DePrince, III,
 R. A. DiStasio Jr.,  A. Dreuw,  B. D. Dunietz,  T. R. Furlani,
 Chao-Ping Hsu,  Yousung Jung,  Jing Kong,  D. S. Lambrecht,  WanZhen Liang,
 C. Ochsenfeld,  V. A. Rassolov,  L. V. Slipchenko,  J. E. Subotnik,
 T. Van Voorhis,  J. M. Herbert,  A. I. Krylov,  P. M. W. Gill,  M. Head-Gordon

 Contributors to earlier versions of Q-Chem not listed above:
 R. D. Adamson,  B. Austin,  J. Baker,  G. J. O. Beran,  K. Brandhorst,
 S. T. Brown,  E. F. C. Byrd,  A. K. Chakraborty,  C.-L. Cheng,
 Siu Hung Chien,  D. M. Chipman,  D. L. Crittenden,  H. Dachsel,
 R. J. Doerksen,  A. D. Dutoi,  L. Fusti-Molnar,  W. A. Goddard III,
 A. Golubeva-Zadorozhnaya,  S. R. Gwaltney,  G. Hawkins,  A. Heyden,
 S. Hirata,  G. Kedziora,  F. J. Keil,  C. Kelley,  Jihan Kim,  R. A. King,
 R. Z. Khaliullin,  P. P. Korambath,  W. Kurlancheek,  A. M. Lee,  M. S. Lee,
 S. V. Levchenko,  Ching Yeh Lin,  D. Liotard,  R. C. Lochan,  I. Lotan,
 P. E. Maslen,  N. Nair,  D. P. O'Neill,  D. Neuhauser,  E. Neuscamman,
 C. M. Oana,  R. Olson,  B. Peters,  R. Peverati,  P. A. Pieniazek,
 Y. M. Rhee,  J. Ritchie,  M. A. Rohrdanz,  E. Rosta,  N. J. Russ,
 H. F. Schaefer III,  N. E. Schultz,  N. Shenvi,  A. C. Simmonett,  A. Sodt,
 D. Stuck,  K. S. Thanthiriwatte,  V. Vanovschi,  Tao Wang,  A. Warshel,
 C. F. Williams,  Q. Wu,  X. Xu,  W. Zhang

 Please cite Q-Chem as follows:
 Y. Shao et al., Mol. Phys. 113, 184-215 (2015)
 DOI: 10.1080/00268976.2014.952696

 Q-Chem 5.3.1 for Intel X86 EM64T Linux

 Parts of Q-Chem use Armadillo 9.800.1 (Horizon Scraper).
 http://arma.sourceforge.net/

 Q-Chem begins on Fri Oct 30 10:21:56 2020

Host:
0

     Scratch files written to /data/scratch/MN_53_hfch3ts_BH76_HF_3c//
Processing $rem in /home/pierpa/qchem53/config/preferences:
Processing $rem in /home/pierpa/.qchemrc:
The previous job contains 0 fragments, simply inherited here

!!********************************************.
!!******************Warning*******************.
!!Desired Analytical derivatives not available.
!!Finite difference job might take a long time.
!!********************************************.
!!********************************************.

 2-order derivative to be evaluated numerically with 1-order analytical derivatives

Checking the input file for inconsistencies... 	...done.

--------------------------------------------------------------
User input:
--------------------------------------------------------------

$Comment
Geometry optimizations for CLB18.
$End

$Rem
SYMMETRY              False
SYM_IGNORE            True
JOBTYPE               Freq
METHOD                HF-3c
BASIS                 MINIX
GEOM_OPT_MAX_CYCLES   150
GEOM_OPT_DMAX         10
MAX_SCF_CYCLES        50
SCF_ALGORITHM         DIIS
SCF_PRINT             1
SCF_FINAL_PRINT       1
XC_GRID               000099000590
MEM_TOTAL             20000
MEM_STATIC            4000
BLAS3_DFT             True
New_DFT               True
$End

$Molecule
Read
$End

--------------------------------------------------------------

 Total energy in the final basis set =     -138.5718052822
    8    -138.5718052967      5.89e-09  Convergence criterion met
 Total energy in the final basis set =     -138.5718052967
    7    -138.5718056273      9.47e-09  Convergence criterion met
 Total energy in the final basis set =     -138.5718056273
    8    -138.5718056291      4.01e-09  Convergence criterion met
 Total energy in the final basis set =     -138.5718056291
    8    -138.5718058113      7.85e-09  Convergence criterion met
 Total energy in the final basis set =     -138.5718058113
    9    -138.5718057632      5.07e-09  Convergence criterion met
 Total energy in the final basis set =     -138.5718057632
    8    -138.5718052951      8.23e-09  Convergence criterion met
 Total energy in the final basis set =     -138.5718052951
    8    -138.5718052843      5.96e-09  Convergence criterion met
 Total energy in the final basis set =     -138.5718052843

                    Orbital Energies (a.u.)
 --------------------------------------------------------------

 Alpha MOs
 -- Occupied --
-25.9766 -11.1766  -1.4724  -0.9460  -0.6125  -0.6124  -0.5861  -0.5300
 -0.5299  -0.3004

 Beta MOs
 -- Occupied --
-25.9888 -11.1515  -1.5198  -0.8929  -0.6322  -0.6118  -0.6117  -0.5302
 -0.5301

          Ground-State Mulliken Net Atomic Charges

     Atom                 Charge (a.u.)    Spin (a.u.)
  --------------------------------------------------------
      1 H                     0.088360       0.779392
      2 F                    -0.208941      -0.447612
      3 C                    -0.260406       0.814305
      4 H                     0.126976      -0.048651
      5 H                     0.126992      -0.048688
      6 H                     0.127019      -0.048746
  --------------------------------------------------------
  Sum of atomic charges =     0.000000

                    Cartesian Multipole Moments
 -----------------------------------------------------------------
    Charge (ESU x 10^10)
                 0.0000
    Dipole Moment (Debye)
         X      -0.0033      Y      -0.5483      Z       0.0002
       Tot       0.5483
    Quadrupole Moments (Debye-Ang)
        XX     -12.6075     XY      -0.0054     YY     -10.5832
        XZ       0.0006     YZ       0.0023     ZZ     -12.6052

             Standard Nuclear Orientation (Angstroms)
    I     Atom           X                Y                Z
 ----------------------------------------------------------------
    1      H      -0.0023192690     2.1398883894     0.0005806895
    2      F       0.0018586957     0.7918364497    -0.0004265066
    3      C       0.0005016496    -0.9148138419    -0.0001040688
    4      H       1.0525983284    -1.1967171750    -0.0000188104
    5      H      -0.5260948257    -1.1943073358     0.9114564779
    6      H      -0.5260936690    -1.1948916245    -0.9114877816
 ----------------------------------------------------------------

 Frequency:     -1889.94                 527.13                 527.16
 Force Cnst:      3.3159                 0.1828                 0.1828
 Red. Mass:       1.5756                 1.1166                 1.1167
 IR Intens:     2543.219                 14.261                 14.259
 Frequency:       791.70                 884.79                 885.36
 Force Cnst:      0.8045                 0.5514                 0.5521
 Red. Mass:       2.1785                 1.1955                 1.1954
 IR Intens:      100.239                  0.001                  0.001
 Frequency:      1315.00                1649.49                1649.51
 Force Cnst:      1.1761                 1.7307                 1.7307
 Red. Mass:       1.1543                 1.0796                 1.0796
 IR Intens:        0.116                  4.613                  4.618
 Frequency:      3492.95                3695.12                3695.15
 Force Cnst:      7.3249                 8.9719                 8.9720
 Red. Mass:       1.0190                 1.1153                 1.1153
 IR Intens:       68.267                 32.325                 32.329

 STANDARD THERMODYNAMIC QUANTITIES AT   298.15 K  AND     1.00 ATM

   This Molecule has  1 Imaginary Frequencies
   Zero point vibrational energy:       27.324 kcal/mol

   Atom    1 Element H  Has Mass    1.00783
   Atom    2 Element F  Has Mass   18.99840
   Atom    3 Element C  Has Mass   12.00000
   Atom    4 Element H  Has Mass    1.00783
   Atom    5 Element H  Has Mass    1.00783
   Atom    6 Element H  Has Mass    1.00783
   Molecular Mass:    35.029720 amu
   Principal axes and moments of inertia in amu*Bohr^2:
                             1           2           3
    Eigenvalues --       11.95993   115.59471   115.59483
          X               0.00041    -0.32975     0.94407
          Y               1.00000     0.00022    -0.00035
          Z              -0.00010     0.94407     0.32975
   Rotational Symmetry Number is   1
   The Molecule is an Asymmetric Top
   Translational Enthalpy:        0.889 kcal/mol
   Rotational Enthalpy:           0.889 kcal/mol
   Vibrational Enthalpy:         27.713 kcal/mol
   gas constant (RT):             0.592 kcal/mol
   Translational Entropy:        36.591  cal/mol.K
   Rotational Entropy:           19.708  cal/mol.K
   Vibrational Entropy:           1.736  cal/mol.K

   Total Enthalpy:               30.083 kcal/mol
   Total Entropy:                58.035  cal/mol.K

 Total job time:  5.84s(wall), 11.82s(cpu)
        *  Thank you very much for using Q-Chem.  Have a nice day.  *
