 Q-Chem 5.3 (devel), Q-Chem, Inc., Pleasanton, CA (2020)
 Q-Chem 5.3.0 for Intel X86 EM64T Linux

User input:
--------------------------------------------------------------
$Comment
Geometry optimizations for CLB18.
$End

$Rem
SYMMETRY              False
SYM_IGNORE            True
JOBTYPE               Opt
METHOD                HF-3c
BASIS                 MINIX
MAX_SCF_CYCLES        50
SCF_ALGORITHM         DIIS
SCF_PRINT             1
SCF_FINAL_PRINT       1
XC_GRID               000099000590
MEM_TOTAL             20000
MEM_STATIC            4000
BLAS3_DFT             True
New_DFT               True
$End

$Molecule
0 2
H -0.8520546860 1.2278922164 0.0000000000
C 0.0608612002 0.5846561496 0.0000000000
O 0.0608612002 -0.5919746704 0.0000000000
$End

--------------------------------------------------------------

   18    -112.4991602914      3.46e-09  Convergence criterion met
 Total energy in the final basis set =     -112.4991602914
   15    -112.4998590612      5.77e-09  Convergence criterion met
 Total energy in the final basis set =     -112.4998590612
   13    -112.4999487962      5.88e-09  Convergence criterion met
 Total energy in the final basis set =     -112.4999487962
   13    -112.4999541402      3.27e-09  Convergence criterion met
 Total energy in the final basis set =     -112.4999541402

             Standard Nuclear Orientation (Angstroms)
    I     Atom           X                Y                Z
 ----------------------------------------------------------------
    1      H      -0.8501759950     1.2509203021     0.0000000000
    2      C       0.0398945285     0.5807363627     0.0000000000
    3      O       0.0799491809    -0.6110829692     0.0000000000
 ----------------------------------------------------------------

   12    -112.4999543481      4.25e-09  Convergence criterion met
 Total energy in the final basis set =     -112.4999543481
 Final energy is   -112.49995434814866
 **  OPTIMIZATION CONVERGED  **

                    Orbital Energies (a.u.)
 --------------------------------------------------------------

 Alpha MOs
 -- Occupied --
-20.4285 -11.2796  -1.4380  -0.8510  -0.6851  -0.6094  -0.5353  -0.3686

 Beta MOs
 -- Occupied --
-20.4290 -11.2470  -1.4327  -0.7806  -0.6232  -0.5764  -0.5142

          Ground-State Mulliken Net Atomic Charges

     Atom                 Charge (a.u.)    Spin (a.u.)
  --------------------------------------------------------
      1 H                     0.155018       0.070044
      2 C                     0.176819       1.029668
      3 O                    -0.331837      -0.099712
  --------------------------------------------------------
  Sum of atomic charges =     0.000000

                    Cartesian Multipole Moments
 -----------------------------------------------------------------
    Charge (ESU x 10^10)
                     0.00000000
    Dipole Moment (Debye)
         X          -0.87015025      Y           1.88705632      Z           0.00000000
       Tot           2.07801420
    Quadrupole Moments (Debye-Ang)
        XX         -10.86162289     XY          -0.81890329     YY         -11.64294929
        XZ           0.00000000     YZ          -0.00000000     ZZ         -10.57406533

 Total job time:  1.26s(wall), 4.83s(cpu)
        *  Thank you very much for using Q-Chem.  Have a nice day.  *
