 Q-Chem 5.3 (devel), Q-Chem, Inc., Pleasanton, CA (2020)
 Q-Chem 5.3.0 for Intel X86 EM64T Linux

User input:
--------------------------------------------------------------
$Comment
Geometry optimizations for CLB18.
$End

$Rem
SYMMETRY              False
SYM_IGNORE            True
JOBTYPE               Opt
METHOD                HF-3c
BASIS                 MINIX
MAX_SCF_CYCLES        50
SCF_ALGORITHM         DIIS
SCF_PRINT             1
SCF_FINAL_PRINT       1
XC_GRID               000099000590
MEM_TOTAL             20000
MEM_STATIC            4000
BLAS3_DFT             True
New_DFT               True
$End

$Molecule
0 1
N 0.0000000000 0.0000000000 -1.1956759078
N 0.0000000000 0.0000000000 -0.0751108841
O 0.0000000000 0.0000000000 1.1119389060
$End

--------------------------------------------------------------

   11    -182.4737018103      4.06e-09  Convergence criterion met
 Total energy in the final basis set =     -182.4737018103
   10    -182.4745228345      2.54e-09  Convergence criterion met
 Total energy in the final basis set =     -182.4745228345
   10    -182.4751484004      1.82e-09  Convergence criterion met
 Total energy in the final basis set =     -182.4751484004
   10    -182.4757439071      7.05e-10  Convergence criterion met
 Total energy in the final basis set =     -182.4757439071

             Standard Nuclear Orientation (Angstroms)
    I     Atom           X                Y                Z
 ----------------------------------------------------------------
    1      N       0.0000000000     0.0000000000    -1.2104445710
    2      N       0.0000000000     0.0000000000    -0.0886953241
    3      O       0.0000000000     0.0000000000     1.1402920092
 ----------------------------------------------------------------

    9    -182.4757460821      8.00e-10  Convergence criterion met
 Total energy in the final basis set =     -182.4757460821
 Final energy is   -182.47574608214396
 **  OPTIMIZATION CONVERGED  **

                    Orbital Energies (a.u.)
 --------------------------------------------------------------

 Alpha MOs
 -- Occupied --
-20.4272 -15.8331 -15.6364  -1.6016  -1.4249  -0.7961  -0.7704  -0.7704
 -0.6633  -0.4601  -0.4601

          Ground-State Mulliken Net Atomic Charges

     Atom                 Charge (a.u.)
  ----------------------------------------
      1 N                     0.027717
      2 N                     0.228612
      3 O                    -0.256329
  ----------------------------------------
  Sum of atomic charges =     0.000000

                    Cartesian Multipole Moments
 -----------------------------------------------------------------
    Charge (ESU x 10^10)
                    -0.00000000
    Dipole Moment (Debye)
         X           0.00000000      Y          -0.00000000      Z          -0.99145024
       Tot           0.99145024
    Quadrupole Moments (Debye-Ang)
        XX         -15.14279246     XY          -0.00000000     YY         -15.14279246
        XZ          -0.00000000     YZ          -0.00000000     ZZ         -19.78711070

 Total job time:  1.10s(wall), 4.24s(cpu)
        *  Thank you very much for using Q-Chem.  Have a nice day.  *
