 Q-Chem 5.3 (devel), Q-Chem, Inc., Pleasanton, CA (2020)
 Q-Chem 5.3.0 for Intel X86 EM64T Linux

User input:
--------------------------------------------------------------
$Comment
Geometry optimizations for CLB18.
$End

$Rem
SYMMETRY              False
SYM_IGNORE            True
JOBTYPE               Opt
METHOD                HF-3c
BASIS                 MINIX
MAX_SCF_CYCLES        50
GEOM_OPT_MAX_CYCLES   150
SCF_ALGORITHM         DIIS
SCF_PRINT             1
SCF_FINAL_PRINT       1
XC_GRID               000099000590
MEM_TOTAL             20000
MEM_STATIC            4000
BLAS3_DFT             True
New_DFT               True
$End

$Molecule
-1 1
F 1.8990529646 -0.0764571109 -0.0054040106
C 0.4894132476 0.1054840685 0.0067680178
H 0.0013039985 -0.7861668315 -0.3611549795
H 0.1719429052 0.2983580491 1.0232435137
H 0.2497441263 0.9474706288 -0.6308850707
O -2.1694466440 -0.0731428741 -0.0023200029
H -3.0953691769 0.1806970838 -0.0046240034
$End

--------------------------------------------------------------

   11    -212.9061448022      8.07e-10  Convergence criterion met
 Total energy in the final basis set =     -212.9061448022
   10    -212.9089126167      2.06e-09  Convergence criterion met
 Total energy in the final basis set =     -212.9089126167
    9    -212.9090296675      3.56e-09  Convergence criterion met
 Total energy in the final basis set =     -212.9090296675
    9    -212.9090418675      2.50e-09  Convergence criterion met
 Total energy in the final basis set =     -212.9090418675
    9    -212.9090697423      2.93e-09  Convergence criterion met
 Total energy in the final basis set =     -212.9090697423
    9    -212.9091401436      2.98e-09  Convergence criterion met
 Total energy in the final basis set =     -212.9091401436
   10    -212.9094741219      1.87e-09  Convergence criterion met
 Total energy in the final basis set =     -212.9094741219
   10    -212.9098065905      2.20e-09  Convergence criterion met
    9    -212.9699678492      2.00e-09  Convergence criterion met
 Total energy in the final basis set =     -212.9699678492
    9    -212.9699912104      2.15e-09  Convergence criterion met
 Total energy in the final basis set =     -212.9699912104
    8    -212.9699987262      5.03e-09  Convergence criterion met
 Total energy in the final basis set =     -212.9699987262
    8    -212.9700093490      5.08e-09  Convergence criterion met
 Total energy in the final basis set =     -212.9700093490
    8    -212.9700149814      3.20e-09  Convergence criterion met
 Total energy in the final basis set =     -212.9700149814
    8    -212.9700168211      2.97e-09  Convergence criterion met
 Total energy in the final basis set =     -212.9700168211

             Standard Nuclear Orientation (Angstroms)
    I     Atom           X                Y                Z
 ----------------------------------------------------------------
    1      F       1.3905803851    -0.3303275775    -0.6245480821
    2      C       0.4379418280     0.3147762788     0.2246236893
    3      H      -1.1458324099    -0.2043726222     0.1190160506
    4      H       0.8448294446     0.2090370858     1.2373742523
    5      H       0.5390116286     1.3837032220    -0.0008997533
    6      O      -2.1731363630    -0.4684613806     0.0064527831
    7      H      -2.3467530893    -0.3081119927    -0.9363954774
 ----------------------------------------------------------------

    7    -212.9700171730      6.65e-09  Convergence criterion met
 Total energy in the final basis set =     -212.9700171730
 Final energy is   -212.97001717295655
 **  OPTIMIZATION CONVERGED  **

                    Orbital Energies (a.u.)
 --------------------------------------------------------------

 Alpha MOs
 -- Occupied --
-25.5821 -19.9309 -10.7653  -1.2169  -0.9936  -0.5811  -0.3648  -0.3341
 -0.3077  -0.2701  -0.2377  -0.1807  -0.1715   0.0054

          Ground-State Mulliken Net Atomic Charges

     Atom                 Charge (a.u.)
  ----------------------------------------
      1 F                    -0.445804
      2 C                    -0.328660
      3 H                     0.325674
      4 H                    -0.018764
      5 H                    -0.021474
      6 O                    -0.692119
      7 H                     0.181147
  ----------------------------------------
  Sum of atomic charges =    -1.000000

                    Cartesian Multipole Moments
 -----------------------------------------------------------------
    Charge (ESU x 10^10)
                    -4.80320440
    Dipole Moment (Debye)
         X           1.25539965      Y           1.26681713      Z          -0.47038470
       Tot           1.84448249
    Quadrupole Moments (Debye-Ang)
        XX         -32.56613139     XY          -2.00558121     YY         -20.46376077
        XZ           4.37858462     YZ          -0.21552134     ZZ         -18.86029672

 Total job time:  9.85s(wall), 102.34s(cpu)
        *  Thank you very much for using Q-Chem.  Have a nice day.  *
