 Q-Chem 5.3 (devel), Q-Chem, Inc., Pleasanton, CA (2020)
 Q-Chem 5.3.0 for Intel X86 EM64T Linux

User input:
--------------------------------------------------------------
$Comment
Geometry optimizations for CLB18.
$End

$Rem
SYMMETRY              False
SYM_IGNORE            True
JOBTYPE               Opt
METHOD                HF-3c
BASIS                 MINIX
MAX_SCF_CYCLES        50
SCF_ALGORITHM         DIIS
SCF_PRINT             1
SCF_FINAL_PRINT       1
XC_GRID               000099000590
MEM_TOTAL             20000
MEM_STATIC            4000
BLAS3_DFT             True
New_DFT               True
$End

$Molecule
0 2
S 0.0000000000 0.0000000000 0.0788352333
H 0.0000000000 0.0000000000 -1.2613679668
$End

--------------------------------------------------------------

   12    -396.1197545070      1.31e-09  Convergence criterion met
 Total energy in the final basis set =     -396.1197545070
    9    -396.1207026320      5.15e-09  Convergence criterion met
 Total energy in the final basis set =     -396.1207026320
    9    -396.1207996536      2.19e-09  Convergence criterion met
 Total energy in the final basis set =     -396.1207996536

             Standard Nuclear Orientation (Angstroms)
    I     Atom           X                Y                Z
 ----------------------------------------------------------------
    1      S       0.0000000000     0.0000000000     0.0997040647
    2      H       0.0000000000     0.0000000000    -1.2822367982
 ----------------------------------------------------------------

    8    -396.1208004555      2.15e-09  Convergence criterion met
 Total energy in the final basis set =     -396.1208004555
 Final energy is   -396.12080045545213
 **  OPTIMIZATION CONVERGED  **

                    Orbital Energies (a.u.)
 --------------------------------------------------------------

 Alpha MOs
 -- Occupied --
-91.2905  -8.9177  -6.5798  -6.5619  -6.5579  -0.9668  -0.5325  -0.4541
 -0.3901

 Beta MOs
 -- Occupied --
-91.2817  -8.9080  -6.5571  -6.5537  -6.5391  -0.8738  -0.5142  -0.3677

          Ground-State Mulliken Net Atomic Charges

     Atom                 Charge (a.u.)    Spin (a.u.)
  --------------------------------------------------------
      1 S                    -0.179682       1.037655
      2 H                     0.179682      -0.037655
  --------------------------------------------------------
  Sum of atomic charges =     0.000000

                    Cartesian Multipole Moments
 -----------------------------------------------------------------
    Charge (ESU x 10^10)
                     0.00000000
    Dipole Moment (Debye)
         X          -0.00000000      Y          -0.00000000      Z          -1.05769098
       Tot           1.05769098
    Quadrupole Moments (Debye-Ang)
        XX         -12.82180470     XY          -0.00002979     YY         -15.47841553
        XZ          -0.00000000     YZ          -0.00000000     ZZ         -12.15298151

 Total job time:  1.68s(wall), 5.24s(cpu)
        *  Thank you very much for using Q-Chem.  Have a nice day.  *
