 Q-Chem 5.3 (devel), Q-Chem, Inc., Pleasanton, CA (2020)
 Q-Chem 5.3.0 for Intel X86 EM64T Linux

User input:
--------------------------------------------------------------
$Comment
Geometry optimizations for CLB18.
$End

$Rem
SYMMETRY              False
SYM_IGNORE            True
JOBTYPE               Opt
METHOD                HF-3c
BASIS                 MINIX
MAX_SCF_CYCLES        50
SCF_ALGORITHM         DIIS
SCF_PRINT             1
SCF_FINAL_PRINT       1
XC_GRID               000099000590
MEM_TOTAL             20000
MEM_STATIC            4000
BLAS3_DFT             True
New_DFT               True
$End

$Molecule
-1 1
C -1.2979976133 -0.3895183489 -0.0000340000
O -0.4772231214 0.7280208395 0.0000539999
H -2.3519228216 -0.0802322612 -0.0086390296
H -1.1408531488 -1.0358220560 -0.8781007883
H -1.1531776860 -1.0275139738 0.8863612445
H 0.5105803361 0.3711601331 0.0002430003
F 1.7490153500 -0.1905170253 -0.0000100000
$End

--------------------------------------------------------------

   11    -213.0008814240      4.72e-09  Convergence criterion met
 Total energy in the final basis set =     -213.0008814240
   10    -213.0116025528      2.03e-09  Convergence criterion met
 Total energy in the final basis set =     -213.0116025528
   10    -213.0187710566      2.15e-09  Convergence criterion met
 Total energy in the final basis set =     -213.0187710566
    9    -213.0211436876      7.53e-09  Convergence criterion met
 Total energy in the final basis set =     -213.0211436876
    8    -213.0212678190      6.29e-09  Convergence criterion met
 Total energy in the final basis set =     -213.0212678190
    8    -213.0212965503      3.31e-09  Convergence criterion met
 Total energy in the final basis set =     -213.0212965503

             Standard Nuclear Orientation (Angstroms)
    I     Atom           X                Y                Z
 ----------------------------------------------------------------
    1      C      -1.3377206293    -0.3912283974    -0.0001355075
    2      O      -0.4528722235     0.6998779008    -0.0003863079
    3      H      -2.3940543053    -0.0829281465    -0.0081176714
    4      H      -1.2421542178    -1.0659230780    -0.8664630568
    5      H      -1.2526944386    -1.0571450602     0.8740884367
    6      H       0.7465273085     0.3036534869     0.0002237183
    7      F       1.7713898011    -0.0307293982     0.0006648154
 ----------------------------------------------------------------

    7    -213.0212982674      6.71e-09  Convergence criterion met
 Total energy in the final basis set =     -213.0212982674
 Final energy is   -213.02129826739832
 **  OPTIMIZATION CONVERGED  **

                    Orbital Energies (a.u.)
 --------------------------------------------------------------

 Alpha MOs
 -- Occupied --
-25.4030 -19.8216 -10.9427  -1.1055  -0.9438  -0.6510  -0.3703  -0.3485
 -0.3005  -0.1881  -0.1678  -0.1653  -0.0679  -0.0444

          Ground-State Mulliken Net Atomic Charges

     Atom                 Charge (a.u.)
  ----------------------------------------
      1 C                    -0.198332
      2 O                    -0.677659
      3 H                     0.043329
      4 H                     0.044640
      5 H                     0.044490
      6 H                     0.370730
      7 F                    -0.627199
  ----------------------------------------
  Sum of atomic charges =    -1.000000

                    Cartesian Multipole Moments
 -----------------------------------------------------------------
    Charge (ESU x 10^10)
                    -4.80320440
    Dipole Moment (Debye)
         X          -2.26849052      Y          -1.75086240      Z          -0.00080308
       Tot           2.86558354
    Quadrupole Moments (Debye-Ang)
        XX         -29.02312852     XY           1.43447755     YY         -20.90493205
        XZ          -0.00333942     YZ           0.00177634     ZZ         -18.93509129

 Total job time:  1.57s(wall), 7.85s(cpu)
        *  Thank you very much for using Q-Chem.  Have a nice day.  *
