 Q-Chem 5.3 (devel), Q-Chem, Inc., Pleasanton, CA (2020)
 Q-Chem 5.3.0 for Intel X86 EM64T Linux

User input:
--------------------------------------------------------------
$Comment
Geometry optimizations for CLB18.
$End

$Rem
SYMMETRY              False
SYM_IGNORE            True
JOBTYPE               Opt
METHOD                HF-3c
BASIS                 MINIX
MAX_SCF_CYCLES        50
SCF_ALGORITHM         DIIS
SCF_PRINT             1
SCF_FINAL_PRINT       1
XC_GRID               000099000590
MEM_TOTAL             20000
MEM_STATIC            4000
BLAS3_DFT             True
New_DFT               True
$End

$Molecule
0 3
N 0.0000000000 0.0000000000 0.1295912655
H 0.0000000000 0.0000000000 -0.9071420336
$End

--------------------------------------------------------------

    9     -54.5976946646      5.10e-10  Convergence criterion met
 Total energy in the final basis set =      -54.5976946646

             Standard Nuclear Orientation (Angstroms)
    I     Atom           X                Y                Z
 ----------------------------------------------------------------
    1      N       0.0000000000     0.0000000000     0.1447698321
    2      H       0.0000000000     0.0000000000    -0.9223206002
 ----------------------------------------------------------------

    7     -54.5984971423      4.03e-09  Convergence criterion met
 Total energy in the final basis set =      -54.5984971423
 Final energy is   -54.598497142303543
 **  OPTIMIZATION CONVERGED  **

                    Orbital Energies (a.u.)
 --------------------------------------------------------------

 Alpha MOs
 -- Occupied --
-15.3928  -1.1243  -0.5240  -0.4991  -0.4991

 Beta MOs
 -- Occupied --
-15.3283  -0.8713  -0.4443

          Ground-State Mulliken Net Atomic Charges

     Atom                 Charge (a.u.)    Spin (a.u.)
  --------------------------------------------------------
      1 N                    -0.152643       2.131456
      2 H                     0.152643      -0.131456
  --------------------------------------------------------
  Sum of atomic charges =    -0.000000

                    Cartesian Multipole Moments
 -----------------------------------------------------------------
    Charge (ESU x 10^10)
                    -0.00000000
    Dipole Moment (Debye)
         X          -0.00000000      Y           0.00000000      Z          -1.48975511
       Tot           1.48975511
    Quadrupole Moments (Debye-Ang)
        XX          -5.69459827     XY           0.00000000     YY          -5.69459827
        XZ          -0.00000000     YZ          -0.00000000     ZZ          -5.60861039

 Total job time:  0.41s(wall), 1.27s(cpu)
        *  Thank you very much for using Q-Chem.  Have a nice day.  *
