 Q-Chem 5.3 (devel), Q-Chem, Inc., Pleasanton, CA (2020)
 Q-Chem 5.3.0 for Intel X86 EM64T Linux

User input:
--------------------------------------------------------------
$Comment
Geometry optimizations for CLB18.
$End

$Rem
SYMMETRY              False
SYM_IGNORE            True
JOBTYPE               Opt
METHOD                HF-3c
BASIS                 MINIX
MAX_SCF_CYCLES        50
SCF_ALGORITHM         DIIS
SCF_PRINT             1
SCF_FINAL_PRINT       1
XC_GRID               000099000590
MEM_TOTAL             20000
MEM_STATIC            4000
BLAS3_DFT             True
New_DFT               True
$End

$Molecule
0 1
C 0.0000000000 0.0000000000 -0.7392552717
N 0.0000000000 0.0000000000 0.4300824280
H 0.0000000000 0.0000000000 1.4249525179
$End

--------------------------------------------------------------

   10     -92.2318453399      6.73e-10  Convergence criterion met
 Total energy in the final basis set =      -92.2318453399
    8     -92.2299788898      6.67e-09  Convergence criterion met
 Total energy in the final basis set =      -92.2299788898
    8     -92.2323847008      4.75e-09  Convergence criterion met
 Total energy in the final basis set =      -92.2323847008

             Standard Nuclear Orientation (Angstroms)
    I     Atom           X                Y                Z
 ----------------------------------------------------------------
    1      C       0.0000000000     0.0000000000    -0.7351221712
    2      N       0.0000000000     0.0000000000     0.4218009791
    3      H       0.0000000000     0.0000000000     1.4291008663
 ----------------------------------------------------------------

    7     -92.2323858636      1.38e-09  Convergence criterion met
 Total energy in the final basis set =      -92.2323858636
 Final energy is   -92.232385863601721
 **  OPTIMIZATION CONVERGED  **

                    Orbital Energies (a.u.)
 --------------------------------------------------------------

 Alpha MOs
 -- Occupied --
-15.4717 -11.1711  -1.2532  -0.8418  -0.5176  -0.5176  -0.4466

          Ground-State Mulliken Net Atomic Charges

     Atom                 Charge (a.u.)
  ----------------------------------------
      1 C                     0.139016
      2 N                    -0.456594
      3 H                     0.317578
  ----------------------------------------
  Sum of atomic charges =     0.000000

                    Cartesian Multipole Moments
 -----------------------------------------------------------------
    Charge (ESU x 10^10)
                     0.00000000
    Dipole Moment (Debye)
         X           0.00000000      Y          -0.00000000      Z           2.60695162
       Tot           2.60695162
    Quadrupole Moments (Debye-Ang)
        XX         -11.28664719     XY           0.00000000     YY         -11.28664719
        XZ          -0.00000000     YZ           0.00000000     ZZ         -10.58298901

 Total job time:  0.78s(wall), 2.99s(cpu)
        *  Thank you very much for using Q-Chem.  Have a nice day.  *
