 Q-Chem 5.3 (devel), Q-Chem, Inc., Pleasanton, CA (2020)
 Q-Chem 5.3.0 for Intel X86 EM64T Linux

User input:
--------------------------------------------------------------
$Comment
Geometry optimizations for CLB18.
$End

$Rem
SYMMETRY              False
SYM_IGNORE            True
JOBTYPE               Opt
METHOD                HF-3c
BASIS                 MINIX
MAX_SCF_CYCLES        50
SCF_ALGORITHM         DIIS
SCF_PRINT             1
SCF_FINAL_PRINT       1
XC_GRID               000099000590
MEM_TOTAL             20000
MEM_STATIC            4000
BLAS3_DFT             True
New_DFT               True
$End

$Molecule
0 1
N 0.0000000000 0.0000000000 0.5485556803
N 0.0000000000 0.0000000000 -0.5485556803
$End

--------------------------------------------------------------

    5    -108.2031918109      5.51e-09  Convergence criterion met
 Total energy in the final basis set =     -108.2031918109
    4    -108.2031564103      8.04e-11  Convergence criterion met
 Total energy in the final basis set =     -108.2031564103

             Standard Nuclear Orientation (Angstroms)
    I     Atom           X                Y                Z
 ----------------------------------------------------------------
    1      N       0.0000000000     0.0000000000     0.5493275161
    2      N       0.0000000000     0.0000000000    -0.5493275161
 ----------------------------------------------------------------

    4    -108.2031989706      4.11e-11  Convergence criterion met
 Total energy in the final basis set =     -108.2031989706
 Final energy is   -108.20319897061307
 **  OPTIMIZATION CONVERGED  **

                    Orbital Energies (a.u.)
 --------------------------------------------------------------

 Alpha MOs
 -- Occupied --
-15.6161 -15.6139  -1.5080  -0.7739  -0.6288  -0.6288  -0.5879

          Ground-State Mulliken Net Atomic Charges

     Atom                 Charge (a.u.)
  ----------------------------------------
      1 N                     0.000000
      2 N                    -0.000000
  ----------------------------------------
  Sum of atomic charges =     0.000000

                    Cartesian Multipole Moments
 -----------------------------------------------------------------
    Charge (ESU x 10^10)
                    -0.00000000
    Dipole Moment (Debye)
         X           0.00000000      Y          -0.00000000      Z           0.00000000
       Tot           0.00000000
    Quadrupole Moments (Debye-Ang)
        XX          -9.94835198     XY          -0.00000000     YY          -9.94835198
        XZ           0.00000000     YZ           0.00000000     ZZ         -12.64978174

 Total job time:  0.37s(wall), 1.46s(cpu)
        *  Thank you very much for using Q-Chem.  Have a nice day.  *
