 Q-Chem 5.3 (devel), Q-Chem, Inc., Pleasanton, CA (2020)
 Q-Chem 5.3.0 for Intel X86 EM64T Linux

User input:
--------------------------------------------------------------
$Comment
Geometry optimizations for CLB18.
$End

$Rem
SYMMETRY              False
SYM_IGNORE            True
JOBTYPE               Opt
METHOD                HF-3c
BASIS                 MINIX
MAX_SCF_CYCLES        50
SCF_ALGORITHM         DIIS
SCF_PRINT             1
SCF_FINAL_PRINT       1
XC_GRID               000099000590
MEM_TOTAL             20000
MEM_STATIC            4000
BLAS3_DFT             True
New_DFT               True
$End

$Molecule
0 2
O 0.0000000000 0.0000000000 0.1076552826
H 0.0000000000 0.0000000000 -0.8612412023
$End

--------------------------------------------------------------

    9     -74.9034490912      7.00e-10  Convergence criterion met
 Total energy in the final basis set =      -74.9034490912
    7     -74.9047828986      4.89e-09  Convergence criterion met
 Total energy in the final basis set =      -74.9047828986
    7     -74.9048673836      4.17e-10  Convergence criterion met
 Total energy in the final basis set =      -74.9048673836

             Standard Nuclear Orientation (Angstroms)
    I     Atom           X                Y                Z
 ----------------------------------------------------------------
    1      O       0.0000000000     0.0000000000     0.1256979259
    2      H       0.0000000000     0.0000000000    -0.8792838456
 ----------------------------------------------------------------

    7     -74.9048682702      5.07e-11  Convergence criterion met
 Total energy in the final basis set =      -74.9048682702
 Final energy is   -74.904868270165920
 **  OPTIMIZATION CONVERGED  **

                    Orbital Energies (a.u.)
 --------------------------------------------------------------

 Alpha MOs
 -- Occupied --
-20.3686  -1.3331  -0.6067  -0.5934  -0.5100

 Beta MOs
 -- Occupied --
-20.3320  -1.1772  -0.5648  -0.4645

          Ground-State Mulliken Net Atomic Charges

     Atom                 Charge (a.u.)    Spin (a.u.)
  --------------------------------------------------------
      1 O                    -0.282845       1.066555
      2 H                     0.282845      -0.066555
  --------------------------------------------------------
  Sum of atomic charges =     0.000000

                    Cartesian Multipole Moments
 -----------------------------------------------------------------
    Charge (ESU x 10^10)
                     0.00000000
    Dipole Moment (Debye)
         X           0.00000000      Y           0.00000000      Z          -1.74716273
       Tot           1.74716273
    Quadrupole Moments (Debye-Ang)
        XX          -5.05253504     XY          -0.00000198     YY          -6.00965356
        XZ           0.00000000     YZ          -0.00000000     ZZ          -4.42872146

 Total job time:  0.64s(wall), 1.86s(cpu)
        *  Thank you very much for using Q-Chem.  Have a nice day.  *
