 Q-Chem 5.3 (devel), Q-Chem, Inc., Pleasanton, CA (2020)
 Q-Chem 5.3.0 for Intel X86 EM64T Linux

User input:
--------------------------------------------------------------
$Comment
Geometry optimizations for CLB18.
$End

$Rem
SYMMETRY              False
SYM_IGNORE            True
JOBTYPE               Opt
METHOD                HF-3c
BASIS                 MINIX
MAX_SCF_CYCLES        50
SCF_ALGORITHM         DIIS
SCF_PRINT             1
SCF_FINAL_PRINT       1
XC_GRID               000099000590
MEM_TOTAL             20000
MEM_STATIC            4000
BLAS3_DFT             True
New_DFT               True
$End

$Molecule
-1 1
O 0.0000000000 0.0000000000 0.1068937966
H 0.0000000000 0.0000000000 -0.8551503727
$End

--------------------------------------------------------------

    7     -74.7155279745      1.00e-09  Convergence criterion met
 Total energy in the final basis set =      -74.7155279745
    5     -74.7166510007      1.85e-09  Convergence criterion met
 Total energy in the final basis set =      -74.7166510007

             Standard Nuclear Orientation (Angstroms)
    I     Atom           X                Y                Z
 ----------------------------------------------------------------
    1      O       0.0000000000     0.0000000000     0.1245009849
    2      H       0.0000000000     0.0000000000    -0.8727575610
 ----------------------------------------------------------------

    5     -74.7166563565      6.47e-12  Convergence criterion met
 Total energy in the final basis set =      -74.7166563565
 Final energy is   -74.716656356451125
 **  OPTIMIZATION CONVERGED  **

                    Orbital Energies (a.u.)
 --------------------------------------------------------------

 Alpha MOs
 -- Occupied --
-19.4642  -0.6485  -0.0014   0.1396   0.1396

          Ground-State Mulliken Net Atomic Charges

     Atom                 Charge (a.u.)
  ----------------------------------------
      1 O                    -0.945094
      2 H                    -0.054906
  ----------------------------------------
  Sum of atomic charges =    -1.000000

                    Cartesian Multipole Moments
 -----------------------------------------------------------------
    Charge (ESU x 10^10)
                    -4.80320440
    Dipole Moment (Debye)
         X           0.00000000      Y           0.00000000      Z          -0.90215623
       Tot           0.90215623
    Quadrupole Moments (Debye-Ang)
        XX          -6.59419643     XY          -0.00000000     YY          -6.59419643
        XZ           0.00000000     YZ          -0.00000000     ZZ          -6.19989826

 Total job time:  0.47s(wall), 1.50s(cpu)
        *  Thank you very much for using Q-Chem.  Have a nice day.  *
