 Q-Chem 5.3 (devel), Q-Chem, Inc., Pleasanton, CA (2020)
 Q-Chem 5.3.0 for Intel X86 EM64T Linux

User input:
--------------------------------------------------------------
$Comment
Geometry optimizations for CLB18.
$End

$Rem
SYMMETRY              False
SYM_IGNORE            True
JOBTYPE               Opt
METHOD                HF-3c
BASIS                 MINIX
MAX_SCF_CYCLES        50
SCF_ALGORITHM         DIIS
SCF_PRINT             1
SCF_FINAL_PRINT       1
XC_GRID               000099000590
MEM_TOTAL             20000
MEM_STATIC            4000
BLAS3_DFT             True
New_DFT               True
$End

$Molecule
0 2
P 0.0000000000 0.0000000000 0.1156569712
H 0.0000000000 1.0201319517 -0.8674272839
H 0.0000000000 -1.0201319517 -0.8674272839
$End

--------------------------------------------------------------

   12    -340.1238468632      1.44e-09  Convergence criterion met
 Total energy in the final basis set =     -340.1238468632
    9    -340.1243314034      4.71e-09  Convergence criterion met
 Total energy in the final basis set =     -340.1243314034
    8    -340.1244141771      5.39e-09  Convergence criterion met
 Total energy in the final basis set =     -340.1244141771

             Standard Nuclear Orientation (Angstroms)
    I     Atom           X                Y                Z
 ----------------------------------------------------------------
    1      P       0.0000000000    -0.0000138796     0.1209126546
    2      H       0.0000000000     1.0441188682    -0.8700617417
    3      H       0.0000000000    -1.0441049886    -0.8700485095
 ----------------------------------------------------------------

    7    -340.1244143895      5.25e-09  Convergence criterion met
 Total energy in the final basis set =     -340.1244143895
 Final energy is   -340.12441438947508
 **  OPTIMIZATION CONVERGED  **

                    Orbital Energies (a.u.)
 --------------------------------------------------------------

 Alpha MOs
 -- Occupied --
-79.3356  -7.4247  -5.2977  -5.2825  -5.2805  -0.8334  -0.5058  -0.4105
 -0.3613

 Beta MOs
 -- Occupied --
-79.3276  -7.4149  -5.2770  -5.2766  -5.2613  -0.7621  -0.5013  -0.3862

          Ground-State Mulliken Net Atomic Charges

     Atom                 Charge (a.u.)    Spin (a.u.)
  --------------------------------------------------------
      1 P                    -0.182987       1.090351
      2 H                     0.091494      -0.045177
      3 H                     0.091493      -0.045174
  --------------------------------------------------------
  Sum of atomic charges =    -0.000000

                    Cartesian Multipole Moments
 -----------------------------------------------------------------
    Charge (ESU x 10^10)
                    -0.00000000
    Dipole Moment (Debye)
         X           0.00000000      Y           0.00001089      Z          -0.94013983
       Tot           0.94013983
    Quadrupole Moments (Debye-Ang)
        XX         -14.52550451     XY           0.00000000     YY         -13.78983454
        XZ          -0.00000000     YZ          -0.00002700     ZZ         -15.23979064

 Total job time:  1.72s(wall), 5.23s(cpu)
        *  Thank you very much for using Q-Chem.  Have a nice day.  *
