 Q-Chem 5.3 (devel), Q-Chem, Inc., Pleasanton, CA (2020)
 Q-Chem 5.3.0 for Intel X86 EM64T Linux

User input:
--------------------------------------------------------------
$Comment
Geometry optimizations for CLB18.
$End

$Rem
SYMMETRY              False
SYM_IGNORE            True
JOBTYPE               Opt
METHOD                HF-3c
BASIS                 MINIX
MAX_SCF_CYCLES        50
SCF_ALGORITHM         DIIS
SCF_PRINT             1
SCF_FINAL_PRINT       1
XC_GRID               000099000590
MEM_TOTAL             20000
MEM_STATIC            4000
BLAS3_DFT             True
New_DFT               True
$End

$Molecule
0 1
P 0.0000000000 0.0000000000 0.5688490971
H 0.5956709732 1.0317323902 -0.1896163657
H 0.5956709732 -1.0317323902 -0.1896163657
H -1.1913419464 0.0000000000 -0.1896163657
$End

--------------------------------------------------------------

    9    -340.7123331423      2.14e-09  Convergence criterion met
 Total energy in the final basis set =     -340.7123331423
    7    -340.7130825975      6.67e-09  Convergence criterion met
 Total energy in the final basis set =     -340.7130825975
    7    -340.7132182537      1.90e-09  Convergence criterion met
 Total energy in the final basis set =     -340.7132182537

             Standard Nuclear Orientation (Angstroms)
    I     Atom           X                Y                Z
 ----------------------------------------------------------------
    1      P      -0.0000047869     0.0000004120     0.5703402633
    2      H       0.6085889742     1.0541014036    -0.1901142761
    3      H       0.6085435413    -1.0540754475    -0.1901145759
    4      H      -1.2171277286    -0.0000263680    -0.1901114113
 ----------------------------------------------------------------

    6    -340.7132185194      6.31e-10  Convergence criterion met
 Total energy in the final basis set =     -340.7132185194
 Final energy is   -340.71321851939734
 **  OPTIMIZATION CONVERGED  **

                    Orbital Energies (a.u.)
 --------------------------------------------------------------

 Alpha MOs
 -- Occupied --
-79.3533  -7.4329  -5.2948  -5.2948  -5.2933  -0.8358  -0.5087  -0.5087
 -0.3737

          Ground-State Mulliken Net Atomic Charges

     Atom                 Charge (a.u.)
  ----------------------------------------
      1 P                    -0.288546
      2 H                     0.096183
      3 H                     0.096181
      4 H                     0.096181
  ----------------------------------------
  Sum of atomic charges =     0.000000

                    Cartesian Multipole Moments
 -----------------------------------------------------------------
    Charge (ESU x 10^10)
                     0.00000000
    Dipole Moment (Debye)
         X           0.00001703      Y           0.00002786      Z          -0.99954509
       Tot           0.99954509
    Quadrupole Moments (Debye-Ang)
        XX         -14.63943485     XY           0.00007001     YY         -14.63936052
        XZ          -0.00000411     YZ           0.00000399     ZZ         -17.57236148

 Total job time:  1.55s(wall), 4.91s(cpu)
        *  Thank you very much for using Q-Chem.  Have a nice day.  *
