 Q-Chem 5.3 (devel), Q-Chem, Inc., Pleasanton, CA (2020)
 Q-Chem 5.3.0 for Intel X86 EM64T Linux

User input:
--------------------------------------------------------------
$Comment
Geometry optimizations for CLB18.
$End

$Rem
SYMMETRY              False
SYM_IGNORE            True
JOBTYPE               Opt
METHOD                HF-3c
BASIS                 MINIX
MAX_SCF_CYCLES        50
SCF_ALGORITHM         DIIS
SCF_PRINT             1
SCF_FINAL_PRINT       1
XC_GRID               000099000590
MEM_TOTAL             20000
MEM_STATIC            4000
BLAS3_DFT             True
New_DFT               True
$End

$Molecule
0 2
N 0.0000000000 0.0000000000 0.1414152011
H 0.0000000000 0.8023120282 -0.4949542622
H 0.0000000000 -0.8023120282 -0.4949542622
$End

--------------------------------------------------------------

   11     -55.1773618504      4.38e-10  Convergence criterion met
 Total energy in the final basis set =      -55.1773618504
    9     -55.1778828001      1.15e-09  Convergence criterion met
 Total energy in the final basis set =      -55.1778828001
    8     -55.1779692311      2.67e-09  Convergence criterion met
 Total energy in the final basis set =      -55.1779692311

             Standard Nuclear Orientation (Angstroms)
    I     Atom           X                Y                Z
 ----------------------------------------------------------------
    1      N       0.0000000000    -0.0000013859     0.1459455116
    2      H       0.0000000000     0.8191379380    -0.4972199539
    3      H       0.0000000000    -0.8191365521    -0.4972188811
 ----------------------------------------------------------------

    8     -55.1779705433      2.29e-10  Convergence criterion met
 Total energy in the final basis set =      -55.1779705433
 Final energy is   -55.177970543298017
 **  OPTIMIZATION CONVERGED  **

                    Orbital Energies (a.u.)
 --------------------------------------------------------------

 Alpha MOs
 -- Occupied --
-15.3790  -1.1294  -0.6015  -0.4829  -0.4581

 Beta MOs
 -- Occupied --
-15.3432  -1.0025  -0.5797  -0.4099

          Ground-State Mulliken Net Atomic Charges

     Atom                 Charge (a.u.)    Spin (a.u.)
  --------------------------------------------------------
      1 N                    -0.353146       1.143934
      2 H                     0.176573      -0.071967
      3 H                     0.176573      -0.071966
  --------------------------------------------------------
  Sum of atomic charges =    -0.000000

                    Cartesian Multipole Moments
 -----------------------------------------------------------------
    Charge (ESU x 10^10)
                    -0.00000000
    Dipole Moment (Debye)
         X          -0.00000000      Y           0.00000238      Z          -1.97577961
       Tot           1.97577961
    Quadrupole Moments (Debye-Ang)
        XX          -6.49245255     XY          -0.00000000     YY          -5.50161405
        XZ          -0.00000000     YZ          -0.00000138     ZZ          -6.95148583

 Total job time:  0.71s(wall), 2.17s(cpu)
        *  Thank you very much for using Q-Chem.  Have a nice day.  *
