 Q-Chem 5.3 (devel), Q-Chem, Inc., Pleasanton, CA (2020)
 Q-Chem 5.3.0 for Intel X86 EM64T Linux

User input:
--------------------------------------------------------------
$Comment
Geometry optimizations for CLB18.
$End

$Rem
SYMMETRY              False
SYM_IGNORE            True
JOBTYPE               Opt
METHOD                HF-3c
BASIS                 MINIX
MAX_SCF_CYCLES        50
SCF_ALGORITHM         DIIS
SCF_PRINT             1
SCF_FINAL_PRINT       1
XC_GRID               000099000590
MEM_TOTAL             20000
MEM_STATIC            4000
BLAS3_DFT             True
New_DFT               True
$End

$Molecule
0 1
N 0.0000000000 0.0000000000 0.2822266073
H 0.4690122280 0.8123530082 -0.0940755358
H 0.4690122280 -0.8123530082 -0.0940755358
H -0.9380244560 0.0000000000 -0.0940755358
$End

--------------------------------------------------------------

    8     -55.8006601377      5.21e-10  Convergence criterion met
 Total energy in the final basis set =      -55.8006601377
    7     -55.8013550856      1.96e-10  Convergence criterion met
 Total energy in the final basis set =      -55.8013550856
    6     -55.8014695475      1.17e-09  Convergence criterion met
 Total energy in the final basis set =      -55.8014695475

             Standard Nuclear Orientation (Angstroms)
    I     Atom           X                Y                Z
 ----------------------------------------------------------------
    1      N       0.0000018837     0.0000045610     0.2417226755
    2      H       0.4798501727     0.8311220882    -0.0805728299
    3      H       0.4798333667    -0.8311154259    -0.0805750817
    4      H      -0.9596854230    -0.0000112233    -0.0805747640
 ----------------------------------------------------------------

    6     -55.8014720583      9.04e-11  Convergence criterion met
 Total energy in the final basis set =      -55.8014720583
 Final energy is   -55.801472058323256
 **  OPTIMIZATION CONVERGED  **

                    Orbital Energies (a.u.)
 --------------------------------------------------------------

 Alpha MOs
 -- Occupied --
-15.3393  -1.1045  -0.6015  -0.6015  -0.3895

          Ground-State Mulliken Net Atomic Charges

     Atom                 Charge (a.u.)
  ----------------------------------------
      1 N                    -0.603776
      2 H                     0.201260
      3 H                     0.201258
      4 H                     0.201258
  ----------------------------------------
  Sum of atomic charges =     0.000000

                    Cartesian Multipole Moments
 -----------------------------------------------------------------
    Charge (ESU x 10^10)
                    -0.00000000
    Dipole Moment (Debye)
         X          -0.00000378      Y          -0.00000940      Z          -1.68460185
       Tot           1.68460185
    Quadrupole Moments (Debye-Ang)
        XX          -6.03995097     XY           0.00005065     YY          -6.03990684
        XZ          -0.00000004     YZ          -0.00000013     ZZ          -8.74201985

 Total job time:  0.61s(wall), 1.90s(cpu)
        *  Thank you very much for using Q-Chem.  Have a nice day.  *
