 Q-Chem 5.3 (devel), Q-Chem, Inc., Pleasanton, CA (2020)
 Q-Chem 5.3.1 for Intel X86 EM64T Linux

User input:
--------------------------------------------------------------
$Comment
Geometry optimizations for CLB18.
$End

$Rem
SYMMETRY              False
SYM_IGNORE            True
JOBTYPE               TS
METHOD                HF-3c
BASIS                 MINIX
GEOM_OPT_MAX_CYCLES   150
GEOM_OPT_DMAX         10
MAX_SCF_CYCLES        50
SCF_ALGORITHM         DIIS
SCF_PRINT             1
SCF_FINAL_PRINT       1
XC_GRID               000099000590
MEM_TOTAL             20000
MEM_STATIC            4000
BLAS3_DFT             True
New_DFT               True
$End

$Molecule
0 2
C 0.0000000000 0.2648129765 0.0000000000
H 1.0534277818 0.5166679907 0.0000000000
H -0.5266271058 0.5170251853 0.9122485937
H -0.5266271058 0.5170251853 -0.9122485937
H -0.0002600001 -1.1177704388 0.0000000000
H 0.0000850001 -2.0218273693 0.0000000000
$End

--------------------------------------------------------------

   13     -40.3694672718      1.71e-09  Convergence criterion met
 Total energy in the final basis set =      -40.3694672718
    9     -40.3693469369      3.43e-09  Convergence criterion met
 Total energy in the final basis set =      -40.3693469369
    9     -40.3692674671      9.68e-09  Convergence criterion met
 Total energy in the final basis set =      -40.3692674671
    9     -40.3692042026      9.98e-09  Convergence criterion met
 Total energy in the final basis set =      -40.3692042026
    9     -40.3691436134      9.90e-09  Convergence criterion met
 Total energy in the final basis set =      -40.3691436134
    9     -40.3690850037      9.76e-09  Convergence criterion met
 Total energy in the final basis set =      -40.3690850037
    9     -40.3690286353      9.58e-09  Convergence criterion met
 Total energy in the final basis set =      -40.3690286353
    9     -40.3689746702      9.35e-09  Convergence criterion met
 **  OPTIMIZATION CONVERGED  **
 Total job time:  3.17s(wall), 6.51s(cpu)
        *  Thank you very much for using Q-Chem.  Have a nice day.  *

User input: 2 of 2

                  Welcome to Q-Chem
     A Quantum Leap Into The Future Of Chemistry

 Q-Chem 5.3 (devel), Q-Chem, Inc., Pleasanton, CA (2020)

 Yihan Shao,  Zhengting Gan,  E. Epifanovsky,  A. T. B. Gilbert,  M. Wormit,
 J. Kussmann,  A. W. Lange,  A. Behn,  Jia Deng,  Xintian Feng,  D. Ghosh,
 M. Goldey,  P. R. Horn,  L. D. Jacobson,  I. Kaliman,  T. Kus,  A. Landau,
 Jie Liu,  E. I. Proynov,  R. M. Richard,  R. P. Steele,  E. J. Sundstrom,
 H. L. Woodcock III,  P. M. Zimmerman,  D. Zuev,  B. Alam,  B. Albrecht,
 A. Aldossary,  E. Alguire,  S. A. Baeppler,  D. Barton,  Z. Benda,
 Y. A. Bernard,  E. J. Berquist,  K. B. Bravaya,  H. Burton,  K. Carter-Fenk,
 D. Casanova,  Chun-Min Chang,  Yunqing Chen,  A. Chien,  K. D. Closser,
 M. P. Coons,  S. Coriani,  S. Dasgupta,  A. L. Dempwolff,  M. Diedenhofen,
 Hainam Do,  R. G. Edgar,  Po-Tung Fang,  S. Faraji,  S. Fatehi,
 Qingguo Feng,  J. Fosso-Tande,  J. Gayvert,  Qinghui Ge,  A. Ghysels,
 G. Gidofalvi,  J. Gomes,  J. Gonthier,  S. Gulania,  A. Gunina,  D. Hait,
 M. W. D. Hanson-Heine,  S. Hammes-Schiffer,  P. H. P. Harbach,
 A. W. Hauser,  M. F. Herbst,  J. E. Herr,  E. G. Hohenstein,  Z. C. Holden,
 S. Houck,  Kerwin Hui,  B. C. Huynh,  M. Ivanov,  T.-C. Jagau,  Hyunjun Ji,
 B. Kaduk,  K. Khistyaev,  Jaehoon Kim,  P. Klunzinger,  K. Koh,
 D. Kosenkov,  L. Koulias,  T. Kowalczyk,  C. M. Krauter,  A. Kunitsa,
 Ka Un Lao,  A. Laurent,  K. V. Lawler,  Joonho Lee,  D. Lefrancois,
 S. Lehtola,  D. S. Levine,  Yi-Pei Li,  You-Sheng Lin,  Fenglai Liu,
 Kuan-Yu Liu,  E. Livshits,  M. Loipersberger,  A. Luenser,  P. Manohar,
 E. Mansoor,  S. F. Manzer,  Shan-Ping Mao,  Yuezhi Mao,  N. Mardirossian,
 A. V. Marenich,  T. Markovich,  L. A. Martinez-Martinez,  S. A. Maurer,
 N. J. Mayhall,  S. C. McKenzie,  J.-M. Mewes,  P. Morgante,  A. F. Morrison,
 J. W. Mullinax,  K. Nanda,  T. S. Nguyen-Beck,  R. Olivares-Amaya,
 K. J. Oosterbaan,  J. A. Parkhill,  S. K. Paul,  F. Pavosevic,  Zheng Pei,
 T. M. Perrine,  F. Plasser,  P. Pokhilko,  S. Prager,  A. Prociuk,
 E. Ramos,  B. Rana,  D. R. Rehn,  F. Rob,  E. Rossomme,  M. Scheurer,
 M. Schneider,  N. Sergueev,  S. M. Sharada,  S. Sharma,  W. Skomorowski,
 D. W. Small,  T. Stauch,  C. J. Stein,  T. Stein,  Yu-Chuan Su,
 S. P. Veccham,  Zhen Tao,  A. J. W. Thom,  A. Tkatchenko,  T. Tsuchimochi,
 N. M. Tubman,  L. Vogt,  M. L. Vidal,  O. Vydrov,  M. A. Watson,  J. Wenzel,
 M. de Wergifosse,  T. A. Wesolowski,  A. White,  J. Witte,  A. Yamada,
 Jun Yang,  K. Yao,  S. Yeganeh,  S. R. Yost,  Zhi-Qiang You,  A. Zech,
 Igor Ying Zhang,  Xing Zhang,  Yan Zhao,  Ying Zhu,  B. R. Brooks,
 G. K. L. Chan,  C. J. Cramer,  M. S. Gordon,  W. J. Hehre,  A. Klamt,
 M. W. Schmidt,  C. D. Sherrill,  D. G. Truhlar,  A. Aspuru-Guzik,  R. Baer,
 A. T. Bell,  N. A. Besley,  Jeng-Da Chai,  A. E. DePrince, III,
 R. A. DiStasio Jr.,  A. Dreuw,  B. D. Dunietz,  T. R. Furlani,
 Chao-Ping Hsu,  Yousung Jung,  Jing Kong,  D. S. Lambrecht,  WanZhen Liang,
 C. Ochsenfeld,  V. A. Rassolov,  L. V. Slipchenko,  J. E. Subotnik,
 T. Van Voorhis,  J. M. Herbert,  A. I. Krylov,  P. M. W. Gill,  M. Head-Gordon

 Contributors to earlier versions of Q-Chem not listed above:
 R. D. Adamson,  B. Austin,  J. Baker,  G. J. O. Beran,  K. Brandhorst,
 S. T. Brown,  E. F. C. Byrd,  A. K. Chakraborty,  C.-L. Cheng,
 Siu Hung Chien,  D. M. Chipman,  D. L. Crittenden,  H. Dachsel,
 R. J. Doerksen,  A. D. Dutoi,  L. Fusti-Molnar,  W. A. Goddard III,
 A. Golubeva-Zadorozhnaya,  S. R. Gwaltney,  G. Hawkins,  A. Heyden,
 S. Hirata,  G. Kedziora,  F. J. Keil,  C. Kelley,  Jihan Kim,  R. A. King,
 R. Z. Khaliullin,  P. P. Korambath,  W. Kurlancheek,  A. M. Lee,  M. S. Lee,
 S. V. Levchenko,  Ching Yeh Lin,  D. Liotard,  R. C. Lochan,  I. Lotan,
 P. E. Maslen,  N. Nair,  D. P. O'Neill,  D. Neuhauser,  E. Neuscamman,
 C. M. Oana,  R. Olson,  B. Peters,  R. Peverati,  P. A. Pieniazek,
 Y. M. Rhee,  J. Ritchie,  M. A. Rohrdanz,  E. Rosta,  N. J. Russ,
 H. F. Schaefer III,  N. E. Schultz,  N. Shenvi,  A. C. Simmonett,  A. Sodt,
 D. Stuck,  K. S. Thanthiriwatte,  V. Vanovschi,  Tao Wang,  A. Warshel,
 C. F. Williams,  Q. Wu,  X. Xu,  W. Zhang

 Please cite Q-Chem as follows:
 Y. Shao et al., Mol. Phys. 113, 184-215 (2015)
 DOI: 10.1080/00268976.2014.952696

 Q-Chem 5.3.1 for Intel X86 EM64T Linux

 Parts of Q-Chem use Armadillo 9.800.1 (Horizon Scraper).
 http://arma.sourceforge.net/

 Q-Chem begins on Fri Oct 30 10:25:08 2020

Host:
0

     Scratch files written to /data/scratch/MN_80_RKT03_BH76_HF_3c//
Processing $rem in /home/pierpa/qchem53/config/preferences:
Processing $rem in /home/pierpa/.qchemrc:
The previous job contains 0 fragments, simply inherited here

!!********************************************.
!!******************Warning*******************.
!!Desired Analytical derivatives not available.
!!Finite difference job might take a long time.
!!********************************************.
!!********************************************.

 2-order derivative to be evaluated numerically with 1-order analytical derivatives

Checking the input file for inconsistencies... 	...done.

--------------------------------------------------------------
User input:
--------------------------------------------------------------

$Comment
Geometry optimizations for CLB18.
$End

$Rem
SYMMETRY              False
SYM_IGNORE            True
JOBTYPE               Freq
METHOD                HF-3c
BASIS                 MINIX
GEOM_OPT_MAX_CYCLES   150
GEOM_OPT_DMAX         10
MAX_SCF_CYCLES        50
SCF_ALGORITHM         DIIS
SCF_PRINT             1
SCF_FINAL_PRINT       1
XC_GRID               000099000590
MEM_TOTAL             20000
MEM_STATIC            4000
BLAS3_DFT             True
New_DFT               True
$End

$Molecule
Read
$End

--------------------------------------------------------------

 Total energy in the final basis set =      -40.3686214744
    6     -40.3686214744      5.07e-09  Convergence criterion met
 Total energy in the final basis set =      -40.3686214744
    6     -40.3686215572      3.67e-09  Convergence criterion met
 Total energy in the final basis set =      -40.3686215572
    6     -40.3686215734      2.72e-09  Convergence criterion met
 Total energy in the final basis set =      -40.3686215734
    8     -40.3686215179      7.02e-09  Convergence criterion met
 Total energy in the final basis set =      -40.3686215179
    9     -40.3686214305      1.23e-09  Convergence criterion met
 Total energy in the final basis set =      -40.3686214305
    8     -40.3686215653      7.05e-09  Convergence criterion met
 Total energy in the final basis set =      -40.3686215653
    6     -40.3686215653      2.71e-09  Convergence criterion met
 Total energy in the final basis set =      -40.3686215653

                    Orbital Energies (a.u.)
 --------------------------------------------------------------

 Alpha MOs
 -- Occupied --
-11.1230  -0.9487  -0.6303  -0.5538  -0.5538  -0.3392

 Beta MOs
 -- Occupied --
-11.0990  -0.8940  -0.5418  -0.5418  -0.5221

          Ground-State Mulliken Net Atomic Charges

     Atom                 Charge (a.u.)    Spin (a.u.)
  --------------------------------------------------------
      1 C                    -0.436980       0.720753
      2 H                     0.116708      -0.042817
      3 H                     0.116711      -0.042808
      4 H                     0.116708      -0.042819
      5 H                     0.081217      -0.253987
      6 H                     0.005636       0.661678
  --------------------------------------------------------
  Sum of atomic charges =    -0.000000

                    Cartesian Multipole Moments
 -----------------------------------------------------------------
    Charge (ESU x 10^10)
                -0.0000
    Dipole Moment (Debye)
         X       0.0000      Y      -0.0657      Z      -0.0000
       Tot       0.0657
    Quadrupole Moments (Debye-Ang)
        XX      -9.2244     XY      -0.0001     YY      -9.1172
        XZ      -0.0000     YZ       0.0003     ZZ      -9.2244

             Standard Nuclear Orientation (Angstroms)
    I     Atom           X                Y                Z
 ----------------------------------------------------------------
    1      C       0.0000093735     0.2185455433     0.0000000000
    2      H       1.0388744577     0.5226457927     0.0000000000
    3      H      -0.5193524555     0.5228772358     0.8996459742
    4      H      -0.5193524677     0.5228772148    -0.8996459717
    5      H      -0.0001384035    -1.0919539711     0.0000000000
    6      H      -0.0000419343    -2.0190582858     0.0000000000
 ----------------------------------------------------------------

 Frequency:     -2921.06                 677.30                 677.33
 Force Cnst:      5.3066                 0.2842                 0.2843
 Red. Mass:       1.0556                 1.0517                 1.0517
 IR Intens:      291.534                  2.403                  2.402
 Frequency:      1384.18                1484.17                1484.18
 Force Cnst:      1.2091                 1.3894                 1.3894
 Red. Mass:       1.0711                 1.0706                 1.0706
 IR Intens:        5.110                 10.549                 10.550
 Frequency:      1691.66                1691.67                1763.93
 Force Cnst:      1.7780                 1.7781                 2.1731
 Red. Mass:       1.0546                 1.0546                 1.1854
 IR Intens:        3.778                  3.779                 16.129
 Frequency:      3541.48                3729.54                3729.54
 Force Cnst:      7.5749                 9.1164                 9.1165
 Red. Mass:       1.0251                 1.1124                 1.1124
 IR Intens:       23.610                 27.391                 27.392

 STANDARD THERMODYNAMIC QUANTITIES AT   298.15 K  AND     1.00 ATM

   This Molecule has  1 Imaginary Frequencies
   Zero point vibrational energy:       31.243 kcal/mol

   Atom    1 Element C  Has Mass   12.00000
   Atom    2 Element H  Has Mass    1.00783
   Atom    3 Element H  Has Mass    1.00783
   Atom    4 Element H  Has Mass    1.00783
   Atom    5 Element H  Has Mass    1.00783
   Atom    6 Element H  Has Mass    1.00783
   Molecular Mass:    17.039150 amu
   Principal axes and moments of inertia in amu*Bohr^2:
                             1           2           3
    Eigenvalues --       11.65163    29.54773    29.54777
          X               0.00002     0.00083     1.00000
          Y               1.00000    -0.00000    -0.00002
          Z               0.00000     1.00000    -0.00083
   Rotational Symmetry Number is   1
   The Molecule is an Asymmetric Top
   Translational Enthalpy:        0.889 kcal/mol
   Rotational Enthalpy:           0.889 kcal/mol
   Vibrational Enthalpy:         31.412 kcal/mol
   gas constant (RT):             0.592 kcal/mol
   Translational Entropy:        34.443  cal/mol.K
   Rotational Entropy:           16.971  cal/mol.K
   Vibrational Entropy:           0.727  cal/mol.K

   Total Enthalpy:               33.782 kcal/mol
   Total Entropy:                52.141  cal/mol.K

 Total job time:  5.69s(wall), 11.46s(cpu)
        *  Thank you very much for using Q-Chem.  Have a nice day.  *
