 Q-Chem 5.3 (devel), Q-Chem, Inc., Pleasanton, CA (2020)
 Q-Chem 5.3.1 for Intel X86 EM64T Linux

User input:
--------------------------------------------------------------
$Comment
Geometry optimizations for CLB18.
$End

$Rem
SYMMETRY              False
SYM_IGNORE            True
JOBTYPE               TS
METHOD                HF-3c
BASIS                 MINIX
GEOM_OPT_MAX_CYCLES   150
GEOM_OPT_DMAX         10
MAX_SCF_CYCLES        50
SCF_ALGORITHM         DIIS
SCF_PRINT             1
SCF_FINAL_PRINT       1
XC_GRID               000099000590
MEM_TOTAL             20000
MEM_STATIC            4000
BLAS3_DFT             True
New_DFT               True
$End

$Molecule
0 2
C -1.8006207116 0.1680582153 0.2173732979
H -2.1516451227 -0.7643858975 -0.2044200982
H -2.0003427745 1.0607727615 -0.3603453384
H -1.8751394465 0.2660623639 1.2922824994
H -0.4200259442 0.0393650165 0.0508550412
Cl 1.0147608030 -0.0947147831 -0.1225061118
$End

--------------------------------------------------------------

   14    -497.1570036842      2.74e-09  Convergence criterion met
 Total energy in the final basis set =     -497.1570036842
   10    -497.1569048333      3.25e-09  Convergence criterion met
 Total energy in the final basis set =     -497.1569048333
    9    -497.1571153803      4.31e-09  Convergence criterion met
 Total energy in the final basis set =     -497.1571153803
    9    -497.1573121035      4.21e-09  Convergence criterion met
 Total energy in the final basis set =     -497.1573121035
    9    -497.1574925375      4.46e-09  Convergence criterion met
 Total energy in the final basis set =     -497.1574925375
    9    -497.1576557246      4.60e-09  Convergence criterion met
 Total energy in the final basis set =     -497.1576557246
    9    -497.1578016694      4.81e-09  Convergence criterion met
 Total energy in the final basis set =     -497.1578016694
    9    -497.1579302484      5.03e-09  Convergence criterion met
 **  OPTIMIZATION CONVERGED  **
 Total job time:  7.14s(wall), 11.81s(cpu)
        *  Thank you very much for using Q-Chem.  Have a nice day.  *

User input: 2 of 2

                  Welcome to Q-Chem
     A Quantum Leap Into The Future Of Chemistry

 Q-Chem 5.3 (devel), Q-Chem, Inc., Pleasanton, CA (2020)

 Yihan Shao,  Zhengting Gan,  E. Epifanovsky,  A. T. B. Gilbert,  M. Wormit,
 J. Kussmann,  A. W. Lange,  A. Behn,  Jia Deng,  Xintian Feng,  D. Ghosh,
 M. Goldey,  P. R. Horn,  L. D. Jacobson,  I. Kaliman,  T. Kus,  A. Landau,
 Jie Liu,  E. I. Proynov,  R. M. Richard,  R. P. Steele,  E. J. Sundstrom,
 H. L. Woodcock III,  P. M. Zimmerman,  D. Zuev,  B. Alam,  B. Albrecht,
 A. Aldossary,  E. Alguire,  S. A. Baeppler,  D. Barton,  Z. Benda,
 Y. A. Bernard,  E. J. Berquist,  K. B. Bravaya,  H. Burton,  K. Carter-Fenk,
 D. Casanova,  Chun-Min Chang,  Yunqing Chen,  A. Chien,  K. D. Closser,
 M. P. Coons,  S. Coriani,  S. Dasgupta,  A. L. Dempwolff,  M. Diedenhofen,
 Hainam Do,  R. G. Edgar,  Po-Tung Fang,  S. Faraji,  S. Fatehi,
 Qingguo Feng,  J. Fosso-Tande,  J. Gayvert,  Qinghui Ge,  A. Ghysels,
 G. Gidofalvi,  J. Gomes,  J. Gonthier,  S. Gulania,  A. Gunina,  D. Hait,
 M. W. D. Hanson-Heine,  S. Hammes-Schiffer,  P. H. P. Harbach,
 A. W. Hauser,  M. F. Herbst,  J. E. Herr,  E. G. Hohenstein,  Z. C. Holden,
 S. Houck,  Kerwin Hui,  B. C. Huynh,  M. Ivanov,  T.-C. Jagau,  Hyunjun Ji,
 B. Kaduk,  K. Khistyaev,  Jaehoon Kim,  P. Klunzinger,  K. Koh,
 D. Kosenkov,  L. Koulias,  T. Kowalczyk,  C. M. Krauter,  A. Kunitsa,
 Ka Un Lao,  A. Laurent,  K. V. Lawler,  Joonho Lee,  D. Lefrancois,
 S. Lehtola,  D. S. Levine,  Yi-Pei Li,  You-Sheng Lin,  Fenglai Liu,
 Kuan-Yu Liu,  E. Livshits,  M. Loipersberger,  A. Luenser,  P. Manohar,
 E. Mansoor,  S. F. Manzer,  Shan-Ping Mao,  Yuezhi Mao,  N. Mardirossian,
 A. V. Marenich,  T. Markovich,  L. A. Martinez-Martinez,  S. A. Maurer,
 N. J. Mayhall,  S. C. McKenzie,  J.-M. Mewes,  P. Morgante,  A. F. Morrison,
 J. W. Mullinax,  K. Nanda,  T. S. Nguyen-Beck,  R. Olivares-Amaya,
 K. J. Oosterbaan,  J. A. Parkhill,  S. K. Paul,  F. Pavosevic,  Zheng Pei,
 T. M. Perrine,  F. Plasser,  P. Pokhilko,  S. Prager,  A. Prociuk,
 E. Ramos,  B. Rana,  D. R. Rehn,  F. Rob,  E. Rossomme,  M. Scheurer,
 M. Schneider,  N. Sergueev,  S. M. Sharada,  S. Sharma,  W. Skomorowski,
 D. W. Small,  T. Stauch,  C. J. Stein,  T. Stein,  Yu-Chuan Su,
 S. P. Veccham,  Zhen Tao,  A. J. W. Thom,  A. Tkatchenko,  T. Tsuchimochi,
 N. M. Tubman,  L. Vogt,  M. L. Vidal,  O. Vydrov,  M. A. Watson,  J. Wenzel,
 M. de Wergifosse,  T. A. Wesolowski,  A. White,  J. Witte,  A. Yamada,
 Jun Yang,  K. Yao,  S. Yeganeh,  S. R. Yost,  Zhi-Qiang You,  A. Zech,
 Igor Ying Zhang,  Xing Zhang,  Yan Zhao,  Ying Zhu,  B. R. Brooks,
 G. K. L. Chan,  C. J. Cramer,  M. S. Gordon,  W. J. Hehre,  A. Klamt,
 M. W. Schmidt,  C. D. Sherrill,  D. G. Truhlar,  A. Aspuru-Guzik,  R. Baer,
 A. T. Bell,  N. A. Besley,  Jeng-Da Chai,  A. E. DePrince, III,
 R. A. DiStasio Jr.,  A. Dreuw,  B. D. Dunietz,  T. R. Furlani,
 Chao-Ping Hsu,  Yousung Jung,  Jing Kong,  D. S. Lambrecht,  WanZhen Liang,
 C. Ochsenfeld,  V. A. Rassolov,  L. V. Slipchenko,  J. E. Subotnik,
 T. Van Voorhis,  J. M. Herbert,  A. I. Krylov,  P. M. W. Gill,  M. Head-Gordon

 Contributors to earlier versions of Q-Chem not listed above:
 R. D. Adamson,  B. Austin,  J. Baker,  G. J. O. Beran,  K. Brandhorst,
 S. T. Brown,  E. F. C. Byrd,  A. K. Chakraborty,  C.-L. Cheng,
 Siu Hung Chien,  D. M. Chipman,  D. L. Crittenden,  H. Dachsel,
 R. J. Doerksen,  A. D. Dutoi,  L. Fusti-Molnar,  W. A. Goddard III,
 A. Golubeva-Zadorozhnaya,  S. R. Gwaltney,  G. Hawkins,  A. Heyden,
 S. Hirata,  G. Kedziora,  F. J. Keil,  C. Kelley,  Jihan Kim,  R. A. King,
 R. Z. Khaliullin,  P. P. Korambath,  W. Kurlancheek,  A. M. Lee,  M. S. Lee,
 S. V. Levchenko,  Ching Yeh Lin,  D. Liotard,  R. C. Lochan,  I. Lotan,
 P. E. Maslen,  N. Nair,  D. P. O'Neill,  D. Neuhauser,  E. Neuscamman,
 C. M. Oana,  R. Olson,  B. Peters,  R. Peverati,  P. A. Pieniazek,
 Y. M. Rhee,  J. Ritchie,  M. A. Rohrdanz,  E. Rosta,  N. J. Russ,
 H. F. Schaefer III,  N. E. Schultz,  N. Shenvi,  A. C. Simmonett,  A. Sodt,
 D. Stuck,  K. S. Thanthiriwatte,  V. Vanovschi,  Tao Wang,  A. Warshel,
 C. F. Williams,  Q. Wu,  X. Xu,  W. Zhang

 Please cite Q-Chem as follows:
 Y. Shao et al., Mol. Phys. 113, 184-215 (2015)
 DOI: 10.1080/00268976.2014.952696

 Q-Chem 5.3.1 for Intel X86 EM64T Linux

 Parts of Q-Chem use Armadillo 9.800.1 (Horizon Scraper).
 http://arma.sourceforge.net/

 Q-Chem begins on Fri Oct 30 10:26:47 2020

Host:
0

     Scratch files written to /data/scratch/MN_84_RKT08_BH76_HF_3c//
Processing $rem in /home/pierpa/qchem53/config/preferences:
Processing $rem in /home/pierpa/.qchemrc:
The previous job contains 0 fragments, simply inherited here

!!********************************************.
!!******************Warning*******************.
!!Desired Analytical derivatives not available.
!!Finite difference job might take a long time.
!!********************************************.
!!********************************************.

 2-order derivative to be evaluated numerically with 1-order analytical derivatives

Checking the input file for inconsistencies... 	...done.

--------------------------------------------------------------
User input:
--------------------------------------------------------------

$Comment
Geometry optimizations for CLB18.
$End

$Rem
SYMMETRY              False
SYM_IGNORE            True
JOBTYPE               Freq
METHOD                HF-3c
BASIS                 MINIX
GEOM_OPT_MAX_CYCLES   150
GEOM_OPT_DMAX         10
MAX_SCF_CYCLES        50
SCF_ALGORITHM         DIIS
SCF_PRINT             1
SCF_FINAL_PRINT       1
XC_GRID               000099000590
MEM_TOTAL             20000
MEM_STATIC            4000
BLAS3_DFT             True
New_DFT               True
$End

$Molecule
Read
$End

--------------------------------------------------------------

 Total energy in the final basis set =     -497.1583687725
   10    -497.1583687742      2.60e-09  Convergence criterion met
 Total energy in the final basis set =     -497.1583687742
    9    -497.1583686420      9.12e-09  Convergence criterion met
 Total energy in the final basis set =     -497.1583686420
    9    -497.1583685978      6.12e-09  Convergence criterion met
 Total energy in the final basis set =     -497.1583685978
    9    -497.1583688122      9.90e-09  Convergence criterion met
 Total energy in the final basis set =     -497.1583688122
    9    -497.1583688117      6.17e-09  Convergence criterion met
 Total energy in the final basis set =     -497.1583688117
    9    -497.1583688100      5.96e-09  Convergence criterion met
 Total energy in the final basis set =     -497.1583688100
    9    -497.1583688113      7.36e-09  Convergence criterion met
 Total energy in the final basis set =     -497.1583688113

                    Orbital Energies (a.u.)
 --------------------------------------------------------------

 Alpha MOs
 -- Occupied --
******** -11.1966 -10.4547  -7.8965  -7.8820  -7.8820  -1.0742  -0.9925
 -0.6206  -0.6121  -0.6121  -0.4379  -0.4379  -0.4106

 Beta MOs
 -- Occupied --
******** -11.1707 -10.4495  -7.8796  -7.8796  -7.8730  -1.0282  -0.9168
 -0.5979  -0.5979  -0.5398  -0.4282  -0.4282

          Ground-State Mulliken Net Atomic Charges

     Atom                 Charge (a.u.)    Spin (a.u.)
  --------------------------------------------------------
      1 C                    -0.376489       0.903907
      2 H                     0.148925      -0.050850
      3 H                     0.148925      -0.050850
      4 H                     0.148920      -0.050842
      5 H                     0.217417      -0.187171
      6 Cl                   -0.287697       0.435807
  --------------------------------------------------------
  Sum of atomic charges =    -0.000000

                    Cartesian Multipole Moments
 -----------------------------------------------------------------
    Charge (ESU x 10^10)
                -0.0000
    Dipole Moment (Debye)
         X      -2.8146      Y       0.2627      Z       0.3410
       Tot       2.8473
    Quadrupole Moments (Debye-Ang)
        XX     -19.1546     XY      -0.1872     YY     -21.1416
        XZ      -0.2418     YZ       0.0226     ZZ     -21.1299

             Standard Nuclear Orientation (Angstroms)
    I     Atom           X                Y                Z
 ----------------------------------------------------------------
    1      C      -1.8166231174     0.1695421930     0.2192922287
    2      H      -2.1840435634    -0.7631027384    -0.2013491447
    3      H      -2.0323789406     1.0653385608    -0.3575634349
    4      H      -1.9068839889     0.2691916235     1.2980356682
    5      H      -0.3802331080     0.0355967074     0.0460034997
    6      Cl      1.0871495218    -0.1014086697    -0.1311795270
 ----------------------------------------------------------------

 Frequency:     -1955.04                 421.76                 421.78
 Force Cnst:      2.4766                 0.1082                 0.1082
 Red. Mass:       1.0998                 1.0326                 1.0326
 IR Intens:       99.865                  3.229                  3.229
 Frequency:       513.19                1038.44                1038.48
 Force Cnst:      0.5714                 0.6728                 0.6729
 Red. Mass:       3.6824                 1.0590                 1.0590
 IR Intens:        1.254                 28.618                 28.618
 Frequency:      1309.89                1608.17                1608.18
 Force Cnst:      1.2533                 1.6515                 1.6515
 Red. Mass:       1.2398                 1.0838                 1.0838
 IR Intens:        0.015                  7.365                  7.366
 Frequency:      3502.14                3709.74                3709.74
 Force Cnst:      7.3475                 9.0566                 9.0566
 Red. Mass:       1.0168                 1.1169                 1.1169
 IR Intens:       84.235                 62.210                 62.208

 STANDARD THERMODYNAMIC QUANTITIES AT   298.15 K  AND     1.00 ATM

   This Molecule has  1 Imaginary Frequencies
   Zero point vibrational energy:       26.992 kcal/mol

   Atom    1 Element C  Has Mass   12.00000
   Atom    2 Element H  Has Mass    1.00783
   Atom    3 Element H  Has Mass    1.00783
   Atom    4 Element H  Has Mass    1.00783
   Atom    5 Element H  Has Mass    1.00783
   Atom    6 Element Cl Has Mass   34.96885
   Molecular Mass:    51.000170 amu
   Principal axes and moments of inertia in amu*Bohr^2:
                             1           2           3
    Eigenvalues --       12.20288   341.70894   341.70895
          X               0.98856     0.08519     0.12445
          Y              -0.09224    -0.31126     0.94584
          Z              -0.11932     0.94650     0.29984
   Rotational Symmetry Number is   1
   The Molecule is an Asymmetric Top
   Translational Enthalpy:        0.889 kcal/mol
   Rotational Enthalpy:           0.889 kcal/mol
   Vibrational Enthalpy:         27.540 kcal/mol
   gas constant (RT):             0.592 kcal/mol
   Translational Entropy:        37.711  cal/mol.K
   Rotational Entropy:           21.882  cal/mol.K
   Vibrational Entropy:           2.599  cal/mol.K

   Total Enthalpy:               29.910 kcal/mol
   Total Entropy:                62.191  cal/mol.K

 Total job time:  14.92s(wall), 24.57s(cpu)
        *  Thank you very much for using Q-Chem.  Have a nice day.  *
