 Q-Chem 5.3 (devel), Q-Chem, Inc., Pleasanton, CA (2020)
 Q-Chem 5.3.1 for Intel X86 EM64T Linux

User input:
--------------------------------------------------------------
$Comment
Geometry optimizations for CLB18.
$End

$Rem
SYMMETRY              False
SYM_IGNORE            True
JOBTYPE               TS
METHOD                HF-3c
BASIS                 MINIX
GEOM_OPT_MAX_CYCLES   150
GEOM_OPT_DMAX         10
MAX_SCF_CYCLES        50
SCF_ALGORITHM         DIIS
SCF_PRINT             1
SCF_FINAL_PRINT       1
XC_GRID               000099000590
MEM_TOTAL             20000
MEM_STATIC            4000
BLAS3_DFT             True
New_DFT               True
$End

$Molecule
0 2
C -1.2607488294 -0.0000060000 0.0122909874
N 1.3132537923 -0.0000050000 -0.1367822546
H -1.5839861451 0.9085390615 -0.4847443171
H -1.4636724144 -0.0045730013 1.0773042575
H -1.5847481603 -0.9038823020 -0.4926999673
H 0.0431079927 -0.0000640003 -0.1516918225
H 1.4804579156 0.8055770515 0.4677513785
H 1.4805584592 -0.8055241338 0.4678080005
$End

--------------------------------------------------------------

   16     -95.0592750274      4.10e-09  Convergence criterion met
 Total energy in the final basis set =      -95.0592750274
    7     -95.0592750239      5.24e-09  Convergence criterion met
 Total energy in the final basis set =      -95.0592750239
    7     -95.0592751456      6.65e-09  Convergence criterion met
 Total energy in the final basis set =      -95.0592751456
    9     -95.0592757637      5.75e-09  Convergence criterion met
 Total energy in the final basis set =      -95.0592757637
    9     -95.0592768780      6.41e-09  Convergence criterion met
 Total energy in the final basis set =      -95.0592768780
    9     -95.0592784881      6.67e-09  Convergence criterion met
 Total energy in the final basis set =      -95.0592784881
    9     -95.0592805934      7.01e-09  Convergence criterion met
 Total energy in the final basis set =      -95.0592805934
    9     -95.0592831930      7.46e-09  Convergence criterion met
 **  OPTIMIZATION CONVERGED  **
 Total job time:  14.01s(wall), 29.38s(cpu)
        *  Thank you very much for using Q-Chem.  Have a nice day.  *

User input: 2 of 2

                  Welcome to Q-Chem
     A Quantum Leap Into The Future Of Chemistry

 Q-Chem 5.3 (devel), Q-Chem, Inc., Pleasanton, CA (2020)

 Yihan Shao,  Zhengting Gan,  E. Epifanovsky,  A. T. B. Gilbert,  M. Wormit,
 J. Kussmann,  A. W. Lange,  A. Behn,  Jia Deng,  Xintian Feng,  D. Ghosh,
 M. Goldey,  P. R. Horn,  L. D. Jacobson,  I. Kaliman,  T. Kus,  A. Landau,
 Jie Liu,  E. I. Proynov,  R. M. Richard,  R. P. Steele,  E. J. Sundstrom,
 H. L. Woodcock III,  P. M. Zimmerman,  D. Zuev,  B. Alam,  B. Albrecht,
 A. Aldossary,  E. Alguire,  S. A. Baeppler,  D. Barton,  Z. Benda,
 Y. A. Bernard,  E. J. Berquist,  K. B. Bravaya,  H. Burton,  K. Carter-Fenk,
 D. Casanova,  Chun-Min Chang,  Yunqing Chen,  A. Chien,  K. D. Closser,
 M. P. Coons,  S. Coriani,  S. Dasgupta,  A. L. Dempwolff,  M. Diedenhofen,
 Hainam Do,  R. G. Edgar,  Po-Tung Fang,  S. Faraji,  S. Fatehi,
 Qingguo Feng,  J. Fosso-Tande,  J. Gayvert,  Qinghui Ge,  A. Ghysels,
 G. Gidofalvi,  J. Gomes,  J. Gonthier,  S. Gulania,  A. Gunina,  D. Hait,
 M. W. D. Hanson-Heine,  S. Hammes-Schiffer,  P. H. P. Harbach,
 A. W. Hauser,  M. F. Herbst,  J. E. Herr,  E. G. Hohenstein,  Z. C. Holden,
 S. Houck,  Kerwin Hui,  B. C. Huynh,  M. Ivanov,  T.-C. Jagau,  Hyunjun Ji,
 B. Kaduk,  K. Khistyaev,  Jaehoon Kim,  P. Klunzinger,  K. Koh,
 D. Kosenkov,  L. Koulias,  T. Kowalczyk,  C. M. Krauter,  A. Kunitsa,
 Ka Un Lao,  A. Laurent,  K. V. Lawler,  Joonho Lee,  D. Lefrancois,
 S. Lehtola,  D. S. Levine,  Yi-Pei Li,  You-Sheng Lin,  Fenglai Liu,
 Kuan-Yu Liu,  E. Livshits,  M. Loipersberger,  A. Luenser,  P. Manohar,
 E. Mansoor,  S. F. Manzer,  Shan-Ping Mao,  Yuezhi Mao,  N. Mardirossian,
 A. V. Marenich,  T. Markovich,  L. A. Martinez-Martinez,  S. A. Maurer,
 N. J. Mayhall,  S. C. McKenzie,  J.-M. Mewes,  P. Morgante,  A. F. Morrison,
 J. W. Mullinax,  K. Nanda,  T. S. Nguyen-Beck,  R. Olivares-Amaya,
 K. J. Oosterbaan,  J. A. Parkhill,  S. K. Paul,  F. Pavosevic,  Zheng Pei,
 T. M. Perrine,  F. Plasser,  P. Pokhilko,  S. Prager,  A. Prociuk,
 E. Ramos,  B. Rana,  D. R. Rehn,  F. Rob,  E. Rossomme,  M. Scheurer,
 M. Schneider,  N. Sergueev,  S. M. Sharada,  S. Sharma,  W. Skomorowski,
 D. W. Small,  T. Stauch,  C. J. Stein,  T. Stein,  Yu-Chuan Su,
 S. P. Veccham,  Zhen Tao,  A. J. W. Thom,  A. Tkatchenko,  T. Tsuchimochi,
 N. M. Tubman,  L. Vogt,  M. L. Vidal,  O. Vydrov,  M. A. Watson,  J. Wenzel,
 M. de Wergifosse,  T. A. Wesolowski,  A. White,  J. Witte,  A. Yamada,
 Jun Yang,  K. Yao,  S. Yeganeh,  S. R. Yost,  Zhi-Qiang You,  A. Zech,
 Igor Ying Zhang,  Xing Zhang,  Yan Zhao,  Ying Zhu,  B. R. Brooks,
 G. K. L. Chan,  C. J. Cramer,  M. S. Gordon,  W. J. Hehre,  A. Klamt,
 M. W. Schmidt,  C. D. Sherrill,  D. G. Truhlar,  A. Aspuru-Guzik,  R. Baer,
 A. T. Bell,  N. A. Besley,  Jeng-Da Chai,  A. E. DePrince, III,
 R. A. DiStasio Jr.,  A. Dreuw,  B. D. Dunietz,  T. R. Furlani,
 Chao-Ping Hsu,  Yousung Jung,  Jing Kong,  D. S. Lambrecht,  WanZhen Liang,
 C. Ochsenfeld,  V. A. Rassolov,  L. V. Slipchenko,  J. E. Subotnik,
 T. Van Voorhis,  J. M. Herbert,  A. I. Krylov,  P. M. W. Gill,  M. Head-Gordon

 Contributors to earlier versions of Q-Chem not listed above:
 R. D. Adamson,  B. Austin,  J. Baker,  G. J. O. Beran,  K. Brandhorst,
 S. T. Brown,  E. F. C. Byrd,  A. K. Chakraborty,  C.-L. Cheng,
 Siu Hung Chien,  D. M. Chipman,  D. L. Crittenden,  H. Dachsel,
 R. J. Doerksen,  A. D. Dutoi,  L. Fusti-Molnar,  W. A. Goddard III,
 A. Golubeva-Zadorozhnaya,  S. R. Gwaltney,  G. Hawkins,  A. Heyden,
 S. Hirata,  G. Kedziora,  F. J. Keil,  C. Kelley,  Jihan Kim,  R. A. King,
 R. Z. Khaliullin,  P. P. Korambath,  W. Kurlancheek,  A. M. Lee,  M. S. Lee,
 S. V. Levchenko,  Ching Yeh Lin,  D. Liotard,  R. C. Lochan,  I. Lotan,
 P. E. Maslen,  N. Nair,  D. P. O'Neill,  D. Neuhauser,  E. Neuscamman,
 C. M. Oana,  R. Olson,  B. Peters,  R. Peverati,  P. A. Pieniazek,
 Y. M. Rhee,  J. Ritchie,  M. A. Rohrdanz,  E. Rosta,  N. J. Russ,
 H. F. Schaefer III,  N. E. Schultz,  N. Shenvi,  A. C. Simmonett,  A. Sodt,
 D. Stuck,  K. S. Thanthiriwatte,  V. Vanovschi,  Tao Wang,  A. Warshel,
 C. F. Williams,  Q. Wu,  X. Xu,  W. Zhang

 Please cite Q-Chem as follows:
 Y. Shao et al., Mol. Phys. 113, 184-215 (2015)
 DOI: 10.1080/00268976.2014.952696

 Q-Chem 5.3.1 for Intel X86 EM64T Linux

 Parts of Q-Chem use Armadillo 9.800.1 (Horizon Scraper).
 http://arma.sourceforge.net/

 Q-Chem begins on Fri Oct 30 10:29:11 2020

Host:
0

     Scratch files written to /data/scratch/MN_95_RKT21_BH76_HF_3c//
Processing $rem in /home/pierpa/qchem53/config/preferences:
Processing $rem in /home/pierpa/.qchemrc:
The previous job contains 0 fragments, simply inherited here

!!********************************************.
!!******************Warning*******************.
!!Desired Analytical derivatives not available.
!!Finite difference job might take a long time.
!!********************************************.
!!********************************************.

 2-order derivative to be evaluated numerically with 1-order analytical derivatives

Checking the input file for inconsistencies... 	...done.

--------------------------------------------------------------
User input:
--------------------------------------------------------------

$Comment
Geometry optimizations for CLB18.
$End

$Rem
SYMMETRY              False
SYM_IGNORE            True
JOBTYPE               Freq
METHOD                HF-3c
BASIS                 MINIX
GEOM_OPT_MAX_CYCLES   150
GEOM_OPT_DMAX         10
MAX_SCF_CYCLES        50
SCF_ALGORITHM         DIIS
SCF_PRINT             1
SCF_FINAL_PRINT       1
XC_GRID               000099000590
MEM_TOTAL             20000
MEM_STATIC            4000
BLAS3_DFT             True
New_DFT               True
$End

$Molecule
Read
$End

--------------------------------------------------------------

 Total energy in the final basis set =      -95.0579652094
   10     -95.0579649822      1.91e-09  Convergence criterion met
 Total energy in the final basis set =      -95.0579649822
   10     -95.0579652648      3.92e-09  Convergence criterion met
 Total energy in the final basis set =      -95.0579652648
   10     -95.0579652480      5.61e-09  Convergence criterion met
 Total energy in the final basis set =      -95.0579652480
   10     -95.0579646621      3.96e-09  Convergence criterion met
 Total energy in the final basis set =      -95.0579646621
    9     -95.0579648892      9.29e-09  Convergence criterion met
 Total energy in the final basis set =      -95.0579648892
    9     -95.0579649806      5.54e-09  Convergence criterion met
 Total energy in the final basis set =      -95.0579649806
   10     -95.0579648251      2.31e-09  Convergence criterion met
 Total energy in the final basis set =      -95.0579648251

                    Orbital Energies (a.u.)
 --------------------------------------------------------------

 Alpha MOs
 -- Occupied --
-15.3624 -11.1293  -1.1324  -0.9476  -0.6149  -0.6031  -0.5631  -0.5598
 -0.4332  -0.3590

 Beta MOs
 -- Occupied --
-15.3392 -11.1045  -1.0619  -0.8859  -0.5901  -0.5519  -0.5470  -0.5306
 -0.3746

          Ground-State Mulliken Net Atomic Charges

     Atom                 Charge (a.u.)    Spin (a.u.)
  --------------------------------------------------------
      1 C                    -0.434660       0.782056
      2 N                    -0.478772       0.673872
      3 H                     0.120328      -0.045351
      4 H                     0.113615      -0.046187
      5 H                     0.122136      -0.045085
      6 H                     0.181438      -0.239992
      7 H                     0.187926      -0.039675
      8 H                     0.187989      -0.039639
  --------------------------------------------------------
  Sum of atomic charges =    -0.000000

                    Cartesian Multipole Moments
 -----------------------------------------------------------------
    Charge (ESU x 10^10)
                 0.0000
    Dipole Moment (Debye)
         X      -0.4872      Y       0.2242      Z       1.7861
       Tot       1.8649
    Quadrupole Moments (Debye-Ang)
        XX     -15.7241     XY       0.3819     YY     -13.7473
        XZ       2.9172     YZ      -0.2175     ZZ     -15.2107

             Standard Nuclear Orientation (Angstroms)
    I     Atom           X                Y                Z
 ----------------------------------------------------------------
    1      C      -1.2684968599    -0.0047505481     0.0022509427
    2      N       1.3084801095    -0.0354888900    -0.1141452543
    3      H      -1.5910092240     0.9384262661    -0.4209383352
    4      H      -1.4343702637    -0.0710550696     1.0701090920
    5      H      -1.6423640167    -0.8639478751    -0.5407482833
    6      H       0.0858941260    -0.0367745997    -0.1964105569
    7      H       1.4887866315     0.8495772839     0.3788976725
    8      H       1.4773021079    -0.7759248918     0.5802209849
 ----------------------------------------------------------------

 Frequency:     -3463.33                  26.87                 416.08
 Force Cnst:      7.5163                 0.0004                 0.1208
 Red. Mass:       1.0636                 1.0247                 1.1843
 IR Intens:     4089.337                 40.318                 13.548
 Frequency:       428.50                 638.32                 924.57
 Force Cnst:      0.1110                 0.6129                 0.5617
 Red. Mass:       1.0265                 2.5529                 1.1153
 IR Intens:        5.719                  1.435                  9.001
 Frequency:       972.22                1357.75                1555.20
 Force Cnst:      0.6810                 1.2879                 1.5961
 Red. Mass:       1.2228                 1.1858                 1.1201
 IR Intens:       56.073                  4.308                155.714
 Frequency:      1666.57                1675.89                1748.77
 Force Cnst:      1.7804                 1.7621                 1.8614
 Red. Mass:       1.0880                 1.0648                 1.0330
 IR Intens:       10.947                  4.321                 13.506
 Frequency:      1860.13                3529.86                3726.20
 Force Cnst:      2.1745                 7.5110                 9.1071
 Red. Mass:       1.0667                 1.0231                 1.1133
 IR Intens:       13.197                 54.885                 32.212
 Frequency:      3726.56                3834.23                4008.38
 Force Cnst:      9.1096                 9.0882                10.3402
 Red. Mass:       1.1134                 1.0492                 1.0923
 IR Intens:       28.045                 80.316                 15.980

 STANDARD THERMODYNAMIC QUANTITIES AT   298.15 K  AND     1.00 ATM

   This Molecule has  1 Imaginary Frequencies
   Zero point vibrational energy:       45.884 kcal/mol

   Atom    1 Element C  Has Mass   12.00000
   Atom    2 Element N  Has Mass   14.00307
   Atom    3 Element H  Has Mass    1.00783
   Atom    4 Element H  Has Mass    1.00783
   Atom    5 Element H  Has Mass    1.00783
   Atom    6 Element H  Has Mass    1.00783
   Atom    7 Element H  Has Mass    1.00783
   Atom    8 Element H  Has Mass    1.00783
   Molecular Mass:    32.050050 amu
   Principal axes and moments of inertia in amu*Bohr^2:
                             1           2           3
    Eigenvalues --       18.91416   204.65971   207.15446
          X               0.99989     0.00627     0.01330
          Y              -0.00786     0.99233     0.12338
          Z              -0.01242    -0.12347     0.99227
   Rotational Symmetry Number is   1
   The Molecule is an Asymmetric Top
   Translational Enthalpy:        0.889 kcal/mol
   Rotational Enthalpy:           0.889 kcal/mol
   Vibrational Enthalpy:         46.958 kcal/mol
   gas constant (RT):             0.592 kcal/mol
   Translational Entropy:        36.326  cal/mol.K
   Rotational Entropy:           21.310  cal/mol.K
   Vibrational Entropy:           8.485  cal/mol.K

   Total Enthalpy:               49.328 kcal/mol
   Total Entropy:                66.121  cal/mol.K

 Total job time:  9.65s(wall), 20.83s(cpu)
        *  Thank you very much for using Q-Chem.  Have a nice day.  *
