 Q-Chem 5.3 (devel), Q-Chem, Inc., Pleasanton, CA (2020)
 Q-Chem 5.3.1 for Intel X86 EM64T Linux

User input:
--------------------------------------------------------------
$Comment
Geometry optimizations for CLB18.
$End

$Rem
SYMMETRY              False
SYM_IGNORE            True
JOBTYPE               TS
METHOD                HF-3c
BASIS                 MINIX
GEOM_OPT_MAX_CYCLES   150
GEOM_OPT_DMAX         10
MAX_SCF_CYCLES        50
SCF_ALGORITHM         DIIS
SCF_PRINT             1
SCF_FINAL_PRINT       1
XC_GRID               000099000590
MEM_TOTAL             20000
MEM_STATIC            4000
BLAS3_DFT             True
New_DFT               True
$End

$Molecule
0 1
C -1.2996221873 -0.9048559881 -0.0201549841
C -1.2059472375 0.5058172120 -0.0134140073
C 0.0000000000 1.1833619541 0.1533010504
C 1.2059472375 0.5058140369 -0.0134219979
C 1.2996274791 -0.9048506963 -0.0201469935
H 2.1687957561 -1.3275521605 -0.5156969505
H 1.0320437307 -1.4543853544 0.8731688567
H 2.0371311742 1.0855858809 -0.3985043071
H 0.0000010000 2.2629152148 0.0859050409
H -2.0371311742 1.0855858809 -0.3984810233
H -2.1687957561 -1.3275415770 -0.5157160009
H -0.0000110000 -1.1819437592 -0.5208082732
H -1.0320596060 -1.4543959379 0.8731582731
$End

--------------------------------------------------------------

   12    -192.5907479371      4.19e-09  Convergence criterion met
 Total energy in the final basis set =     -192.5907479371
    8    -192.5907397269      5.62e-09  Convergence criterion met
 Total energy in the final basis set =     -192.5907397269
    8    -192.5907306355      5.29e-09  Convergence criterion met
 Total energy in the final basis set =     -192.5907306355
    7    -192.5907208921      6.30e-09  Convergence criterion met
 Total energy in the final basis set =     -192.5907208921
    8    -192.5907095828      3.03e-09  Convergence criterion met
 Total energy in the final basis set =     -192.5907095828
    8    -192.5906969699      3.06e-09  Convergence criterion met
 Total energy in the final basis set =     -192.5906969699
    7    -192.5906835378      9.35e-09  Convergence criterion met
 Total energy in the final basis set =     -192.5906835378
    7    -192.5906688301      9.65e-09  Convergence criterion met
 **  OPTIMIZATION CONVERGED  **
 Total job time:  10.68s(wall), 39.93s(cpu)
        *  Thank you very much for using Q-Chem.  Have a nice day.  *

User input: 2 of 2

                  Welcome to Q-Chem
     A Quantum Leap Into The Future Of Chemistry

 Q-Chem 5.3 (devel), Q-Chem, Inc., Pleasanton, CA (2020)

 Yihan Shao,  Zhengting Gan,  E. Epifanovsky,  A. T. B. Gilbert,  M. Wormit,
 J. Kussmann,  A. W. Lange,  A. Behn,  Jia Deng,  Xintian Feng,  D. Ghosh,
 M. Goldey,  P. R. Horn,  L. D. Jacobson,  I. Kaliman,  T. Kus,  A. Landau,
 Jie Liu,  E. I. Proynov,  R. M. Richard,  R. P. Steele,  E. J. Sundstrom,
 H. L. Woodcock III,  P. M. Zimmerman,  D. Zuev,  B. Alam,  B. Albrecht,
 A. Aldossary,  E. Alguire,  S. A. Baeppler,  D. Barton,  Z. Benda,
 Y. A. Bernard,  E. J. Berquist,  K. B. Bravaya,  H. Burton,  K. Carter-Fenk,
 D. Casanova,  Chun-Min Chang,  Yunqing Chen,  A. Chien,  K. D. Closser,
 M. P. Coons,  S. Coriani,  S. Dasgupta,  A. L. Dempwolff,  M. Diedenhofen,
 Hainam Do,  R. G. Edgar,  Po-Tung Fang,  S. Faraji,  S. Fatehi,
 Qingguo Feng,  J. Fosso-Tande,  J. Gayvert,  Qinghui Ge,  A. Ghysels,
 G. Gidofalvi,  J. Gomes,  J. Gonthier,  S. Gulania,  A. Gunina,  D. Hait,
 M. W. D. Hanson-Heine,  S. Hammes-Schiffer,  P. H. P. Harbach,
 A. W. Hauser,  M. F. Herbst,  J. E. Herr,  E. G. Hohenstein,  Z. C. Holden,
 S. Houck,  Kerwin Hui,  B. C. Huynh,  M. Ivanov,  T.-C. Jagau,  Hyunjun Ji,
 B. Kaduk,  K. Khistyaev,  Jaehoon Kim,  P. Klunzinger,  K. Koh,
 D. Kosenkov,  L. Koulias,  T. Kowalczyk,  C. M. Krauter,  A. Kunitsa,
 Ka Un Lao,  A. Laurent,  K. V. Lawler,  Joonho Lee,  D. Lefrancois,
 S. Lehtola,  D. S. Levine,  Yi-Pei Li,  You-Sheng Lin,  Fenglai Liu,
 Kuan-Yu Liu,  E. Livshits,  M. Loipersberger,  A. Luenser,  P. Manohar,
 E. Mansoor,  S. F. Manzer,  Shan-Ping Mao,  Yuezhi Mao,  N. Mardirossian,
 A. V. Marenich,  T. Markovich,  L. A. Martinez-Martinez,  S. A. Maurer,
 N. J. Mayhall,  S. C. McKenzie,  J.-M. Mewes,  P. Morgante,  A. F. Morrison,
 J. W. Mullinax,  K. Nanda,  T. S. Nguyen-Beck,  R. Olivares-Amaya,
 K. J. Oosterbaan,  J. A. Parkhill,  S. K. Paul,  F. Pavosevic,  Zheng Pei,
 T. M. Perrine,  F. Plasser,  P. Pokhilko,  S. Prager,  A. Prociuk,
 E. Ramos,  B. Rana,  D. R. Rehn,  F. Rob,  E. Rossomme,  M. Scheurer,
 M. Schneider,  N. Sergueev,  S. M. Sharada,  S. Sharma,  W. Skomorowski,
 D. W. Small,  T. Stauch,  C. J. Stein,  T. Stein,  Yu-Chuan Su,
 S. P. Veccham,  Zhen Tao,  A. J. W. Thom,  A. Tkatchenko,  T. Tsuchimochi,
 N. M. Tubman,  L. Vogt,  M. L. Vidal,  O. Vydrov,  M. A. Watson,  J. Wenzel,
 M. de Wergifosse,  T. A. Wesolowski,  A. White,  J. Witte,  A. Yamada,
 Jun Yang,  K. Yao,  S. Yeganeh,  S. R. Yost,  Zhi-Qiang You,  A. Zech,
 Igor Ying Zhang,  Xing Zhang,  Yan Zhao,  Ying Zhu,  B. R. Brooks,
 G. K. L. Chan,  C. J. Cramer,  M. S. Gordon,  W. J. Hehre,  A. Klamt,
 M. W. Schmidt,  C. D. Sherrill,  D. G. Truhlar,  A. Aspuru-Guzik,  R. Baer,
 A. T. Bell,  N. A. Besley,  Jeng-Da Chai,  A. E. DePrince, III,
 R. A. DiStasio Jr.,  A. Dreuw,  B. D. Dunietz,  T. R. Furlani,
 Chao-Ping Hsu,  Yousung Jung,  Jing Kong,  D. S. Lambrecht,  WanZhen Liang,
 C. Ochsenfeld,  V. A. Rassolov,  L. V. Slipchenko,  J. E. Subotnik,
 T. Van Voorhis,  J. M. Herbert,  A. I. Krylov,  P. M. W. Gill,  M. Head-Gordon

 Contributors to earlier versions of Q-Chem not listed above:
 R. D. Adamson,  B. Austin,  J. Baker,  G. J. O. Beran,  K. Brandhorst,
 S. T. Brown,  E. F. C. Byrd,  A. K. Chakraborty,  C.-L. Cheng,
 Siu Hung Chien,  D. M. Chipman,  D. L. Crittenden,  H. Dachsel,
 R. J. Doerksen,  A. D. Dutoi,  L. Fusti-Molnar,  W. A. Goddard III,
 A. Golubeva-Zadorozhnaya,  S. R. Gwaltney,  G. Hawkins,  A. Heyden,
 S. Hirata,  G. Kedziora,  F. J. Keil,  C. Kelley,  Jihan Kim,  R. A. King,
 R. Z. Khaliullin,  P. P. Korambath,  W. Kurlancheek,  A. M. Lee,  M. S. Lee,
 S. V. Levchenko,  Ching Yeh Lin,  D. Liotard,  R. C. Lochan,  I. Lotan,
 P. E. Maslen,  N. Nair,  D. P. O'Neill,  D. Neuhauser,  E. Neuscamman,
 C. M. Oana,  R. Olson,  B. Peters,  R. Peverati,  P. A. Pieniazek,
 Y. M. Rhee,  J. Ritchie,  M. A. Rohrdanz,  E. Rosta,  N. J. Russ,
 H. F. Schaefer III,  N. E. Schultz,  N. Shenvi,  A. C. Simmonett,  A. Sodt,
 D. Stuck,  K. S. Thanthiriwatte,  V. Vanovschi,  Tao Wang,  A. Warshel,
 C. F. Williams,  Q. Wu,  X. Xu,  W. Zhang

 Please cite Q-Chem as follows:
 Y. Shao et al., Mol. Phys. 113, 184-215 (2015)
 DOI: 10.1080/00268976.2014.952696

 Q-Chem 5.3.1 for Intel X86 EM64T Linux

 Parts of Q-Chem use Armadillo 9.800.1 (Horizon Scraper).
 http://arma.sourceforge.net/

 Q-Chem begins on Fri Oct 30 10:29:18 2020

Host:
0

     Scratch files written to /data/scratch/MN_96_RKT22_BH76_HF_3c//
Processing $rem in /home/pierpa/qchem53/config/preferences:
Processing $rem in /home/pierpa/.qchemrc:
The previous job contains 0 fragments, simply inherited here

!!********************************************.
!!******************Warning*******************.
!!Desired Analytical derivatives not available.
!!Finite difference job might take a long time.
!!********************************************.
!!********************************************.

 2-order derivative to be evaluated numerically with 1-order analytical derivatives

Checking the input file for inconsistencies... 	...done.

--------------------------------------------------------------
User input:
--------------------------------------------------------------

$Comment
Geometry optimizations for CLB18.
$End

$Rem
SYMMETRY              False
SYM_IGNORE            True
JOBTYPE               Freq
METHOD                HF-3c
BASIS                 MINIX
GEOM_OPT_MAX_CYCLES   150
GEOM_OPT_DMAX         10
MAX_SCF_CYCLES        50
SCF_ALGORITHM         DIIS
SCF_PRINT             1
SCF_FINAL_PRINT       1
XC_GRID               000099000590
MEM_TOTAL             20000
MEM_STATIC            4000
BLAS3_DFT             True
New_DFT               True
$End

$Molecule
Read
$End

--------------------------------------------------------------

 Total energy in the final basis set =     -192.5909799038
    8    -192.5909798897      3.37e-09  Convergence criterion met
 Total energy in the final basis set =     -192.5909798897
    8    -192.5909799000      5.20e-09  Convergence criterion met
 Total energy in the final basis set =     -192.5909799000
    8    -192.5909799005      5.27e-09  Convergence criterion met
 Total energy in the final basis set =     -192.5909799005
    8    -192.5909797821      5.09e-09  Convergence criterion met
 Total energy in the final basis set =     -192.5909797821
    8    -192.5909797823      6.99e-09  Convergence criterion met
 Total energy in the final basis set =     -192.5909797823
    8    -192.5909794712      3.18e-09  Convergence criterion met
 Total energy in the final basis set =     -192.5909794712
    8    -192.5909794672      4.41e-09  Convergence criterion met
 Total energy in the final basis set =     -192.5909794672

                    Orbital Energies (a.u.)
 --------------------------------------------------------------

 Alpha MOs
 -- Occupied --
-11.1677 -11.1675 -11.1561 -11.1381 -11.1378  -1.1199  -1.0048  -0.9405
 -0.8016  -0.7226  -0.6765  -0.5868  -0.5703  -0.5691  -0.5414  -0.5068
 -0.4900  -0.3572  -0.3016

          Ground-State Mulliken Net Atomic Charges

     Atom                 Charge (a.u.)
  ----------------------------------------
      1 C                    -0.333561
      2 C                    -0.129729
      3 C                    -0.172848
      4 C                    -0.129759
      5 C                    -0.333436
      6 H                     0.123302
      7 H                     0.133903
      8 H                     0.135726
      9 H                     0.131826
     10 H                     0.135733
     11 H                     0.123328
     12 H                     0.181607
     13 H                     0.133907
  ----------------------------------------
  Sum of atomic charges =     0.000000

                    Cartesian Multipole Moments
 -----------------------------------------------------------------
    Charge (ESU x 10^10)
                 0.0000
    Dipole Moment (Debye)
         X       0.0003      Y      -0.2289      Z      -0.3216
       Tot       0.3947
    Quadrupole Moments (Debye-Ang)
        XX     -31.6724     XY      -0.0004     YY     -31.3810
        XZ       0.0006     YZ      -1.0690     ZZ     -33.9789

             Standard Nuclear Orientation (Angstroms)
    I     Atom           X                Y                Z
 ----------------------------------------------------------------
    1      C      -1.2851525781    -0.9062068512    -0.0238789102
    2      C      -1.2019442130     0.5059642320    -0.0161986414
    3      C       0.0000088594     1.1847345955     0.1536895594
    4      C       1.2019525004     0.5059569267    -0.0162441878
    5      C       1.2851430810    -0.9062142084    -0.0239183754
    6      H       2.1528999411    -1.3338002880    -0.5108828605
    7      H       1.0213417894    -1.4459174703     0.8736564855
    8      H       2.0379873261     1.0827919918    -0.3906951237
    9      H       0.0000097720     2.2612810652     0.0854131294
   10      H      -2.0379899266     1.0828071647    -0.3906133583
   11      H      -2.1529366235    -1.3337722192    -0.5108135725
   12      H      -0.0000109927    -1.1781462332    -0.5340066515
   13      H      -1.0213295224    -1.4459239995     0.8736811902
 ----------------------------------------------------------------

 Frequency:     -2503.68                 309.89                 550.80
 Force Cnst:      4.4892                 0.1215                 0.4758
 Red. Mass:       1.2155                 2.1481                 2.6620
 IR Intens:        0.047                  0.000                  2.002
 Frequency:       587.98                 639.66                 725.64
 Force Cnst:      0.4603                 0.8496                 0.3898
 Red. Mass:       2.2597                 3.5241                 1.2564
 IR Intens:        0.718                  5.252                 16.360
 Frequency:       858.33                 959.85                 962.38
 Force Cnst:      0.9583                 0.6730                 0.6524
 Red. Mass:       2.2076                 1.2397                 1.1956
 IR Intens:        7.741                  0.140                 47.636
 Frequency:      1099.04                1140.82                1177.04
 Force Cnst:      1.9718                 1.0585                 1.0215
 Red. Mass:       2.7707                 1.3804                 1.2514
 IR Intens:        3.085                  0.077                 28.415
 Frequency:      1186.86                1230.39                1246.82
 Force Cnst:      1.0979                 1.3474                 1.2467
 Red. Mass:       1.3229                 1.5107                 1.3611
 IR Intens:        0.011                 14.540                  0.420
 Frequency:      1287.61                1391.77                1407.32
 Force Cnst:      1.4107                 1.2363                 1.7834
 Red. Mass:       1.4441                 1.0833                 1.5283
 IR Intens:        5.100                  1.053                  7.009
 Frequency:      1437.39                1628.70                1658.43
 Force Cnst:      1.5559                 2.3031                 1.7749
 Red. Mass:       1.2782                 1.4736                 1.0953
 IR Intens:        5.548                  1.847                 51.293
 Frequency:      1689.21                1731.09                1742.85
 Force Cnst:      1.9375                 4.5044                 3.0224
 Red. Mass:       1.1524                 2.5512                 1.6888
 IR Intens:       13.947                 14.637                 29.730
 Frequency:      1761.25                1830.58                3592.20
 Force Cnst:      3.7354                 2.4433                 8.0781
 Red. Mass:       2.0438                 1.2375                 1.0625
 IR Intens:        3.858                  6.965                 66.083
 Frequency:      3592.75                3669.33                3671.43
 Force Cnst:      8.0713                 8.6790                 8.6905
 Red. Mass:       1.0613                 1.0941                 1.0943
 IR Intens:      134.486                 14.805                143.005
 Frequency:      3711.01                3712.84                3718.56
 Force Cnst:      8.9125                 9.0723                 9.0722
 Red. Mass:       1.0984                 1.1170                 1.1136
 IR Intens:       83.285                 27.699                 45.307

 STANDARD THERMODYNAMIC QUANTITIES AT   298.15 K  AND     1.00 ATM

   This Molecule has  1 Imaginary Frequencies
   Zero point vibrational energy:       79.927 kcal/mol

   Atom    1 Element C  Has Mass   12.00000
   Atom    2 Element C  Has Mass   12.00000
   Atom    3 Element C  Has Mass   12.00000
   Atom    4 Element C  Has Mass   12.00000
   Atom    5 Element C  Has Mass   12.00000
   Atom    6 Element H  Has Mass    1.00783
   Atom    7 Element H  Has Mass    1.00783
   Atom    8 Element H  Has Mass    1.00783
   Atom    9 Element H  Has Mass    1.00783
   Atom   10 Element H  Has Mass    1.00783
   Atom   11 Element H  Has Mass    1.00783
   Atom   12 Element H  Has Mass    1.00783
   Atom   13 Element H  Has Mass    1.00783
   Molecular Mass:    68.062640 amu
   Principal axes and moments of inertia in amu*Bohr^2:
                             1           2           3
    Eigenvalues --      222.49039   346.63046   548.13404
          X               1.00000    -0.00000     0.00002
          Y               0.00000     0.99974    -0.02302
          Z              -0.00002     0.02302     0.99974
   Rotational Symmetry Number is   1
   The Molecule is an Asymmetric Top
   Translational Enthalpy:        0.889 kcal/mol
   Rotational Enthalpy:           0.889 kcal/mol
   Vibrational Enthalpy:         80.751 kcal/mol
   gas constant (RT):             0.592 kcal/mol
   Translational Entropy:        38.571  cal/mol.K
   Rotational Entropy:           25.250  cal/mol.K
   Vibrational Entropy:           3.811  cal/mol.K

   Total Enthalpy:               83.121 kcal/mol
   Total Entropy:                67.632  cal/mol.K

 Total job time:  20.82s(wall), 82.41s(cpu)
        *  Thank you very much for using Q-Chem.  Have a nice day.  *
