 Q-Chem 5.3 (devel), Q-Chem, Inc., Pleasanton, CA (2020)
 Q-Chem 5.3.1 for Intel X86 EM64T Linux

User input:
--------------------------------------------------------------
$Comment
Geometry optimizations for CLB18.
$End

$Rem
SYMMETRY              False
SYM_IGNORE            True
JOBTYPE               TS
METHOD                HF-3c
BASIS                 MINIX
GEOM_OPT_MAX_CYCLES   150
GEOM_OPT_DMAX         10
MAX_SCF_CYCLES        50
SCF_ALGORITHM         DIIS
SCF_PRINT             1
SCF_FINAL_PRINT       1
XC_GRID               000099000590
MEM_TOTAL             20000
MEM_STATIC            4000
BLAS3_DFT             True
New_DFT               True
$End

$Molecule
0 3
C -1.1995759438 -0.0111260038 -0.0000300000
N 1.4007162017 0.1298622042 0.0000150000
H -1.4266617603 -0.5129319996 0.9330558416
H -1.4199094591 -0.5913819919 -0.8881445717
H -1.5202361665 1.0228042966 -0.0457830364
H 0.1889263186 0.1268961660 0.0010010022
H 1.5703386648 -0.8876683123 -0.0000530003
$End

--------------------------------------------------------------

   15     -94.4584476521      5.24e-09  Convergence criterion met
 Total energy in the final basis set =      -94.4584476521
    9     -94.4584476545      2.21e-09  Convergence criterion met
 Total energy in the final basis set =      -94.4584476545
    9     -94.4584478253      2.88e-09  Convergence criterion met
 Total energy in the final basis set =      -94.4584478253
    9     -94.4584483747      3.80e-09  Convergence criterion met
 Total energy in the final basis set =      -94.4584483747
    9     -94.4584493026      4.87e-09  Convergence criterion met
 Total energy in the final basis set =      -94.4584493026
    9     -94.4584506088      6.15e-09  Convergence criterion met
 Total energy in the final basis set =      -94.4584506088
    9     -94.4584522933      7.52e-09  Convergence criterion met
 Total energy in the final basis set =      -94.4584522933
    9     -94.4584543552      8.95e-09  Convergence criterion met
 **  OPTIMIZATION CONVERGED  **
 Total job time:  15.66s(wall), 32.78s(cpu)
        *  Thank you very much for using Q-Chem.  Have a nice day.  *

User input: 2 of 2

                  Welcome to Q-Chem
     A Quantum Leap Into The Future Of Chemistry

 Q-Chem 5.3 (devel), Q-Chem, Inc., Pleasanton, CA (2020)

 Yihan Shao,  Zhengting Gan,  E. Epifanovsky,  A. T. B. Gilbert,  M. Wormit,
 J. Kussmann,  A. W. Lange,  A. Behn,  Jia Deng,  Xintian Feng,  D. Ghosh,
 M. Goldey,  P. R. Horn,  L. D. Jacobson,  I. Kaliman,  T. Kus,  A. Landau,
 Jie Liu,  E. I. Proynov,  R. M. Richard,  R. P. Steele,  E. J. Sundstrom,
 H. L. Woodcock III,  P. M. Zimmerman,  D. Zuev,  B. Alam,  B. Albrecht,
 A. Aldossary,  E. Alguire,  S. A. Baeppler,  D. Barton,  Z. Benda,
 Y. A. Bernard,  E. J. Berquist,  K. B. Bravaya,  H. Burton,  K. Carter-Fenk,
 D. Casanova,  Chun-Min Chang,  Yunqing Chen,  A. Chien,  K. D. Closser,
 M. P. Coons,  S. Coriani,  S. Dasgupta,  A. L. Dempwolff,  M. Diedenhofen,
 Hainam Do,  R. G. Edgar,  Po-Tung Fang,  S. Faraji,  S. Fatehi,
 Qingguo Feng,  J. Fosso-Tande,  J. Gayvert,  Qinghui Ge,  A. Ghysels,
 G. Gidofalvi,  J. Gomes,  J. Gonthier,  S. Gulania,  A. Gunina,  D. Hait,
 M. W. D. Hanson-Heine,  S. Hammes-Schiffer,  P. H. P. Harbach,
 A. W. Hauser,  M. F. Herbst,  J. E. Herr,  E. G. Hohenstein,  Z. C. Holden,
 S. Houck,  Kerwin Hui,  B. C. Huynh,  M. Ivanov,  T.-C. Jagau,  Hyunjun Ji,
 B. Kaduk,  K. Khistyaev,  Jaehoon Kim,  P. Klunzinger,  K. Koh,
 D. Kosenkov,  L. Koulias,  T. Kowalczyk,  C. M. Krauter,  A. Kunitsa,
 Ka Un Lao,  A. Laurent,  K. V. Lawler,  Joonho Lee,  D. Lefrancois,
 S. Lehtola,  D. S. Levine,  Yi-Pei Li,  You-Sheng Lin,  Fenglai Liu,
 Kuan-Yu Liu,  E. Livshits,  M. Loipersberger,  A. Luenser,  P. Manohar,
 E. Mansoor,  S. F. Manzer,  Shan-Ping Mao,  Yuezhi Mao,  N. Mardirossian,
 A. V. Marenich,  T. Markovich,  L. A. Martinez-Martinez,  S. A. Maurer,
 N. J. Mayhall,  S. C. McKenzie,  J.-M. Mewes,  P. Morgante,  A. F. Morrison,
 J. W. Mullinax,  K. Nanda,  T. S. Nguyen-Beck,  R. Olivares-Amaya,
 K. J. Oosterbaan,  J. A. Parkhill,  S. K. Paul,  F. Pavosevic,  Zheng Pei,
 T. M. Perrine,  F. Plasser,  P. Pokhilko,  S. Prager,  A. Prociuk,
 E. Ramos,  B. Rana,  D. R. Rehn,  F. Rob,  E. Rossomme,  M. Scheurer,
 M. Schneider,  N. Sergueev,  S. M. Sharada,  S. Sharma,  W. Skomorowski,
 D. W. Small,  T. Stauch,  C. J. Stein,  T. Stein,  Yu-Chuan Su,
 S. P. Veccham,  Zhen Tao,  A. J. W. Thom,  A. Tkatchenko,  T. Tsuchimochi,
 N. M. Tubman,  L. Vogt,  M. L. Vidal,  O. Vydrov,  M. A. Watson,  J. Wenzel,
 M. de Wergifosse,  T. A. Wesolowski,  A. White,  J. Witte,  A. Yamada,
 Jun Yang,  K. Yao,  S. Yeganeh,  S. R. Yost,  Zhi-Qiang You,  A. Zech,
 Igor Ying Zhang,  Xing Zhang,  Yan Zhao,  Ying Zhu,  B. R. Brooks,
 G. K. L. Chan,  C. J. Cramer,  M. S. Gordon,  W. J. Hehre,  A. Klamt,
 M. W. Schmidt,  C. D. Sherrill,  D. G. Truhlar,  A. Aspuru-Guzik,  R. Baer,
 A. T. Bell,  N. A. Besley,  Jeng-Da Chai,  A. E. DePrince, III,
 R. A. DiStasio Jr.,  A. Dreuw,  B. D. Dunietz,  T. R. Furlani,
 Chao-Ping Hsu,  Yousung Jung,  Jing Kong,  D. S. Lambrecht,  WanZhen Liang,
 C. Ochsenfeld,  V. A. Rassolov,  L. V. Slipchenko,  J. E. Subotnik,
 T. Van Voorhis,  J. M. Herbert,  A. I. Krylov,  P. M. W. Gill,  M. Head-Gordon

 Contributors to earlier versions of Q-Chem not listed above:
 R. D. Adamson,  B. Austin,  J. Baker,  G. J. O. Beran,  K. Brandhorst,
 S. T. Brown,  E. F. C. Byrd,  A. K. Chakraborty,  C.-L. Cheng,
 Siu Hung Chien,  D. M. Chipman,  D. L. Crittenden,  H. Dachsel,
 R. J. Doerksen,  A. D. Dutoi,  L. Fusti-Molnar,  W. A. Goddard III,
 A. Golubeva-Zadorozhnaya,  S. R. Gwaltney,  G. Hawkins,  A. Heyden,
 S. Hirata,  G. Kedziora,  F. J. Keil,  C. Kelley,  Jihan Kim,  R. A. King,
 R. Z. Khaliullin,  P. P. Korambath,  W. Kurlancheek,  A. M. Lee,  M. S. Lee,
 S. V. Levchenko,  Ching Yeh Lin,  D. Liotard,  R. C. Lochan,  I. Lotan,
 P. E. Maslen,  N. Nair,  D. P. O'Neill,  D. Neuhauser,  E. Neuscamman,
 C. M. Oana,  R. Olson,  B. Peters,  R. Peverati,  P. A. Pieniazek,
 Y. M. Rhee,  J. Ritchie,  M. A. Rohrdanz,  E. Rosta,  N. J. Russ,
 H. F. Schaefer III,  N. E. Schultz,  N. Shenvi,  A. C. Simmonett,  A. Sodt,
 D. Stuck,  K. S. Thanthiriwatte,  V. Vanovschi,  Tao Wang,  A. Warshel,
 C. F. Williams,  Q. Wu,  X. Xu,  W. Zhang

 Please cite Q-Chem as follows:
 Y. Shao et al., Mol. Phys. 113, 184-215 (2015)
 DOI: 10.1080/00268976.2014.952696

 Q-Chem 5.3.1 for Intel X86 EM64T Linux

 Parts of Q-Chem use Armadillo 9.800.1 (Horizon Scraper).
 http://arma.sourceforge.net/

 Q-Chem begins on Fri Oct 30 10:28:33 2020

Host:
0

     Scratch files written to /data/scratch/MN_92_RKT18_BH76_HF_3c//
Processing $rem in /home/pierpa/qchem53/config/preferences:
Processing $rem in /home/pierpa/.qchemrc:
The previous job contains 0 fragments, simply inherited here

!!********************************************.
!!******************Warning*******************.
!!Desired Analytical derivatives not available.
!!Finite difference job might take a long time.
!!********************************************.
!!********************************************.

 2-order derivative to be evaluated numerically with 1-order analytical derivatives

Checking the input file for inconsistencies... 	...done.

--------------------------------------------------------------
User input:
--------------------------------------------------------------

$Comment
Geometry optimizations for CLB18.
$End

$Rem
SYMMETRY              False
SYM_IGNORE            True
JOBTYPE               Freq
METHOD                HF-3c
BASIS                 MINIX
GEOM_OPT_MAX_CYCLES   150
GEOM_OPT_DMAX         10
MAX_SCF_CYCLES        50
SCF_ALGORITHM         DIIS
SCF_PRINT             1
SCF_FINAL_PRINT       1
XC_GRID               000099000590
MEM_TOTAL             20000
MEM_STATIC            4000
BLAS3_DFT             True
New_DFT               True
$End

$Molecule
Read
$End

--------------------------------------------------------------

 Total energy in the final basis set =      -94.4580447152
   10     -94.4580453018      9.69e-09  Convergence criterion met
 Total energy in the final basis set =      -94.4580453018
   10     -94.4580450037      8.18e-09  Convergence criterion met
 Total energy in the final basis set =      -94.4580450037
   10     -94.4580449498      7.50e-09  Convergence criterion met
 Total energy in the final basis set =      -94.4580449498
   10     -94.4580440592      4.51e-09  Convergence criterion met
 Total energy in the final basis set =      -94.4580440592
   11     -94.4580445437      4.75e-09  Convergence criterion met
 Total energy in the final basis set =      -94.4580445437
   10     -94.4580449864      5.89e-09  Convergence criterion met
 Total energy in the final basis set =      -94.4580449864
   10     -94.4580450215      6.67e-09  Convergence criterion met
 Total energy in the final basis set =      -94.4580450215

                    Orbital Energies (a.u.)
 --------------------------------------------------------------

 Alpha MOs
 -- Occupied --
-15.3796 -11.1364  -1.1336  -0.9525  -0.6130  -0.5722  -0.5709  -0.4962
 -0.4876  -0.3706

 Beta MOs
 -- Occupied --
-15.3285 -11.1088  -0.9623  -0.8722  -0.5588  -0.5569  -0.5375  -0.3858

          Ground-State Mulliken Net Atomic Charges

     Atom                 Charge (a.u.)    Spin (a.u.)
  --------------------------------------------------------
      1 C                    -0.414669       0.903735
      2 N                    -0.282904       1.626525
      3 H                     0.117624      -0.053147
      4 H                     0.120162      -0.052947
      5 H                     0.124444      -0.053133
      6 H                     0.169817      -0.272873
      7 H                     0.165526      -0.098160
  --------------------------------------------------------
  Sum of atomic charges =     0.000000

                    Cartesian Multipole Moments
 -----------------------------------------------------------------
    Charge (ESU x 10^10)
                -0.0000
    Dipole Moment (Debye)
         X      -1.0192      Y      -1.3750      Z       0.4702
       Tot       1.7749
    Quadrupole Moments (Debye-Ang)
        XX     -16.2018     XY      -2.4286     YY     -13.7637
        XZ       0.8878     YZ       0.0820     ZZ     -14.0196

             Standard Nuclear Orientation (Angstroms)
    I     Atom           X                Y                Z
 ----------------------------------------------------------------
    1      C      -1.2197943618    -0.0054592388    -0.0063611772
    2      N       1.4290165633     0.1025356055    -0.1169983149
    3      H      -1.3818110287    -0.5663855342     0.9053735510
    4      H      -1.4816531246    -0.5371221845    -0.9125117822
    5      H      -1.5713817201     1.0180797564     0.0293438576
    6      H       0.2406870173     0.1542115126    -0.0957471759
    7      H       1.5785345101    -0.8894055578     0.1969622771
 ----------------------------------------------------------------

 Frequency:     -2744.79                  -7.79                 386.36
 Force Cnst:      4.7618                 0.0000                 0.0962
 Red. Mass:       1.0728                 1.0460                 1.0942
 IR Intens:     2655.754                 60.908                 15.966
 Frequency:       474.22                 631.92                 889.44
 Force Cnst:      0.1433                 0.6771                 0.5488
 Red. Mass:       1.0815                 2.8779                 1.1773
 IR Intens:       11.986                  1.510                 25.528
 Frequency:      1160.23                1315.36                1650.29
 Force Cnst:      0.8420                 1.2882                 1.7410
 Red. Mass:       1.0617                 1.2637                 1.0850
 IR Intens:       53.650                 24.659                  8.071
 Frequency:      1653.19                1717.16                3526.01
 Force Cnst:      1.7354                 1.8215                 7.4689
 Red. Mass:       1.0777                 1.0485                 1.0196
 IR Intens:        4.803                 69.740                 46.656
 Frequency:      3727.18                3731.19                3731.38
 Force Cnst:      8.7886                 9.1467                 9.1473
 Red. Mass:       1.0738                 1.1151                 1.1151
 IR Intens:       23.169                 34.908                 32.065

 STANDARD THERMODYNAMIC QUANTITIES AT   298.15 K  AND     1.00 ATM

   This Molecule has  2 Imaginary Frequencies
   Zero point vibrational energy:       35.159 kcal/mol

   Atom    1 Element C  Has Mass   12.00000
   Atom    2 Element N  Has Mass   14.00307
   Atom    3 Element H  Has Mass    1.00783
   Atom    4 Element H  Has Mass    1.00783
   Atom    5 Element H  Has Mass    1.00783
   Atom    6 Element H  Has Mass    1.00783
   Atom    7 Element H  Has Mass    1.00783
   Molecular Mass:    31.042220 amu
   Principal axes and moments of inertia in amu*Bohr^2:
                             1           2           3
    Eigenvalues --       15.62736   204.05672   207.75243
          X               0.99937    -0.02258     0.02732
          Y               0.01315     0.95205     0.30566
          Z              -0.03291    -0.30511     0.95175
   Rotational Symmetry Number is   1
   The Molecule is an Asymmetric Top
   Translational Enthalpy:        0.889 kcal/mol
   Rotational Enthalpy:           0.889 kcal/mol
   Vibrational Enthalpy:         35.663 kcal/mol
   gas constant (RT):             0.592 kcal/mol
   Translational Entropy:        36.231  cal/mol.K
   Rotational Entropy:           21.121  cal/mol.K
   Vibrational Entropy:           2.375  cal/mol.K

   Total Enthalpy:               38.033 kcal/mol
   Total Entropy:                59.726  cal/mol.K

 Total job time:  7.81s(wall), 16.02s(cpu)
        *  Thank you very much for using Q-Chem.  Have a nice day.  *
