 Q-Chem 5.3 (devel), Q-Chem, Inc., Pleasanton, CA (2020)
 Q-Chem 5.3.1 for Intel X86 EM64T Linux

User input:
--------------------------------------------------------------
$Comment
Geometry optimizations for CLB18.
$End

$Rem
SYMMETRY              False
SYM_IGNORE            True
JOBTYPE               TS
METHOD                HF-3c
BASIS                 MINIX
GEOM_OPT_MAX_CYCLES   150
GEOM_OPT_DMAX         10
MAX_SCF_CYCLES        50
SCF_ALGORITHM         DIIS
SCF_PRINT             1
SCF_FINAL_PRINT       1
XC_GRID               000099000590
MEM_TOTAL             20000
MEM_STATIC            4000
BLAS3_DFT             True
New_DFT               True
$End

$Molecule
0 2
C -1.4857020617 -0.4481559464 -0.0000190000
C -0.5050419674 0.7017418992 0.0000290000
N 1.8651591643 -0.3401672822 -0.0000569998
H -1.3541909413 -1.0765051999 -0.8805032528
H -1.3541591907 -1.0766110354 0.8803868338
H -2.5170261114 -0.0861728045 0.0000250000
H -0.5222243514 1.3161166410 -0.8972199609
H -0.5222053010 1.3160319726 0.8973363799
H 0.6650487514 0.1479611232 -0.0000340000
H 2.2466430155 0.1597173241 -0.8048044528
H 2.2464419282 0.1591331125 0.8051537098
$End

--------------------------------------------------------------

   16    -133.8474927619      6.43e-09  Convergence criterion met
 Total energy in the final basis set =     -133.8474927619
    7    -133.8474927642      5.13e-09  Convergence criterion met
 Total energy in the final basis set =     -133.8474927642
   12    -133.8478932391      5.88e-09  Convergence criterion met
 Total energy in the final basis set =     -133.8478932391
   12    -133.8477318240      4.69e-09  Convergence criterion met
 Total energy in the final basis set =     -133.8477318240
   11    -133.8476920808      4.65e-09  Convergence criterion met
 Total energy in the final basis set =     -133.8476920808
   12    -133.8475209140      4.48e-09  Convergence criterion met
 Total energy in the final basis set =     -133.8475209140
   12    -133.8473778293      4.18e-09  Convergence criterion met
 Total energy in the final basis set =     -133.8473778293
   12    -133.8472445585      4.16e-09  Convergence criterion met
 **  OPTIMIZATION CONVERGED  **
 Total job time:  17.73s(wall), 48.19s(cpu)
        *  Thank you very much for using Q-Chem.  Have a nice day.  *

User input: 2 of 2

                  Welcome to Q-Chem
     A Quantum Leap Into The Future Of Chemistry

 Q-Chem 5.3 (devel), Q-Chem, Inc., Pleasanton, CA (2020)

 Yihan Shao,  Zhengting Gan,  E. Epifanovsky,  A. T. B. Gilbert,  M. Wormit,
 J. Kussmann,  A. W. Lange,  A. Behn,  Jia Deng,  Xintian Feng,  D. Ghosh,
 M. Goldey,  P. R. Horn,  L. D. Jacobson,  I. Kaliman,  T. Kus,  A. Landau,
 Jie Liu,  E. I. Proynov,  R. M. Richard,  R. P. Steele,  E. J. Sundstrom,
 H. L. Woodcock III,  P. M. Zimmerman,  D. Zuev,  B. Alam,  B. Albrecht,
 A. Aldossary,  E. Alguire,  S. A. Baeppler,  D. Barton,  Z. Benda,
 Y. A. Bernard,  E. J. Berquist,  K. B. Bravaya,  H. Burton,  K. Carter-Fenk,
 D. Casanova,  Chun-Min Chang,  Yunqing Chen,  A. Chien,  K. D. Closser,
 M. P. Coons,  S. Coriani,  S. Dasgupta,  A. L. Dempwolff,  M. Diedenhofen,
 Hainam Do,  R. G. Edgar,  Po-Tung Fang,  S. Faraji,  S. Fatehi,
 Qingguo Feng,  J. Fosso-Tande,  J. Gayvert,  Qinghui Ge,  A. Ghysels,
 G. Gidofalvi,  J. Gomes,  J. Gonthier,  S. Gulania,  A. Gunina,  D. Hait,
 M. W. D. Hanson-Heine,  S. Hammes-Schiffer,  P. H. P. Harbach,
 A. W. Hauser,  M. F. Herbst,  J. E. Herr,  E. G. Hohenstein,  Z. C. Holden,
 S. Houck,  Kerwin Hui,  B. C. Huynh,  M. Ivanov,  T.-C. Jagau,  Hyunjun Ji,
 B. Kaduk,  K. Khistyaev,  Jaehoon Kim,  P. Klunzinger,  K. Koh,
 D. Kosenkov,  L. Koulias,  T. Kowalczyk,  C. M. Krauter,  A. Kunitsa,
 Ka Un Lao,  A. Laurent,  K. V. Lawler,  Joonho Lee,  D. Lefrancois,
 S. Lehtola,  D. S. Levine,  Yi-Pei Li,  You-Sheng Lin,  Fenglai Liu,
 Kuan-Yu Liu,  E. Livshits,  M. Loipersberger,  A. Luenser,  P. Manohar,
 E. Mansoor,  S. F. Manzer,  Shan-Ping Mao,  Yuezhi Mao,  N. Mardirossian,
 A. V. Marenich,  T. Markovich,  L. A. Martinez-Martinez,  S. A. Maurer,
 N. J. Mayhall,  S. C. McKenzie,  J.-M. Mewes,  P. Morgante,  A. F. Morrison,
 J. W. Mullinax,  K. Nanda,  T. S. Nguyen-Beck,  R. Olivares-Amaya,
 K. J. Oosterbaan,  J. A. Parkhill,  S. K. Paul,  F. Pavosevic,  Zheng Pei,
 T. M. Perrine,  F. Plasser,  P. Pokhilko,  S. Prager,  A. Prociuk,
 E. Ramos,  B. Rana,  D. R. Rehn,  F. Rob,  E. Rossomme,  M. Scheurer,
 M. Schneider,  N. Sergueev,  S. M. Sharada,  S. Sharma,  W. Skomorowski,
 D. W. Small,  T. Stauch,  C. J. Stein,  T. Stein,  Yu-Chuan Su,
 S. P. Veccham,  Zhen Tao,  A. J. W. Thom,  A. Tkatchenko,  T. Tsuchimochi,
 N. M. Tubman,  L. Vogt,  M. L. Vidal,  O. Vydrov,  M. A. Watson,  J. Wenzel,
 M. de Wergifosse,  T. A. Wesolowski,  A. White,  J. Witte,  A. Yamada,
 Jun Yang,  K. Yao,  S. Yeganeh,  S. R. Yost,  Zhi-Qiang You,  A. Zech,
 Igor Ying Zhang,  Xing Zhang,  Yan Zhao,  Ying Zhu,  B. R. Brooks,
 G. K. L. Chan,  C. J. Cramer,  M. S. Gordon,  W. J. Hehre,  A. Klamt,
 M. W. Schmidt,  C. D. Sherrill,  D. G. Truhlar,  A. Aspuru-Guzik,  R. Baer,
 A. T. Bell,  N. A. Besley,  Jeng-Da Chai,  A. E. DePrince, III,
 R. A. DiStasio Jr.,  A. Dreuw,  B. D. Dunietz,  T. R. Furlani,
 Chao-Ping Hsu,  Yousung Jung,  Jing Kong,  D. S. Lambrecht,  WanZhen Liang,
 C. Ochsenfeld,  V. A. Rassolov,  L. V. Slipchenko,  J. E. Subotnik,
 T. Van Voorhis,  J. M. Herbert,  A. I. Krylov,  P. M. W. Gill,  M. Head-Gordon

 Contributors to earlier versions of Q-Chem not listed above:
 R. D. Adamson,  B. Austin,  J. Baker,  G. J. O. Beran,  K. Brandhorst,
 S. T. Brown,  E. F. C. Byrd,  A. K. Chakraborty,  C.-L. Cheng,
 Siu Hung Chien,  D. M. Chipman,  D. L. Crittenden,  H. Dachsel,
 R. J. Doerksen,  A. D. Dutoi,  L. Fusti-Molnar,  W. A. Goddard III,
 A. Golubeva-Zadorozhnaya,  S. R. Gwaltney,  G. Hawkins,  A. Heyden,
 S. Hirata,  G. Kedziora,  F. J. Keil,  C. Kelley,  Jihan Kim,  R. A. King,
 R. Z. Khaliullin,  P. P. Korambath,  W. Kurlancheek,  A. M. Lee,  M. S. Lee,
 S. V. Levchenko,  Ching Yeh Lin,  D. Liotard,  R. C. Lochan,  I. Lotan,
 P. E. Maslen,  N. Nair,  D. P. O'Neill,  D. Neuhauser,  E. Neuscamman,
 C. M. Oana,  R. Olson,  B. Peters,  R. Peverati,  P. A. Pieniazek,
 Y. M. Rhee,  J. Ritchie,  M. A. Rohrdanz,  E. Rosta,  N. J. Russ,
 H. F. Schaefer III,  N. E. Schultz,  N. Shenvi,  A. C. Simmonett,  A. Sodt,
 D. Stuck,  K. S. Thanthiriwatte,  V. Vanovschi,  Tao Wang,  A. Warshel,
 C. F. Williams,  Q. Wu,  X. Xu,  W. Zhang

 Please cite Q-Chem as follows:
 Y. Shao et al., Mol. Phys. 113, 184-215 (2015)
 DOI: 10.1080/00268976.2014.952696

 Q-Chem 5.3.1 for Intel X86 EM64T Linux

 Parts of Q-Chem use Armadillo 9.800.1 (Horizon Scraper).
 http://arma.sourceforge.net/

 Q-Chem begins on Fri Oct 30 10:28:58 2020

Host:
0

     Scratch files written to /data/scratch/MN_94_RKT20_BH76_HF_3c//
Processing $rem in /home/pierpa/qchem53/config/preferences:
Processing $rem in /home/pierpa/.qchemrc:
The previous job contains 0 fragments, simply inherited here

!!********************************************.
!!******************Warning*******************.
!!Desired Analytical derivatives not available.
!!Finite difference job might take a long time.
!!********************************************.
!!********************************************.

 2-order derivative to be evaluated numerically with 1-order analytical derivatives

Checking the input file for inconsistencies... 	...done.

--------------------------------------------------------------
User input:
--------------------------------------------------------------

$Comment
Geometry optimizations for CLB18.
$End

$Rem
SYMMETRY              False
SYM_IGNORE            True
JOBTYPE               Freq
METHOD                HF-3c
BASIS                 MINIX
GEOM_OPT_MAX_CYCLES   150
GEOM_OPT_DMAX         10
MAX_SCF_CYCLES        50
SCF_ALGORITHM         DIIS
SCF_PRINT             1
SCF_FINAL_PRINT       1
XC_GRID               000099000590
MEM_TOTAL             20000
MEM_STATIC            4000
BLAS3_DFT             True
New_DFT               True
$End

$Molecule
Read
$End

--------------------------------------------------------------

 Total energy in the final basis set =     -133.8462851700
    9    -133.8462854759      8.39e-09  Convergence criterion met
 Total energy in the final basis set =     -133.8462854759
   10    -133.8462857133      3.03e-09  Convergence criterion met
 Total energy in the final basis set =     -133.8462857133
   10    -133.8462856243      5.69e-09  Convergence criterion met
 Total energy in the final basis set =     -133.8462856243
    9    -133.8462857353      9.11e-09  Convergence criterion met
 Total energy in the final basis set =     -133.8462857353
   10    -133.8462856471      4.96e-09  Convergence criterion met
 Total energy in the final basis set =     -133.8462856471
   10    -133.8462852225      4.70e-09  Convergence criterion met
 Total energy in the final basis set =     -133.8462852225
    9    -133.8462848118      8.62e-09  Convergence criterion met
 Total energy in the final basis set =     -133.8462848118

                    Orbital Energies (a.u.)
 --------------------------------------------------------------

 Alpha MOs
 -- Occupied --
-15.3586 -11.1452 -11.1395  -1.1300  -1.0215  -0.8465  -0.6303  -0.6132
 -0.5958  -0.5477  -0.5163  -0.4980  -0.4299  -0.3430

 Beta MOs
 -- Occupied --
-15.3349 -11.1471 -11.1152  -1.0597  -0.9929  -0.8128  -0.6043  -0.5837
 -0.5785  -0.5063  -0.5037  -0.4931  -0.3700

          Ground-State Mulliken Net Atomic Charges

     Atom                 Charge (a.u.)    Spin (a.u.)
  --------------------------------------------------------
      1 C                    -0.380609      -0.075832
      2 C                    -0.302325       0.753796
      3 N                    -0.477154       0.686631
      4 H                     0.129846       0.008020
      5 H                     0.128109       0.007988
      6 H                     0.125339       0.029181
      7 H                     0.114138      -0.043851
      8 H                     0.112209      -0.043983
      9 H                     0.179183      -0.240838
     10 H                     0.185633      -0.040626
     11 H                     0.185632      -0.040484
  --------------------------------------------------------
  Sum of atomic charges =     0.000000

                    Cartesian Multipole Moments
 -----------------------------------------------------------------
    Charge (ESU x 10^10)
                 0.0000
    Dipole Moment (Debye)
         X       0.0343      Y       1.7854      Z       0.3554
       Tot       1.8207
    Quadrupole Moments (Debye-Ang)
        XX     -20.4778     XY       3.6099     YY     -22.9043
        XZ       0.7252     YZ      -0.4180     ZZ     -20.4533

             Standard Nuclear Orientation (Angstroms)
    I     Atom           X                Y                Z
 ----------------------------------------------------------------
    1      C      -1.5386818468    -0.4540307681     0.0190766996
    2      C      -0.4876400605     0.6702315264    -0.0331781523
    3      N       1.9141780134    -0.2817792009    -0.0544251802
    4      H      -1.4529210915    -1.0990708561    -0.8493927900
    5      H      -1.4058934022    -1.0634387012     0.9070367645
    6      H      -2.5455540170    -0.0445993786     0.0380487337
    7      H      -0.5208684982     1.2604931383    -0.9411656812
    8      H      -0.4693144541     1.2964757016     0.8507815042
    9      H       0.7242363537     0.0581325213    -0.0645234978
   10      H       2.3235039377     0.3696932504    -0.7379353037
   11      H       2.2216980002     0.0609825712     0.8659701603
 ----------------------------------------------------------------

 Frequency:     -3516.24                 -53.01                 168.57
 Force Cnst:      7.7584                 0.0018                 0.0451
 Red. Mass:       1.0650                 1.0867                 2.6924
 IR Intens:     4532.997                 56.561                  5.354
 Frequency:       177.29                 457.66                 509.21
 Force Cnst:      0.0200                 0.1294                 0.3414
 Red. Mass:       1.0811                 1.0488                 2.2345
 IR Intens:        1.395                  5.051                  6.087
 Frequency:       848.09                 879.33                1028.25
 Force Cnst:      0.5497                 0.5352                 0.6597
 Red. Mass:       1.2972                 1.1748                 1.0590
 IR Intens:       18.943                 21.455                  3.073
 Frequency:      1078.29                1177.96                1377.58
 Force Cnst:      0.8610                 2.0859                 1.6080
 Red. Mass:       1.2569                 2.5514                 1.4382
 IR Intens:       50.858                 16.775                  3.779
 Frequency:      1401.12                1534.73                1648.98
 Force Cnst:      1.5595                 1.5243                 1.9378
 Red. Mass:       1.3483                 1.0984                 1.2096
 IR Intens:        1.282                112.293                  3.866
 Frequency:      1691.66                1743.28                1744.10
 Force Cnst:      1.9140                 1.8613                 1.8778
 Red. Mass:       1.1352                 1.0395                 1.0477
 IR Intens:        1.830                  0.956                  8.475
 Frequency:      1746.32                1858.56                3541.90
 Force Cnst:      1.8805                 2.1743                 7.6843
 Red. Mass:       1.0466                 1.0683                 1.0396
 IR Intens:       21.835                 13.060                 19.336
 Frequency:      3585.48                3674.20                3690.28
 Force Cnst:      8.0219                 8.8024                 8.9056
 Red. Mass:       1.0591                 1.1067                 1.1099
 IR Intens:       29.863                 30.471                 15.545
 Frequency:      3710.94                3831.01                4006.45
 Force Cnst:      9.0338                 9.0731                10.3292
 Red. Mass:       1.1134                 1.0493                 1.0922
 IR Intens:       33.202                 90.293                 14.336

 STANDARD THERMODYNAMIC QUANTITIES AT   298.15 K  AND     1.00 ATM

   This Molecule has  2 Imaginary Frequencies
   Zero point vibrational energy:       67.349 kcal/mol

   Atom    1 Element C  Has Mass   12.00000
   Atom    2 Element C  Has Mass   12.00000
   Atom    3 Element N  Has Mass   14.00307
   Atom    4 Element H  Has Mass    1.00783
   Atom    5 Element H  Has Mass    1.00783
   Atom    6 Element H  Has Mass    1.00783
   Atom    7 Element H  Has Mass    1.00783
   Atom    8 Element H  Has Mass    1.00783
   Atom    9 Element H  Has Mass    1.00783
   Atom   10 Element H  Has Mass    1.00783
   Atom   11 Element H  Has Mass    1.00783
   Molecular Mass:    46.065710 amu
   Principal axes and moments of inertia in amu*Bohr^2:
                             1           2           3
    Eigenvalues --       68.84933   389.70572   426.52445
          X               0.99989     0.00004     0.01475
          Y              -0.00077     0.99878     0.04943
          Z              -0.01473    -0.04944     0.99867
   Rotational Symmetry Number is   1
   The Molecule is an Asymmetric Top
   Translational Enthalpy:        0.889 kcal/mol
   Rotational Enthalpy:           0.889 kcal/mol
   Vibrational Enthalpy:         68.552 kcal/mol
   gas constant (RT):             0.592 kcal/mol
   Translational Entropy:        37.407  cal/mol.K
   Rotational Entropy:           23.952  cal/mol.K
   Vibrational Entropy:           6.811  cal/mol.K

   Total Enthalpy:               70.922 kcal/mol
   Total Entropy:                68.170  cal/mol.K

 Total job time:  14.47s(wall), 39.06s(cpu)
        *  Thank you very much for using Q-Chem.  Have a nice day.  *
