 Q-Chem 5.2 (devel), Q-Chem, Inc., Pleasanton, CA (2019)
 Q-Chem 5.2.0 for Intel X86 EM64T Linux

User input:
--------------------------------------------------------------
$Comment
Geometry optimizations for CLB18.
$End

$Rem
SYMMETRY              False
SYM_IGNORE            True
JOBTYPE               Opt
METHOD                PBEh-3c
BASIS                 def2-mSVP
MAX_SCF_CYCLES        50
SCF_ALGORITHM         DIIS
SCF_PRINT             1
SCF_FINAL_PRINT       1
XC_GRID               000099000590
MEM_TOTAL             20000
MEM_STATIC            4000
BLAS3_DFT             True
New_DFT               True
$End

$Molecule
0 1
C 0.0000000000 0.0000000000 0.6655938040
C 0.0000000000 0.0000000000 -0.6655938040
H 0.0000000000 0.9214933196 1.2316705417
H 0.0000000000 -0.9214933196 1.2316705417
H 0.0000000000 0.9214933196 -1.2316705417
H 0.0000000000 -0.9214933196 -1.2316705417
$End

--------------------------------------------------------------

    9     -78.4052577853      8.71e-10  Convergence criterion met
 Total energy in the final basis set =      -78.4052577853
    8     -78.4053233099      2.53e-09  Convergence criterion met
 Total energy in the final basis set =      -78.4053233099

             Standard Nuclear Orientation (Angstroms)
    I     Atom           X                Y                Z
 ----------------------------------------------------------------
    1      C       0.0000000000     0.0000054796     0.6619564493
    2      C       0.0000000000     0.0000005289    -0.6619520793
    3      H       0.0000000000     0.9197199930     1.2317503429
    4      H       0.0000000000    -0.9197201890     1.2317338517
    5      H       0.0000000000     0.9197144829    -1.2317469978
    6      H       0.0000000000    -0.9197202954    -1.2317415667
 ----------------------------------------------------------------

    6     -78.4053267964      3.30e-09  Convergence criterion met
 Total energy in the final basis set =      -78.4053267964
 Final energy is   -78.405326796445166
 **  OPTIMIZATION CONVERGED  **

                    Orbital Energies (a.u.)
 --------------------------------------------------------------

 Alpha MOs
 -- Occupied --
-10.4398 -10.4388  -0.8508  -0.6519  -0.5313  -0.4797  -0.4074  -0.3177

          Ground-State Mulliken Net Atomic Charges

     Atom                 Charge (a.u.)
  ----------------------------------------
      1 C                    -0.430055
      2 C                    -0.430054
      3 H                     0.215028
      4 H                     0.215026
      5 H                     0.215027
      6 H                     0.215027
  ----------------------------------------
  Sum of atomic charges =     0.000000

                    Cartesian Multipole Moments
 -----------------------------------------------------------------
    Charge (ESU x 10^10)
                 0.0000
    Dipole Moment (Debye)
         X       0.0000      Y      -0.0000      Z      -0.0000
       Tot       0.0000
    Quadrupole Moments (Debye-Ang)
        XX     -15.5603     XY       0.0000     YY     -11.9802
        XZ       0.0000     YZ       0.0000     ZZ     -11.7865

 Total job time:  19.60s(wall), 199.66s(cpu)
        *  Thank you very much for using Q-Chem.  Have a nice day.  *
