 Q-Chem 5.2 (devel), Q-Chem, Inc., Pleasanton, CA (2019)
 Q-Chem 5.2.0 for Intel X86 EM64T Linux

User input:
--------------------------------------------------------------
$Comment
Geometry optimizations for CLB18.
$End

$Rem
SYMMETRY              False
SYM_IGNORE            True
JOBTYPE               Opt
METHOD                PBEh-3c
BASIS                 def2-mSVP
MAX_SCF_CYCLES        50
SCF_ALGORITHM         DIIS
SCF_PRINT             1
SCF_FINAL_PRINT       1
XC_GRID               000099000590
MEM_TOTAL             20000
MEM_STATIC            4000
BLAS3_DFT             True
New_DFT               True
$End

$Molecule
0 1
C 0.0000000000 0.0000000000 -0.1499169622
Cl 0.0000000000 0.0000000000 1.6328016844
H -0.5139977625 -0.8902702396 -0.4942949074
H -0.5139977625 0.8902702396 -0.4942949074
H 1.0279955250 0.0000000000 -0.4942949074
$End

--------------------------------------------------------------

   10    -499.5190508413      7.81e-09  Convergence criterion met
 Total energy in the final basis set =     -499.5190508413
    8    -499.5191203925      2.27e-09  Convergence criterion met
 Total energy in the final basis set =     -499.5191203925
    8    -499.5191290681      9.11e-10  Convergence criterion met
 Total energy in the final basis set =     -499.5191290681

             Standard Nuclear Orientation (Angstroms)
    I     Atom           X                Y                Z
 ----------------------------------------------------------------
    1      C       0.0000065562     0.0000060151    -0.1401960470
    2      Cl     -0.0000081609    -0.0000066997     1.6377461085
    3      H      -0.5125436113    -0.8877504965    -0.4991716032
    4      H      -0.5125506158     0.8877549970    -0.4991852987
    5      H       1.0250958317    -0.0000038158    -0.4991931596
 ----------------------------------------------------------------

    7    -499.5191295995      3.10e-09  Convergence criterion met
 Total energy in the final basis set =     -499.5191295995
 Final energy is   -499.51912959949073
 **  OPTIMIZATION CONVERGED  **

                    Orbital Energies (a.u.)
 --------------------------------------------------------------

 Alpha MOs
 -- Occupied --
******** -10.4925  -9.7521  -7.4401  -7.4311  -7.4311  -0.9402  -0.7550
 -0.5091  -0.5091  -0.4644  -0.3425  -0.3425

          Ground-State Mulliken Net Atomic Charges

     Atom                 Charge (a.u.)
  ----------------------------------------
      1 C                    -0.633132
      2 Cl                   -0.135710
      3 H                     0.256281
      4 H                     0.256281
      5 H                     0.256280
  ----------------------------------------
  Sum of atomic charges =     0.000000

                    Cartesian Multipole Moments
 -----------------------------------------------------------------
    Charge (ESU x 10^10)
                 0.0000
    Dipole Moment (Debye)
         X       0.0000      Y       0.0000      Z      -1.9869
       Tot       1.9869
    Quadrupole Moments (Debye-Ang)
        XX     -19.5245     XY      -0.0000     YY     -19.5246
        XZ      -0.0000     YZ      -0.0000     ZZ     -21.5725

 Total job time:  24.42s(wall), 241.02s(cpu)
        *  Thank you very much for using Q-Chem.  Have a nice day.  *
