 Q-Chem 5.2 (devel), Q-Chem, Inc., Pleasanton, CA (2019)
 Q-Chem 5.2.0 for Intel X86 EM64T Linux

User input:
--------------------------------------------------------------
$Comment
Geometry optimizations for CLB18.
$End

$Rem
SYMMETRY              False
SYM_IGNORE            True
JOBTYPE               Opt
METHOD                PBEh-3c
BASIS                 def2-mSVP
MAX_SCF_CYCLES        50
SCF_ALGORITHM         DIIS
SCF_PRINT             1
SCF_FINAL_PRINT       1
XC_GRID               000099000590
MEM_TOTAL             20000
MEM_STATIC            4000
BLAS3_DFT             True
New_DFT               True
$End

$Molecule
0 2
C -0.0105750245 -0.6958574487 0.0000000000
C -0.0105750245 0.7951840111 0.0000000000
H 1.0090827315 -1.0996831618 0.0000000000
H -0.5086202637 -1.0954814947 0.8834190193
H -0.5086202637 -1.0954814947 -0.8834190193
H 0.0675288330 1.3473433882 -0.9243191259
H 0.0675288330 1.3473433882 0.9243191259
$End

--------------------------------------------------------------

   13     -78.9798080097      3.51e-09  Convergence criterion met
 Total energy in the final basis set =      -78.9798080097
    9     -78.9798513047      7.31e-09  Convergence criterion met
 Total energy in the final basis set =      -78.9798513047

             Standard Nuclear Orientation (Angstroms)
    I     Atom           X                Y                Z
 ----------------------------------------------------------------
    1      C      -0.0097219528    -0.6907862995     0.0000046857
    2      C      -0.0078181747     0.7923564808     0.0000013690
    3      H       1.0070283730    -1.1033233669    -0.0000183243
    4      H      -0.5076655081    -1.0961264945     0.8815081012
    5      H      -0.5076815856    -1.0961205975    -0.8814945501
    6      H       0.0658258218     1.3486801510    -0.9226934103
    7      H       0.0657828474     1.3486873142     0.9226921288
 ----------------------------------------------------------------

    9     -78.9798558373      4.41e-09  Convergence criterion met
 Total energy in the final basis set =      -78.9798558373
 Final energy is   -78.979855837276858
 **  OPTIMIZATION CONVERGED  **

                    Orbital Energies (a.u.)
 --------------------------------------------------------------

 Alpha MOs
 -- Occupied --
-10.4414 -10.4288  -0.8459  -0.6851  -0.5102  -0.4710  -0.4471  -0.4082
 -0.2516

 Beta MOs
 -- Occupied --
-10.4301 -10.4254  -0.8240  -0.6535  -0.5021  -0.4508  -0.4372  -0.4030

          Ground-State Mulliken Net Atomic Charges

     Atom                 Charge (a.u.)    Spin (a.u.)
  --------------------------------------------------------
      1 C                    -0.665449      -0.103068
      2 C                    -0.433525       1.128570
      3 H                     0.225367       0.065165
      4 H                     0.223663       0.015983
      5 H                     0.223663       0.015987
      6 H                     0.213139      -0.061318
      7 H                     0.213141      -0.061318
  --------------------------------------------------------
  Sum of atomic charges =    -0.000000

                    Cartesian Multipole Moments
 -----------------------------------------------------------------
    Charge (ESU x 10^10)
                 0.0000
    Dipole Moment (Debye)
         X       0.1405      Y      -0.2279      Z      -0.0000
       Tot       0.2677
    Quadrupole Moments (Debye-Ang)
        XX     -15.1201     XY       0.1930     YY     -13.9204
        XZ      -0.0001     YZ       0.0000     ZZ     -13.3446

 Total job time:  39.53s(wall), 422.41s(cpu)
        *  Thank you very much for using Q-Chem.  Have a nice day.  *
