 Q-Chem 5.2 (devel), Q-Chem, Inc., Pleasanton, CA (2019)
 Q-Chem 5.2.0 for Intel X86 EM64T Linux

User input:
--------------------------------------------------------------
$Comment
Geometry optimizations for CLB18.
$End

$Rem
SYMMETRY              False
SYM_IGNORE            True
JOBTYPE               Opt
METHOD                PBEh-3c
BASIS                 def2-mSVP
MAX_SCF_CYCLES        50
SCF_ALGORITHM         DIIS
SCF_PRINT             1
SCF_FINAL_PRINT       1
XC_GRID               000099000590
MEM_TOTAL             20000
MEM_STATIC            4000
BLAS3_DFT             True
New_DFT               True
$End

$Molecule
0 2
C 0.7946072080 0.0000060000 -0.0223949912
C -0.6953706056 0.0001700003 -0.0004600000
H -1.1033979858 0.8895945173 -0.4810559520
H 1.3484758274 -0.9240492455 0.0484850153
H -1.0860409733 -0.0133270105 1.0246458333
H -1.1038266193 -0.8767196358 -0.5035740298
H 1.3493860122 0.9234459835 0.0486330261
$End

--------------------------------------------------------------

   13     -78.9798209519      3.53e-09  Convergence criterion met
 Total energy in the final basis set =      -78.9798209519
    9     -78.9798525927      7.28e-09  Convergence criterion met
 Total energy in the final basis set =      -78.9798525927

             Standard Nuclear Orientation (Angstroms)
    I     Atom           X                Y                Z
 ----------------------------------------------------------------
    1      C       0.7919589578     0.0000179831    -0.0190318526
    2      C      -0.6910493268     0.0001569277     0.0004167011
    3      H      -1.1032418670     0.8877188012    -0.4806341176
    4      H       1.3488385718    -0.9230156074     0.0460123707
    5      H      -1.0887858396    -0.0129695267     1.0229298671
    6      H      -1.1036063013    -0.8751730255    -0.5025970749
    7      H       1.3497186687     0.9223850569     0.0471830079
 ----------------------------------------------------------------

    9     -78.9798556801      3.95e-09  Convergence criterion met
 Total energy in the final basis set =      -78.9798556801
 Final energy is   -78.979855680104606
 **  OPTIMIZATION CONVERGED  **

                    Orbital Energies (a.u.)
 --------------------------------------------------------------

 Alpha MOs
 -- Occupied --
-10.4414 -10.4288  -0.8459  -0.6851  -0.5102  -0.4711  -0.4471  -0.4082
 -0.2515

 Beta MOs
 -- Occupied --
-10.4301 -10.4254  -0.8240  -0.6535  -0.5021  -0.4508  -0.4372  -0.4030

          Ground-State Mulliken Net Atomic Charges

     Atom                 Charge (a.u.)    Spin (a.u.)
  --------------------------------------------------------
      1 C                    -0.433537       1.128574
      2 C                    -0.665437      -0.103057
      3 H                     0.223608       0.015387
      4 H                     0.213010      -0.061305
      5 H                     0.225372       0.065146
      6 H                     0.223719       0.016587
      7 H                     0.213264      -0.061332
  --------------------------------------------------------
  Sum of atomic charges =    -0.000000

                    Cartesian Multipole Moments
 -----------------------------------------------------------------
    Charge (ESU x 10^10)
                 0.0000
    Dipole Moment (Debye)
         X      -0.2259      Y      -0.0007      Z       0.1438
       Tot       0.2678
    Quadrupole Moments (Debye-Ang)
        XX     -13.9156     XY       0.0011     YY     -13.3444
        XZ       0.1757     YZ       0.0012     ZZ     -15.1251

 Total job time:  40.90s(wall), 434.94s(cpu)
        *  Thank you very much for using Q-Chem.  Have a nice day.  *
