 Q-Chem 5.2 (devel), Q-Chem, Inc., Pleasanton, CA (2019)
 Q-Chem 5.2.0 for Intel X86 EM64T Linux

User input:
--------------------------------------------------------------
$Comment
Geometry optimizations for CLB18.
$End

$Rem
SYMMETRY              False
SYM_IGNORE            True
JOBTYPE               Opt
METHOD                PBEh-3c
BASIS                 def2-mSVP
MAX_SCF_CYCLES        50
SCF_ALGORITHM         DIIS
SCF_PRINT             1
SCF_FINAL_PRINT       1
XC_GRID               000099000590
MEM_TOTAL             20000
MEM_STATIC            4000
BLAS3_DFT             True
New_DFT               True
$End

$Molecule
0 1
C -2.0556365013 -0.6122739082 0.0000070000
C -1.2310990303 0.6404473029 0.0000490000
C 0.1056338256 0.7342757142 0.0000260000
C 1.0575553640 -0.3744071644 -0.0000440000
C 2.3835834942 -0.1989362347 -0.0000360000
H -2.7050851086 -0.6415956175 0.8771323940
H -2.7051274427 -0.6415056573 -0.8770900598
H -1.4513320019 -1.5160821254 -0.0000550000
H -1.7936673231 1.5675869433 0.0001030001
H 0.5457563328 1.7256415926 0.0000640003
H 0.6652604223 -1.3832427702 -0.0001049999
H 3.0646927739 -1.0377218022 -0.0000880001
H 2.8192762589 0.7922841200 0.0000230000
$End

--------------------------------------------------------------

   13    -194.8664082312      4.97e-09  Convergence criterion met
 Total energy in the final basis set =     -194.8664082312
    9    -194.8665552757      9.78e-09  Convergence criterion met
 Total energy in the final basis set =     -194.8665552757
    9    -194.8665639774      1.84e-09  Convergence criterion met
 Total energy in the final basis set =     -194.8665639774

             Standard Nuclear Orientation (Angstroms)
    I     Atom           X                Y                Z
 ----------------------------------------------------------------
    1      C      -2.0507461626    -0.6090843766     0.0000458172
    2      C      -1.2264823674     0.6343605920    -0.0000317407
    3      C       0.1065898684     0.7310467478    -0.0001057749
    4      C       1.0568614107    -0.3671632596    -0.0001438292
    5      C       2.3789400552    -0.1970065854     0.0000735625
    6      H      -2.7033018320    -0.6390604925     0.8752441659
    7      H      -2.7038306416    -0.6388203323    -0.8747638057
    8      H      -1.4586382809    -1.5217903289    -0.0002676817
    9      H      -1.7906352780     1.5611900866     0.0000151683
   10      H       0.5408026805     1.7259199796    -0.0000957595
   11      H       0.6651001390    -1.3781636811    -0.0003425400
   12      H       3.0594152482    -1.0365905263     0.0000612468
   13      H       2.8257362244     0.7896325699     0.0002975057
 ----------------------------------------------------------------

    7    -194.8665643368      7.30e-09  Convergence criterion met
 Total energy in the final basis set =     -194.8665643368
 Final energy is   -194.86656433684911
 **  OPTIMIZATION CONVERGED  **

                    Orbital Energies (a.u.)
 --------------------------------------------------------------

 Alpha MOs
 -- Occupied --
-10.4476 -10.4465 -10.4407 -10.4355 -10.4341  -0.9064  -0.8473  -0.7690
 -0.6671  -0.6007  -0.5442  -0.5108  -0.4717  -0.4638  -0.4372  -0.4250
 -0.3846  -0.3644  -0.2630

          Ground-State Mulliken Net Atomic Charges

     Atom                 Charge (a.u.)
  ----------------------------------------
      1 C                    -0.691422
      2 C                    -0.204398
      3 C                    -0.200387
      4 C                    -0.165008
      5 C                    -0.496408
      6 H                     0.230874
      7 H                     0.230867
      8 H                     0.224650
      9 H                     0.215049
     10 H                     0.210635
     11 H                     0.212105
     12 H                     0.218820
     13 H                     0.214624
  ----------------------------------------
  Sum of atomic charges =     0.000000

                    Cartesian Multipole Moments
 -----------------------------------------------------------------
    Charge (ESU x 10^10)
                 0.0000
    Dipole Moment (Debye)
         X      -0.5155      Y      -0.1331      Z       0.0001
       Tot       0.5325
    Quadrupole Moments (Debye-Ang)
        XX     -28.2288     XY       0.1192     YY     -29.0422
        XZ       0.0003     YZ       0.0006     ZZ     -35.1602

 Total job time:  151.09s(wall), 1731.52s(cpu)
        *  Thank you very much for using Q-Chem.  Have a nice day.  *
