 Q-Chem 5.2 (devel), Q-Chem, Inc., Pleasanton, CA (2019)
 Q-Chem 5.2.0 for Intel X86 EM64T Linux

User input:
--------------------------------------------------------------
$Comment
Geometry optimizations for CLB18.
$End

$Rem
SYMMETRY              False
SYM_IGNORE            True
JOBTYPE               Opt
METHOD                PBEh-3c
BASIS                 def2-mSVP
MAX_SCF_CYCLES        50
SCF_ALGORITHM         DIIS
SCF_PRINT             1
SCF_FINAL_PRINT       1
XC_GRID               000099000590
MEM_TOTAL             20000
MEM_STATIC            4000
BLAS3_DFT             True
New_DFT               True
$End

$Molecule
0 2
C 1.2084396621 -0.2871892349 0.0000569998
C -0.0653592065 0.5761311047 -0.0000569998
C -1.3147884062 -0.2395183059 -0.0000110000
H 1.2413703600 -0.9283937904 0.8812335174
H 1.2413968188 -0.9285842942 -0.8809795123
H 2.1018707142 0.3387273910 0.0000000000
H -0.0482180454 1.2268497373 -0.8770900598
H -0.0482720214 1.2270349493 0.8768360548
H -1.7291447458 -0.6157717696 0.9244355449
H -1.7287637382 -0.6164173658 -0.9243667518
$End

--------------------------------------------------------------

   13    -118.2067203081      7.82e-09  Convergence criterion met
 Total energy in the final basis set =     -118.2067203081
    9    -118.2067601832      4.10e-09  Convergence criterion met
 Total energy in the final basis set =     -118.2067601832

             Standard Nuclear Orientation (Angstroms)
    I     Atom           X                Y                Z
 ----------------------------------------------------------------
    1      C       1.2042452968    -0.2865535846     0.0000749025
    2      C      -0.0668117217     0.5733111182    -0.0000169287
    3      C      -1.3120678610    -0.2384219667    -0.0000436968
    4      H       1.2443481958    -0.9286269437     0.8800325388
    5      H       1.2441482730    -0.9290787305    -0.8795639383
    6      H       2.0991253196     0.3373327652    -0.0002064862
    7      H      -0.0479805729     1.2281341488    -0.8749037729
    8      H      -0.0480574822     1.2282537315     0.8747730129
    9      H      -1.7294103849    -0.6155100724     0.9228613917
   10      H      -1.7290076709    -0.6159720443    -0.9229492299
 ----------------------------------------------------------------

    8    -118.2067629426      3.11e-09  Convergence criterion met
 Total energy in the final basis set =     -118.2067629426
 Final energy is   -118.20676294261381
 **  OPTIMIZATION CONVERGED  **

                    Orbital Energies (a.u.)
 --------------------------------------------------------------

 Alpha MOs
 -- Occupied --
-10.4399 -10.4354 -10.4251  -0.8754  -0.7581  -0.6548  -0.5263  -0.4898
 -0.4498  -0.4378  -0.4019  -0.3823  -0.2525

 Beta MOs
 -- Occupied --
-10.4367 -10.4239 -10.4232  -0.8619  -0.7335  -0.6367  -0.5209  -0.4821
 -0.4436  -0.4220  -0.3956  -0.3798

          Ground-State Mulliken Net Atomic Charges

     Atom                 Charge (a.u.)    Spin (a.u.)
  --------------------------------------------------------
      1 C                    -0.630661       0.048214
      2 C                    -0.447202      -0.094497
      3 C                    -0.424523       1.134604
      4 H                     0.214587      -0.002028
      5 H                     0.214584      -0.002030
      6 H                     0.215918       0.011295
      7 H                     0.217974       0.013882
      8 H                     0.217976       0.013857
      9 H                     0.210678      -0.061649
     10 H                     0.210669      -0.061648
  --------------------------------------------------------
  Sum of atomic charges =    -0.000000

                    Cartesian Multipole Moments
 -----------------------------------------------------------------
    Charge (ESU x 10^10)
                 0.0000
    Dipole Moment (Debye)
         X       0.2718      Y      -0.0350      Z       0.0000
       Tot       0.2740
    Quadrupole Moments (Debye-Ang)
        XX     -21.6089     XY       0.8932     YY     -21.1555
        XZ      -0.0005     YZ       0.0004     ZZ     -19.7697

 Total job time:  82.94s(wall), 939.11s(cpu)
        *  Thank you very much for using Q-Chem.  Have a nice day.  *
