 Q-Chem 5.2 (devel), Q-Chem, Inc., Pleasanton, CA (2019)
 Q-Chem 5.2.0 for Intel X86 EM64T Linux

User input:
--------------------------------------------------------------
$Comment
Geometry optimizations for CLB18.
$End

$Rem
SYMMETRY              False
SYM_IGNORE            True
JOBTYPE               Opt
METHOD                PBEh-3c
BASIS                 def2-mSVP
MAX_SCF_CYCLES        50
SCF_ALGORITHM         DIIS
SCF_PRINT             1
SCF_FINAL_PRINT       1
XC_GRID               000099000590
MEM_TOTAL             20000
MEM_STATIC            4000
BLAS3_DFT             True
New_DFT               True
$End

$Molecule
0 1
C -0.7630947051 0.0000000000 0.0000000000
C 0.7630947051 0.0000000000 0.0000000000
H 1.1583107049 -0.4436420648 -0.9140954222
H -1.1583107049 -1.0133267327 -0.0746399164
H 1.1583107049 -0.5698127288 0.8412541791
H 1.1583107049 1.0134537353 0.0728481224
H -1.1583107049 0.4420201366 0.9148838962
H -1.1583107049 0.5713050086 -0.8402434506
$End

--------------------------------------------------------------

    9     -79.6507664301      4.17e-09  Convergence criterion met
 Total energy in the final basis set =      -79.6507664301
    6     -79.6507846411      8.77e-09  Convergence criterion met
 Total energy in the final basis set =      -79.6507846411

             Standard Nuclear Orientation (Angstroms)
    I     Atom           X                Y                Z
 ----------------------------------------------------------------
    1      C      -0.7604145608     0.0000099501     0.0000057411
    2      C       0.7604300441     0.0000050824     0.0000059991
    3      H       1.1590105277    -0.4424264670    -0.9130176531
    4      H      -1.1590087745    -1.0118625663    -0.0739129940
    5      H       1.1590102366    -0.5694991093     0.8396640608
    6      H       1.1590255985     1.0119176346     0.0733524780
    7      H      -1.1590289543     0.4419206980     0.9132671475
    8      H      -1.1590241174     0.5699321317    -0.8393573707
 ----------------------------------------------------------------

    6     -79.6507862630      4.74e-09  Convergence criterion met
 Total energy in the final basis set =      -79.6507862630
 Final energy is   -79.650786262958150
 **  OPTIMIZATION CONVERGED  **

                    Orbital Energies (a.u.)
 --------------------------------------------------------------

 Alpha MOs
 -- Occupied --
-10.4212 -10.4210  -0.8396  -0.6898  -0.4913  -0.4913  -0.4201  -0.3912
 -0.3912

          Ground-State Mulliken Net Atomic Charges

     Atom                 Charge (a.u.)
  ----------------------------------------
      1 C                    -0.638588
      2 C                    -0.638584
      3 H                     0.212862
      4 H                     0.212861
      5 H                     0.212862
      6 H                     0.212863
      7 H                     0.212863
      8 H                     0.212861
  ----------------------------------------
  Sum of atomic charges =     0.000000

                    Cartesian Multipole Moments
 -----------------------------------------------------------------
    Charge (ESU x 10^10)
                 0.0000
    Dipole Moment (Debye)
         X      -0.0000      Y      -0.0000      Z      -0.0000
       Tot       0.0000
    Quadrupole Moments (Debye-Ang)
        XX     -15.1965     XY       0.0000     YY     -14.6531
        XZ      -0.0000     YZ      -0.0000     ZZ     -14.6531

 Total job time:  28.33s(wall), 291.90s(cpu)
        *  Thank you very much for using Q-Chem.  Have a nice day.  *
