 Q-Chem 5.3 (devel), Q-Chem, Inc., Pleasanton, CA (2020)
 Q-Chem 5.3.1 for Intel X86 EM64T Linux

User input:
--------------------------------------------------------------
$Comment
Geometry optimizations for CLB18.
$End

$Rem
SYMMETRY              False
SYM_IGNORE            True
JOBTYPE               TS
METHOD                PBEh-3c
BASIS                 def2-mSVP
GEOM_OPT_MAX_CYCLES   150
GEOM_OPT_DMAX         10
MAX_SCF_CYCLES        50
SCF_ALGORITHM         DIIS
SCF_PRINT             1
SCF_FINAL_PRINT       1
XC_GRID               000099000590
MEM_TOTAL             20000
MEM_STATIC            4000
BLAS3_DFT             True
New_DFT               True
$End

$Molecule
0 2
C -0.5678759402 0.0000510000 -0.2189581837
C 0.7511405919 -0.0000360000 0.0419320022
H -1.4938831414 -0.0004880003 1.5317669379
H -1.1016940352 0.9206519278 -0.4086264088
H -1.1020221250 -0.9202338778 -0.4091100767
H 1.2991300525 -0.9223452949 0.1737632748
H 1.2988972145 0.9223241278 0.1743628326
$End

--------------------------------------------------------------

   14     -78.9026739682      3.87e-09  Convergence criterion met
 Total energy in the final basis set =      -78.9026739682
    7     -78.9026729680      6.14e-09  Convergence criterion met
 Total energy in the final basis set =      -78.9026729680
    7     -78.9026704717      9.23e-09  Convergence criterion met
 Total energy in the final basis set =      -78.9026704717
    9     -78.9026670981      6.14e-09  Convergence criterion met
 Total energy in the final basis set =      -78.9026670981
    9     -78.9026636337      6.60e-09  Convergence criterion met
 Total energy in the final basis set =      -78.9026636337
    9     -78.9026612127      5.77e-09  Convergence criterion met
 Total energy in the final basis set =      -78.9026612127
    9     -78.9026595268      5.92e-09  Convergence criterion met
 Total energy in the final basis set =      -78.9026595268
    9     -78.9026498367      7.39e-09  Convergence criterion met
    9     -78.9020100284      8.32e-09  Convergence criterion met
 Total energy in the final basis set =      -78.9020100284
    9     -78.9020065293      8.24e-09  Convergence criterion met
 Total energy in the final basis set =      -78.9020065293
    9     -78.9020038003      8.15e-09  Convergence criterion met
 Total energy in the final basis set =      -78.9020038003
    9     -78.9020018102      8.07e-09  Convergence criterion met
 Total energy in the final basis set =      -78.9020018102
    9     -78.9020005290      7.99e-09  Convergence criterion met
 Total energy in the final basis set =      -78.9020005290
    9     -78.9019999278      7.92e-09  Convergence criterion met
 Total energy in the final basis set =      -78.9019999278
 Final energy is   -78.901999927767434
 **  OPTIMIZATION CONVERGED  **
 Total job time:  343.80s(wall), 2498.43s(cpu)
        *  Thank you very much for using Q-Chem.  Have a nice day.  *

User input: 2 of 2

                  Welcome to Q-Chem
     A Quantum Leap Into The Future Of Chemistry

 Q-Chem 5.3 (devel), Q-Chem, Inc., Pleasanton, CA (2020)

 Yihan Shao,  Zhengting Gan,  E. Epifanovsky,  A. T. B. Gilbert,  M. Wormit,
 J. Kussmann,  A. W. Lange,  A. Behn,  Jia Deng,  Xintian Feng,  D. Ghosh,
 M. Goldey,  P. R. Horn,  L. D. Jacobson,  I. Kaliman,  T. Kus,  A. Landau,
 Jie Liu,  E. I. Proynov,  R. M. Richard,  R. P. Steele,  E. J. Sundstrom,
 H. L. Woodcock III,  P. M. Zimmerman,  D. Zuev,  B. Alam,  B. Albrecht,
 A. Aldossary,  E. Alguire,  S. A. Baeppler,  D. Barton,  Z. Benda,
 Y. A. Bernard,  E. J. Berquist,  K. B. Bravaya,  H. Burton,  K. Carter-Fenk,
 D. Casanova,  Chun-Min Chang,  Yunqing Chen,  A. Chien,  K. D. Closser,
 M. P. Coons,  S. Coriani,  S. Dasgupta,  A. L. Dempwolff,  M. Diedenhofen,
 Hainam Do,  R. G. Edgar,  Po-Tung Fang,  S. Faraji,  S. Fatehi,
 Qingguo Feng,  J. Fosso-Tande,  J. Gayvert,  Qinghui Ge,  A. Ghysels,
 G. Gidofalvi,  J. Gomes,  J. Gonthier,  S. Gulania,  A. Gunina,  D. Hait,
 M. W. D. Hanson-Heine,  S. Hammes-Schiffer,  P. H. P. Harbach,
 A. W. Hauser,  M. F. Herbst,  J. E. Herr,  E. G. Hohenstein,  Z. C. Holden,
 S. Houck,  Kerwin Hui,  B. C. Huynh,  M. Ivanov,  T.-C. Jagau,  Hyunjun Ji,
 B. Kaduk,  K. Khistyaev,  Jaehoon Kim,  P. Klunzinger,  K. Koh,
 D. Kosenkov,  L. Koulias,  T. Kowalczyk,  C. M. Krauter,  A. Kunitsa,
 Ka Un Lao,  A. Laurent,  K. V. Lawler,  Joonho Lee,  D. Lefrancois,
 S. Lehtola,  D. S. Levine,  Yi-Pei Li,  You-Sheng Lin,  Fenglai Liu,
 Kuan-Yu Liu,  E. Livshits,  M. Loipersberger,  A. Luenser,  P. Manohar,
 E. Mansoor,  S. F. Manzer,  Shan-Ping Mao,  Yuezhi Mao,  N. Mardirossian,
 A. V. Marenich,  T. Markovich,  L. A. Martinez-Martinez,  S. A. Maurer,
 N. J. Mayhall,  S. C. McKenzie,  J.-M. Mewes,  P. Morgante,  A. F. Morrison,
 J. W. Mullinax,  K. Nanda,  T. S. Nguyen-Beck,  R. Olivares-Amaya,
 K. J. Oosterbaan,  J. A. Parkhill,  S. K. Paul,  F. Pavosevic,  Zheng Pei,
 T. M. Perrine,  F. Plasser,  P. Pokhilko,  S. Prager,  A. Prociuk,
 E. Ramos,  B. Rana,  D. R. Rehn,  F. Rob,  E. Rossomme,  M. Scheurer,
 M. Schneider,  N. Sergueev,  S. M. Sharada,  S. Sharma,  W. Skomorowski,
 D. W. Small,  T. Stauch,  C. J. Stein,  T. Stein,  Yu-Chuan Su,
 S. P. Veccham,  Zhen Tao,  A. J. W. Thom,  A. Tkatchenko,  T. Tsuchimochi,
 N. M. Tubman,  L. Vogt,  M. L. Vidal,  O. Vydrov,  M. A. Watson,  J. Wenzel,
 M. de Wergifosse,  T. A. Wesolowski,  A. White,  J. Witte,  A. Yamada,
 Jun Yang,  K. Yao,  S. Yeganeh,  S. R. Yost,  Zhi-Qiang You,  A. Zech,
 Igor Ying Zhang,  Xing Zhang,  Yan Zhao,  Ying Zhu,  B. R. Brooks,
 G. K. L. Chan,  C. J. Cramer,  M. S. Gordon,  W. J. Hehre,  A. Klamt,
 M. W. Schmidt,  C. D. Sherrill,  D. G. Truhlar,  A. Aspuru-Guzik,  R. Baer,
 A. T. Bell,  N. A. Besley,  Jeng-Da Chai,  A. E. DePrince, III,
 R. A. DiStasio Jr.,  A. Dreuw,  B. D. Dunietz,  T. R. Furlani,
 Chao-Ping Hsu,  Yousung Jung,  Jing Kong,  D. S. Lambrecht,  WanZhen Liang,
 C. Ochsenfeld,  V. A. Rassolov,  L. V. Slipchenko,  J. E. Subotnik,
 T. Van Voorhis,  J. M. Herbert,  A. I. Krylov,  P. M. W. Gill,  M. Head-Gordon

 Contributors to earlier versions of Q-Chem not listed above:
 R. D. Adamson,  B. Austin,  J. Baker,  G. J. O. Beran,  K. Brandhorst,
 S. T. Brown,  E. F. C. Byrd,  A. K. Chakraborty,  C.-L. Cheng,
 Siu Hung Chien,  D. M. Chipman,  D. L. Crittenden,  H. Dachsel,
 R. J. Doerksen,  A. D. Dutoi,  L. Fusti-Molnar,  W. A. Goddard III,
 A. Golubeva-Zadorozhnaya,  S. R. Gwaltney,  G. Hawkins,  A. Heyden,
 S. Hirata,  G. Kedziora,  F. J. Keil,  C. Kelley,  Jihan Kim,  R. A. King,
 R. Z. Khaliullin,  P. P. Korambath,  W. Kurlancheek,  A. M. Lee,  M. S. Lee,
 S. V. Levchenko,  Ching Yeh Lin,  D. Liotard,  R. C. Lochan,  I. Lotan,
 P. E. Maslen,  N. Nair,  D. P. O'Neill,  D. Neuhauser,  E. Neuscamman,
 C. M. Oana,  R. Olson,  B. Peters,  R. Peverati,  P. A. Pieniazek,
 Y. M. Rhee,  J. Ritchie,  M. A. Rohrdanz,  E. Rosta,  N. J. Russ,
 H. F. Schaefer III,  N. E. Schultz,  N. Shenvi,  A. C. Simmonett,  A. Sodt,
 D. Stuck,  K. S. Thanthiriwatte,  V. Vanovschi,  Tao Wang,  A. Warshel,
 C. F. Williams,  Q. Wu,  X. Xu,  W. Zhang

 Please cite Q-Chem as follows:
 Y. Shao et al., Mol. Phys. 113, 184-215 (2015)
 DOI: 10.1080/00268976.2014.952696

 Q-Chem 5.3.1 for Intel X86 EM64T Linux

 Parts of Q-Chem use Armadillo 9.800.1 (Horizon Scraper).
 http://arma.sourceforge.net/

 Q-Chem begins on Fri Oct 30 09:06:45 2020

Host:
0

     Scratch files written to /data/scratch/MN_13_c2h5ts_BH76_PBEh_3c//
Processing $rem in /home/pierpa/qchem53/config/preferences:
Processing $rem in /home/pierpa/.qchemrc:
The previous job contains 0 fragments, simply inherited here

Checking the input file for inconsistencies... 	...done.

--------------------------------------------------------------
User input:
--------------------------------------------------------------

$Comment
Geometry optimizations for CLB18.
$End

$Rem
SYMMETRY              False
SYM_IGNORE            True
JOBTYPE               Freq
METHOD                PBEh-3c
BASIS                 def2-mSVP
GEOM_OPT_MAX_CYCLES   150
GEOM_OPT_DMAX         10
MAX_SCF_CYCLES        50
SCF_ALGORITHM         DIIS
SCF_PRINT             1
SCF_FINAL_PRINT       1
XC_GRID               000099000590
MEM_TOTAL             20000
MEM_STATIC            4000
BLAS3_DFT             True
New_DFT               True
$End

$Molecule
Read
$End

--------------------------------------------------------------

             Standard Nuclear Orientation (Angstroms)
    I     Atom           X                Y                Z
 ----------------------------------------------------------------
    1      C      -0.5422614011     0.0002601064    -0.2517559285
    2      C       0.7609562921     0.0001778080     0.0280088510
    3      H      -1.5891364361    -0.0014236513     1.6325396914
    4      H      -1.0870887145     0.9195765813    -0.4198161758
    5      H      -1.0870570963    -0.9189446713    -0.4205277430
    6      H       1.3141563956    -0.9200194854     0.1579963932
    7      H       1.3141235773     0.9202971950     0.1586852900
 ----------------------------------------------------------------

   14     -78.9019999286      3.68e-09  Convergence criterion met
 Total energy in the final basis set =      -78.9019999286

                    Orbital Energies (a.u.)
 --------------------------------------------------------------

 Alpha MOs
 -- Occupied --
-10.4475 -10.4453  -0.8565  -0.6594  -0.5351  -0.4849  -0.4127  -0.3761
 -0.2847

 Beta MOs
 -- Occupied --
-10.4494 -10.4412  -0.8525  -0.6556  -0.5338  -0.4823  -0.4116  -0.3246

          Ground-State Mulliken Net Atomic Charges

     Atom                 Charge (a.u.)    Spin (a.u.)
  --------------------------------------------------------
      1 C                    -0.468854      -0.203900
      2 C                    -0.414785       0.285966
      3 H                    -0.015294       0.927394
      4 H                     0.231244       0.010640
      5 H                     0.231260       0.010645
      6 H                     0.218215      -0.015373
      7 H                     0.218214      -0.015373
  --------------------------------------------------------
  Sum of atomic charges =    -0.000000

                    Cartesian Multipole Moments
 -----------------------------------------------------------------
    Charge (ESU x 10^10)
                 0.0000
    Dipole Moment (Debye)
         X       0.1954      Y       0.0002      Z      -0.2584
       Tot       0.3239
    Quadrupole Moments (Debye-Ang)
        XX     -13.5481     XY      -0.0006     YY     -13.1612
        XZ       1.2696     YZ       0.0015     ZZ     -16.8755

 Frequency:      -460.34                 294.84                 335.57
 Force Cnst:      0.1379                 0.0621                 0.0691
 Red. Mass:       1.1049                 1.2116                 1.0416
 IR Intens:       24.114                  0.770                  0.002
 Frequency:       848.00                 985.61                1010.62
 Force Cnst:      0.4415                 0.7821                 0.7150
 Red. Mass:       1.0420                 1.3665                 1.1881
 IR Intens:        1.860                 50.974                 60.778
 Frequency:      1076.16                1270.75                1399.19
 Force Cnst:      0.6888                 1.4384                 1.5057
 Red. Mass:       1.0095                 1.5119                 1.3053
 IR Intens:        0.070                  0.006                  0.240
 Frequency:      1512.43                1711.02                3230.80
 Force Cnst:      1.4989                 4.5845                 6.4461
 Red. Mass:       1.1122                 2.6579                 1.0481
 IR Intens:       12.163                  1.201                  7.271
 Frequency:      3245.28                3317.17                3339.47
 Force Cnst:      6.6519                 7.2445                 7.3460
 Red. Mass:       1.0720                 1.1174                 1.1180
 IR Intens:        0.934                  0.065                 11.780

 STANDARD THERMODYNAMIC QUANTITIES AT   298.15 K  AND     1.00 ATM

   This Molecule has  1 Imaginary Frequencies
   Zero point vibrational energy:       33.705 kcal/mol

   Atom    1 Element C  Has Mass   12.00000
   Atom    2 Element C  Has Mass   12.00000
   Atom    3 Element H  Has Mass    1.00783
   Atom    4 Element H  Has Mass    1.00783
   Atom    5 Element H  Has Mass    1.00783
   Atom    6 Element H  Has Mass    1.00783
   Atom    7 Element H  Has Mass    1.00783
   Molecular Mass:    29.039150 amu
   Principal axes and moments of inertia in amu*Bohr^2:
                             1           2           3
    Eigenvalues --       25.55212    79.46413    80.66196
          X               0.99892    -0.04637    -0.00035
          Y               0.00010    -0.00539     0.99999
          Z               0.04637     0.99891     0.00538
   Rotational Symmetry Number is   1
   The Molecule is an Asymmetric Top
   Translational Enthalpy:        0.889 kcal/mol
   Rotational Enthalpy:           0.889 kcal/mol
   Vibrational Enthalpy:         34.331 kcal/mol
   gas constant (RT):             0.592 kcal/mol
   Translational Entropy:        36.032  cal/mol.K
   Rotational Entropy:           19.732  cal/mol.K
   Vibrational Entropy:           3.173  cal/mol.K

   Total Enthalpy:               36.701 kcal/mol
   Total Entropy:                58.937  cal/mol.K

 Total job time:  71.05s(wall), 556.39s(cpu)
        *  Thank you very much for using Q-Chem.  Have a nice day.  *
