 Q-Chem 5.2 (devel), Q-Chem, Inc., Pleasanton, CA (2019)
 Q-Chem 5.2.0 for Intel X86 EM64T Linux

User input:
--------------------------------------------------------------
$Comment
Geometry optimizations for CLB18.
$End

$Rem
SYMMETRY              False
SYM_IGNORE            True
JOBTYPE               Opt
METHOD                PBEh-3c
BASIS                 def2-mSVP
MAX_SCF_CYCLES        50
SCF_ALGORITHM         DIIS
SCF_PRINT             1
SCF_FINAL_PRINT       1
XC_GRID               000099000590
MEM_TOTAL             20000
MEM_STATIC            4000
BLAS3_DFT             True
New_DFT               True
$End

$Molecule
0 1
C 0.0000000000 0.0000000000 0.0000000000
H 0.6278370100 0.6278370100 0.6278370100
H -0.6278370100 -0.6278370100 0.6278370100
H 0.6278370100 -0.6278370100 -0.6278370100
H -0.6278370100 0.6278370100 -0.6278370100
$End

--------------------------------------------------------------

    8     -40.4265362969      8.47e-09  Convergence criterion met
 Total energy in the final basis set =      -40.4265362969

             Standard Nuclear Orientation (Angstroms)
    I     Atom           X                Y                Z
 ----------------------------------------------------------------
    1      C       0.0000016307     0.0000019271     0.0000013343
    2      H       0.6273576065     0.6273562666     0.6273589474
    3      H      -0.6273554815    -0.6273549667     0.6273537436
    4      H       0.6273530794    -0.6273556435    -0.6273566743
    5      H      -0.6273568351     0.6273524164    -0.6273573511
 ----------------------------------------------------------------

    5     -40.4265379306      9.56e-09  Convergence criterion met
 Total energy in the final basis set =      -40.4265379306
 Final energy is   -40.426537930584203
 **  OPTIMIZATION CONVERGED  **

                    Orbital Energies (a.u.)
 --------------------------------------------------------------

 Alpha MOs
 -- Occupied --
-10.4136  -0.7753  -0.4454  -0.4454  -0.4454

          Ground-State Mulliken Net Atomic Charges

     Atom                 Charge (a.u.)
  ----------------------------------------
      1 C                    -0.881058
      2 H                     0.220265
      3 H                     0.220265
      4 H                     0.220265
      5 H                     0.220264
  ----------------------------------------
  Sum of atomic charges =     0.000000

                    Cartesian Multipole Moments
 -----------------------------------------------------------------
    Charge (ESU x 10^10)
                 0.0000
    Dipole Moment (Debye)
         X      -0.0000      Y      -0.0000      Z      -0.0000
       Tot       0.0000
    Quadrupole Moments (Debye-Ang)
        XX      -8.2443     XY       0.0000     YY      -8.2443
        XZ       0.0000     YZ       0.0000     ZZ      -8.2443

 Total job time:  8.40s(wall), 66.75s(cpu)
        *  Thank you very much for using Q-Chem.  Have a nice day.  *
