 Q-Chem 5.3 (devel), Q-Chem, Inc., Pleasanton, CA (2020)
 Q-Chem 5.3.1 for Intel X86 EM64T Linux

User input:
--------------------------------------------------------------
$Comment
Geometry optimizations for CLB18.
$End

$Rem
SYMMETRY              False
SYM_IGNORE            True
JOBTYPE               TS
METHOD                PBEh-3c
BASIS                 def2-mSVP
GEOM_OPT_MAX_CYCLES   150
GEOM_OPT_DMAX         10
MAX_SCF_CYCLES        50
SCF_ALGORITHM         DIIS
SCF_PRINT             1
SCF_FINAL_PRINT       1
XC_GRID               000099000590
MEM_TOTAL             20000
MEM_STATIC            4000
BLAS3_DFT             True
New_DFT               True
$End

$Molecule
0 2
Cl 1.4547504867 -0.0012369994 -0.0000400000
F -0.3235871018 0.0046310044 0.0001240000
C -2.3874200289 -0.0021469989 -0.0000730000
H -2.4950864242 -0.8553620435 -0.6494062731
H -2.4973142603 -0.1386730048 1.0631381836
H -2.5015370944 0.9862699019 -0.4137340272
$End

--------------------------------------------------------------

   15    -599.0049064763      3.35e-09  Convergence criterion met
 Total energy in the final basis set =     -599.0049064763
   10    -599.0048846848      9.40e-09  Convergence criterion met
 Total energy in the final basis set =     -599.0048846848
   11    -599.0048897042      4.57e-09  Convergence criterion met
 Total energy in the final basis set =     -599.0048897042
   11    -599.0049221181      7.58e-09  Convergence criterion met
 Total energy in the final basis set =     -599.0049221181
   11    -599.0049500080      7.72e-09  Convergence criterion met
 Total energy in the final basis set =     -599.0049500080
   11    -599.0049721456      7.66e-09  Convergence criterion met
 Total energy in the final basis set =     -599.0049721456
   11    -599.0049877060      7.58e-09  Convergence criterion met
 Total energy in the final basis set =     -599.0049877060
   11    -599.0049964545      7.51e-09  Convergence criterion met
 Total energy in the final basis set =     -599.0049964545
   11    -599.0049984778      5.63e-09  Convergence criterion met
 Total energy in the final basis set =     -599.0049984778
 Final energy is   -599.00499847778565
 **  OPTIMIZATION CONVERGED  **
 Total job time:  74.30s(wall), 544.36s(cpu)
        *  Thank you very much for using Q-Chem.  Have a nice day.  *

User input: 2 of 2

                  Welcome to Q-Chem
     A Quantum Leap Into The Future Of Chemistry

 Q-Chem 5.3 (devel), Q-Chem, Inc., Pleasanton, CA (2020)

 Yihan Shao,  Zhengting Gan,  E. Epifanovsky,  A. T. B. Gilbert,  M. Wormit,
 J. Kussmann,  A. W. Lange,  A. Behn,  Jia Deng,  Xintian Feng,  D. Ghosh,
 M. Goldey,  P. R. Horn,  L. D. Jacobson,  I. Kaliman,  T. Kus,  A. Landau,
 Jie Liu,  E. I. Proynov,  R. M. Richard,  R. P. Steele,  E. J. Sundstrom,
 H. L. Woodcock III,  P. M. Zimmerman,  D. Zuev,  B. Alam,  B. Albrecht,
 A. Aldossary,  E. Alguire,  S. A. Baeppler,  D. Barton,  Z. Benda,
 Y. A. Bernard,  E. J. Berquist,  K. B. Bravaya,  H. Burton,  K. Carter-Fenk,
 D. Casanova,  Chun-Min Chang,  Yunqing Chen,  A. Chien,  K. D. Closser,
 M. P. Coons,  S. Coriani,  S. Dasgupta,  A. L. Dempwolff,  M. Diedenhofen,
 Hainam Do,  R. G. Edgar,  Po-Tung Fang,  S. Faraji,  S. Fatehi,
 Qingguo Feng,  J. Fosso-Tande,  J. Gayvert,  Qinghui Ge,  A. Ghysels,
 G. Gidofalvi,  J. Gomes,  J. Gonthier,  S. Gulania,  A. Gunina,  D. Hait,
 M. W. D. Hanson-Heine,  S. Hammes-Schiffer,  P. H. P. Harbach,
 A. W. Hauser,  M. F. Herbst,  J. E. Herr,  E. G. Hohenstein,  Z. C. Holden,
 S. Houck,  Kerwin Hui,  B. C. Huynh,  M. Ivanov,  T.-C. Jagau,  Hyunjun Ji,
 B. Kaduk,  K. Khistyaev,  Jaehoon Kim,  P. Klunzinger,  K. Koh,
 D. Kosenkov,  L. Koulias,  T. Kowalczyk,  C. M. Krauter,  A. Kunitsa,
 Ka Un Lao,  A. Laurent,  K. V. Lawler,  Joonho Lee,  D. Lefrancois,
 S. Lehtola,  D. S. Levine,  Yi-Pei Li,  You-Sheng Lin,  Fenglai Liu,
 Kuan-Yu Liu,  E. Livshits,  M. Loipersberger,  A. Luenser,  P. Manohar,
 E. Mansoor,  S. F. Manzer,  Shan-Ping Mao,  Yuezhi Mao,  N. Mardirossian,
 A. V. Marenich,  T. Markovich,  L. A. Martinez-Martinez,  S. A. Maurer,
 N. J. Mayhall,  S. C. McKenzie,  J.-M. Mewes,  P. Morgante,  A. F. Morrison,
 J. W. Mullinax,  K. Nanda,  T. S. Nguyen-Beck,  R. Olivares-Amaya,
 K. J. Oosterbaan,  J. A. Parkhill,  S. K. Paul,  F. Pavosevic,  Zheng Pei,
 T. M. Perrine,  F. Plasser,  P. Pokhilko,  S. Prager,  A. Prociuk,
 E. Ramos,  B. Rana,  D. R. Rehn,  F. Rob,  E. Rossomme,  M. Scheurer,
 M. Schneider,  N. Sergueev,  S. M. Sharada,  S. Sharma,  W. Skomorowski,
 D. W. Small,  T. Stauch,  C. J. Stein,  T. Stein,  Yu-Chuan Su,
 S. P. Veccham,  Zhen Tao,  A. J. W. Thom,  A. Tkatchenko,  T. Tsuchimochi,
 N. M. Tubman,  L. Vogt,  M. L. Vidal,  O. Vydrov,  M. A. Watson,  J. Wenzel,
 M. de Wergifosse,  T. A. Wesolowski,  A. White,  J. Witte,  A. Yamada,
 Jun Yang,  K. Yao,  S. Yeganeh,  S. R. Yost,  Zhi-Qiang You,  A. Zech,
 Igor Ying Zhang,  Xing Zhang,  Yan Zhao,  Ying Zhu,  B. R. Brooks,
 G. K. L. Chan,  C. J. Cramer,  M. S. Gordon,  W. J. Hehre,  A. Klamt,
 M. W. Schmidt,  C. D. Sherrill,  D. G. Truhlar,  A. Aspuru-Guzik,  R. Baer,
 A. T. Bell,  N. A. Besley,  Jeng-Da Chai,  A. E. DePrince, III,
 R. A. DiStasio Jr.,  A. Dreuw,  B. D. Dunietz,  T. R. Furlani,
 Chao-Ping Hsu,  Yousung Jung,  Jing Kong,  D. S. Lambrecht,  WanZhen Liang,
 C. Ochsenfeld,  V. A. Rassolov,  L. V. Slipchenko,  J. E. Subotnik,
 T. Van Voorhis,  J. M. Herbert,  A. I. Krylov,  P. M. W. Gill,  M. Head-Gordon

 Contributors to earlier versions of Q-Chem not listed above:
 R. D. Adamson,  B. Austin,  J. Baker,  G. J. O. Beran,  K. Brandhorst,
 S. T. Brown,  E. F. C. Byrd,  A. K. Chakraborty,  C.-L. Cheng,
 Siu Hung Chien,  D. M. Chipman,  D. L. Crittenden,  H. Dachsel,
 R. J. Doerksen,  A. D. Dutoi,  L. Fusti-Molnar,  W. A. Goddard III,
 A. Golubeva-Zadorozhnaya,  S. R. Gwaltney,  G. Hawkins,  A. Heyden,
 S. Hirata,  G. Kedziora,  F. J. Keil,  C. Kelley,  Jihan Kim,  R. A. King,
 R. Z. Khaliullin,  P. P. Korambath,  W. Kurlancheek,  A. M. Lee,  M. S. Lee,
 S. V. Levchenko,  Ching Yeh Lin,  D. Liotard,  R. C. Lochan,  I. Lotan,
 P. E. Maslen,  N. Nair,  D. P. O'Neill,  D. Neuhauser,  E. Neuscamman,
 C. M. Oana,  R. Olson,  B. Peters,  R. Peverati,  P. A. Pieniazek,
 Y. M. Rhee,  J. Ritchie,  M. A. Rohrdanz,  E. Rosta,  N. J. Russ,
 H. F. Schaefer III,  N. E. Schultz,  N. Shenvi,  A. C. Simmonett,  A. Sodt,
 D. Stuck,  K. S. Thanthiriwatte,  V. Vanovschi,  Tao Wang,  A. Warshel,
 C. F. Williams,  Q. Wu,  X. Xu,  W. Zhang

 Please cite Q-Chem as follows:
 Y. Shao et al., Mol. Phys. 113, 184-215 (2015)
 DOI: 10.1080/00268976.2014.952696

 Q-Chem 5.3.1 for Intel X86 EM64T Linux

 Parts of Q-Chem use Armadillo 9.800.1 (Horizon Scraper).
 http://arma.sourceforge.net/

 Q-Chem begins on Fri Oct 30 09:10:20 2020

Host:
0

     Scratch files written to /data/scratch/MN_21_ch3fclts_BH76_PBEh_3c//
Processing $rem in /home/pierpa/qchem53/config/preferences:
Processing $rem in /home/pierpa/.qchemrc:
The previous job contains 0 fragments, simply inherited here

Checking the input file for inconsistencies... 	...done.

--------------------------------------------------------------
User input:
--------------------------------------------------------------

$Comment
Geometry optimizations for CLB18.
$End

$Rem
SYMMETRY              False
SYM_IGNORE            True
JOBTYPE               Freq
METHOD                PBEh-3c
BASIS                 def2-mSVP
GEOM_OPT_MAX_CYCLES   150
GEOM_OPT_DMAX         10
MAX_SCF_CYCLES        50
SCF_ALGORITHM         DIIS
SCF_PRINT             1
SCF_FINAL_PRINT       1
XC_GRID               000099000590
MEM_TOTAL             20000
MEM_STATIC            4000
BLAS3_DFT             True
New_DFT               True
$End

$Molecule
Read
$End

--------------------------------------------------------------

             Standard Nuclear Orientation (Angstroms)
    I     Atom           X                Y                Z
 ----------------------------------------------------------------
    1      Cl      1.4686502748    -0.0004082482    -0.0000940329
    2      F      -0.2935745578     0.0036575788     0.0000826107
    3      C      -2.3761353370    -0.0021277612     0.0000047736
    4      H      -2.5138317039    -0.8530141915    -0.6477220046
    5      H      -2.5159714794    -0.1382663039     1.0604003134
    6      H      -2.5193316196     0.9836407857    -0.4126627769
 ----------------------------------------------------------------

   15    -599.0049984794      2.90e-09  Convergence criterion met
 Total energy in the final basis set =     -599.0049984794

                    Orbital Energies (a.u.)
 --------------------------------------------------------------

 Alpha MOs
 -- Occupied --
******** -25.1155 -10.4891  -9.7927  -7.4879  -7.4695  -7.4695  -1.2911
 -0.8917  -0.7972  -0.5435  -0.5185  -0.5185  -0.4887  -0.4887  -0.3560
 -0.3560  -0.2799

 Beta MOs
 -- Occupied --
******** -25.1178 -10.4759  -9.7896  -7.4766  -7.4676  -7.4676  -1.2955
 -0.8700  -0.7565  -0.5425  -0.5142  -0.5142  -0.4832  -0.4832  -0.3503
 -0.3503

          Ground-State Mulliken Net Atomic Charges

     Atom                 Charge (a.u.)    Spin (a.u.)
  --------------------------------------------------------
      1 Cl                    0.148045       0.362904
      2 F                    -0.313052      -0.113580
      3 C                    -0.568916       0.874143
      4 H                     0.244644      -0.041161
      5 H                     0.244643      -0.041156
      6 H                     0.244636      -0.041150
  --------------------------------------------------------
  Sum of atomic charges =    -0.000000

                    Cartesian Multipole Moments
 -----------------------------------------------------------------
    Charge (ESU x 10^10)
                -0.0000
    Dipole Moment (Debye)
         X      -1.8793      Y      -0.0056      Z      -0.0001
       Tot       1.8793
    Quadrupole Moments (Debye-Ang)
        XX     -18.0385     XY      -0.0008     YY     -23.9397
        XZ      -0.0002     YZ      -0.0000     ZZ     -23.9398

 Frequency:      -590.57                 112.03                 128.50
 Force Cnst:      2.8037                 0.0536                 0.0719
 Red. Mass:      13.6438                 7.2491                 7.3874
 IR Intens:      893.443                  3.378                  3.333
 Frequency:       397.12                 466.94                 467.79
 Force Cnst:      0.5659                 0.1391                 0.1398
 Red. Mass:       6.0899                 1.0832                 1.0845
 IR Intens:       85.971                  0.658                  0.642
 Frequency:       906.56                1462.62                1466.71
 Force Cnst:      0.5798                 1.3836                 1.3904
 Red. Mass:       1.1973                 1.0977                 1.0970
 IR Intens:       24.568                  5.396                  5.420
 Frequency:      3208.55                3393.36                3394.94
 Force Cnst:      6.1307                 7.5899                 7.5931
 Red. Mass:       1.0107                 1.1187                 1.1182
 IR Intens:        0.428                  0.321                  0.324

 STANDARD THERMODYNAMIC QUANTITIES AT   298.15 K  AND     1.00 ATM

   This Molecule has  1 Imaginary Frequencies
   Zero point vibrational energy:       22.023 kcal/mol

   Atom    1 Element Cl Has Mass   34.96885
   Atom    2 Element F  Has Mass   18.99840
   Atom    3 Element C  Has Mass   12.00000
   Atom    4 Element H  Has Mass    1.00783
   Atom    5 Element H  Has Mass    1.00783
   Atom    6 Element H  Has Mass    1.00783
   Molecular Mass:    68.990740 amu
   Principal axes and moments of inertia in amu*Bohr^2:
                             1           2           3
    Eigenvalues --       12.34064   586.85496   586.85610
          X               1.00000    -0.00019     0.00003
          Y               0.00019     0.99987     0.01614
          Z              -0.00003    -0.01614     0.99987
   Rotational Symmetry Number is   1
   The Molecule is an Asymmetric Top
   Translational Enthalpy:        0.889 kcal/mol
   Rotational Enthalpy:           0.889 kcal/mol
   Vibrational Enthalpy:         23.446 kcal/mol
   gas constant (RT):             0.592 kcal/mol
   Translational Entropy:        38.611  cal/mol.K
   Rotational Entropy:           22.968  cal/mol.K
   Vibrational Entropy:           8.828  cal/mol.K

   Total Enthalpy:               25.816 kcal/mol
   Total Entropy:                70.407  cal/mol.K

 Total job time:  66.20s(wall), 517.67s(cpu)
        *  Thank you very much for using Q-Chem.  Have a nice day.  *
