 Q-Chem 5.3 (devel), Q-Chem, Inc., Pleasanton, CA (2020)
 Q-Chem 5.3.1 for Intel X86 EM64T Linux

User input:
--------------------------------------------------------------
$Comment
Geometry optimizations for CLB18.
$End

$Rem
SYMMETRY              False
SYM_IGNORE            True
JOBTYPE               TS
METHOD                PBEh-3c
BASIS                 def2-mSVP
GEOM_OPT_MAX_CYCLES   150
GEOM_OPT_DMAX         10
MAX_SCF_CYCLES        50
SCF_ALGORITHM         DIIS
SCF_PRINT             1
SCF_FINAL_PRINT       1
XC_GRID               000099000590
MEM_TOTAL             20000
MEM_STATIC            4000
BLAS3_DFT             True
New_DFT               True
$End

$Molecule
-1 1
Cl 0.0000250000 0.0195260041 2.3225005687
C 0.0005130003 0.0004860001 -0.0000890002
H 0.7612796272 -0.7507331254 0.0063770087
H -1.0304509073 -0.2827240376 0.0021469989
H 0.2707281194 1.0349277465 -0.0086970275
Cl -0.0002970002 -0.0197840309 -2.3224582345
$End

--------------------------------------------------------------

   11    -959.2662453239      9.39e-10  Convergence criterion met
 Total energy in the final basis set =     -959.2662453239
    8    -959.2662412517      9.89e-09  Convergence criterion met
 Total energy in the final basis set =     -959.2662412517
    8    -959.2662364797      9.53e-09  Convergence criterion met
 Total energy in the final basis set =     -959.2662364797
    8    -959.2662301058      9.46e-09  Convergence criterion met
 Total energy in the final basis set =     -959.2662301058
    8    -959.2662227067      9.56e-09  Convergence criterion met
 Total energy in the final basis set =     -959.2662227067
    8    -959.2662147375      9.82e-09  Convergence criterion met
 Total energy in the final basis set =     -959.2662147375
    9    -959.2662068109      8.69e-10  Convergence criterion met
 Total energy in the final basis set =     -959.2662068109
    9    -959.2661996650      9.28e-10  Convergence criterion met
    9    -959.2662407841      9.47e-10  Convergence criterion met
 Total energy in the final basis set =     -959.2662407841
    9    -959.2662501635      9.19e-10  Convergence criterion met
 Total energy in the final basis set =     -959.2662501635
    8    -959.2662575079      9.89e-09  Convergence criterion met
 Total energy in the final basis set =     -959.2662575079
    8    -959.2662620019      9.84e-09  Convergence criterion met
 Total energy in the final basis set =     -959.2662620019
    8    -959.2662643933      9.49e-09  Convergence criterion met
 Total energy in the final basis set =     -959.2662643933
    8    -959.2662646878      5.14e-09  Convergence criterion met
 Total energy in the final basis set =     -959.2662646878
 Final energy is   -959.26626468784525
 **  OPTIMIZATION CONVERGED  **
 Total job time:  169.54s(wall), 1217.16s(cpu)
        *  Thank you very much for using Q-Chem.  Have a nice day.  *

User input: 2 of 2

                  Welcome to Q-Chem
     A Quantum Leap Into The Future Of Chemistry

 Q-Chem 5.3 (devel), Q-Chem, Inc., Pleasanton, CA (2020)

 Yihan Shao,  Zhengting Gan,  E. Epifanovsky,  A. T. B. Gilbert,  M. Wormit,
 J. Kussmann,  A. W. Lange,  A. Behn,  Jia Deng,  Xintian Feng,  D. Ghosh,
 M. Goldey,  P. R. Horn,  L. D. Jacobson,  I. Kaliman,  T. Kus,  A. Landau,
 Jie Liu,  E. I. Proynov,  R. M. Richard,  R. P. Steele,  E. J. Sundstrom,
 H. L. Woodcock III,  P. M. Zimmerman,  D. Zuev,  B. Alam,  B. Albrecht,
 A. Aldossary,  E. Alguire,  S. A. Baeppler,  D. Barton,  Z. Benda,
 Y. A. Bernard,  E. J. Berquist,  K. B. Bravaya,  H. Burton,  K. Carter-Fenk,
 D. Casanova,  Chun-Min Chang,  Yunqing Chen,  A. Chien,  K. D. Closser,
 M. P. Coons,  S. Coriani,  S. Dasgupta,  A. L. Dempwolff,  M. Diedenhofen,
 Hainam Do,  R. G. Edgar,  Po-Tung Fang,  S. Faraji,  S. Fatehi,
 Qingguo Feng,  J. Fosso-Tande,  J. Gayvert,  Qinghui Ge,  A. Ghysels,
 G. Gidofalvi,  J. Gomes,  J. Gonthier,  S. Gulania,  A. Gunina,  D. Hait,
 M. W. D. Hanson-Heine,  S. Hammes-Schiffer,  P. H. P. Harbach,
 A. W. Hauser,  M. F. Herbst,  J. E. Herr,  E. G. Hohenstein,  Z. C. Holden,
 S. Houck,  Kerwin Hui,  B. C. Huynh,  M. Ivanov,  T.-C. Jagau,  Hyunjun Ji,
 B. Kaduk,  K. Khistyaev,  Jaehoon Kim,  P. Klunzinger,  K. Koh,
 D. Kosenkov,  L. Koulias,  T. Kowalczyk,  C. M. Krauter,  A. Kunitsa,
 Ka Un Lao,  A. Laurent,  K. V. Lawler,  Joonho Lee,  D. Lefrancois,
 S. Lehtola,  D. S. Levine,  Yi-Pei Li,  You-Sheng Lin,  Fenglai Liu,
 Kuan-Yu Liu,  E. Livshits,  M. Loipersberger,  A. Luenser,  P. Manohar,
 E. Mansoor,  S. F. Manzer,  Shan-Ping Mao,  Yuezhi Mao,  N. Mardirossian,
 A. V. Marenich,  T. Markovich,  L. A. Martinez-Martinez,  S. A. Maurer,
 N. J. Mayhall,  S. C. McKenzie,  J.-M. Mewes,  P. Morgante,  A. F. Morrison,
 J. W. Mullinax,  K. Nanda,  T. S. Nguyen-Beck,  R. Olivares-Amaya,
 K. J. Oosterbaan,  J. A. Parkhill,  S. K. Paul,  F. Pavosevic,  Zheng Pei,
 T. M. Perrine,  F. Plasser,  P. Pokhilko,  S. Prager,  A. Prociuk,
 E. Ramos,  B. Rana,  D. R. Rehn,  F. Rob,  E. Rossomme,  M. Scheurer,
 M. Schneider,  N. Sergueev,  S. M. Sharada,  S. Sharma,  W. Skomorowski,
 D. W. Small,  T. Stauch,  C. J. Stein,  T. Stein,  Yu-Chuan Su,
 S. P. Veccham,  Zhen Tao,  A. J. W. Thom,  A. Tkatchenko,  T. Tsuchimochi,
 N. M. Tubman,  L. Vogt,  M. L. Vidal,  O. Vydrov,  M. A. Watson,  J. Wenzel,
 M. de Wergifosse,  T. A. Wesolowski,  A. White,  J. Witte,  A. Yamada,
 Jun Yang,  K. Yao,  S. Yeganeh,  S. R. Yost,  Zhi-Qiang You,  A. Zech,
 Igor Ying Zhang,  Xing Zhang,  Yan Zhao,  Ying Zhu,  B. R. Brooks,
 G. K. L. Chan,  C. J. Cramer,  M. S. Gordon,  W. J. Hehre,  A. Klamt,
 M. W. Schmidt,  C. D. Sherrill,  D. G. Truhlar,  A. Aspuru-Guzik,  R. Baer,
 A. T. Bell,  N. A. Besley,  Jeng-Da Chai,  A. E. DePrince, III,
 R. A. DiStasio Jr.,  A. Dreuw,  B. D. Dunietz,  T. R. Furlani,
 Chao-Ping Hsu,  Yousung Jung,  Jing Kong,  D. S. Lambrecht,  WanZhen Liang,
 C. Ochsenfeld,  V. A. Rassolov,  L. V. Slipchenko,  J. E. Subotnik,
 T. Van Voorhis,  J. M. Herbert,  A. I. Krylov,  P. M. W. Gill,  M. Head-Gordon

 Contributors to earlier versions of Q-Chem not listed above:
 R. D. Adamson,  B. Austin,  J. Baker,  G. J. O. Beran,  K. Brandhorst,
 S. T. Brown,  E. F. C. Byrd,  A. K. Chakraborty,  C.-L. Cheng,
 Siu Hung Chien,  D. M. Chipman,  D. L. Crittenden,  H. Dachsel,
 R. J. Doerksen,  A. D. Dutoi,  L. Fusti-Molnar,  W. A. Goddard III,
 A. Golubeva-Zadorozhnaya,  S. R. Gwaltney,  G. Hawkins,  A. Heyden,
 S. Hirata,  G. Kedziora,  F. J. Keil,  C. Kelley,  Jihan Kim,  R. A. King,
 R. Z. Khaliullin,  P. P. Korambath,  W. Kurlancheek,  A. M. Lee,  M. S. Lee,
 S. V. Levchenko,  Ching Yeh Lin,  D. Liotard,  R. C. Lochan,  I. Lotan,
 P. E. Maslen,  N. Nair,  D. P. O'Neill,  D. Neuhauser,  E. Neuscamman,
 C. M. Oana,  R. Olson,  B. Peters,  R. Peverati,  P. A. Pieniazek,
 Y. M. Rhee,  J. Ritchie,  M. A. Rohrdanz,  E. Rosta,  N. J. Russ,
 H. F. Schaefer III,  N. E. Schultz,  N. Shenvi,  A. C. Simmonett,  A. Sodt,
 D. Stuck,  K. S. Thanthiriwatte,  V. Vanovschi,  Tao Wang,  A. Warshel,
 C. F. Williams,  Q. Wu,  X. Xu,  W. Zhang

 Please cite Q-Chem as follows:
 Y. Shao et al., Mol. Phys. 113, 184-215 (2015)
 DOI: 10.1080/00268976.2014.952696

 Q-Chem 5.3.1 for Intel X86 EM64T Linux

 Parts of Q-Chem use Armadillo 9.800.1 (Horizon Scraper).
 http://arma.sourceforge.net/

 Q-Chem begins on Fri Oct 30 09:11:57 2020

Host:
0

     Scratch files written to /data/scratch/MN_28_clch3clts_BH76_PBEh_3c//
Processing $rem in /home/pierpa/qchem53/config/preferences:
Processing $rem in /home/pierpa/.qchemrc:
The previous job contains 0 fragments, simply inherited here

Checking the input file for inconsistencies... 	...done.

--------------------------------------------------------------
User input:
--------------------------------------------------------------

$Comment
Geometry optimizations for CLB18.
$End

$Rem
SYMMETRY              False
SYM_IGNORE            True
JOBTYPE               Freq
METHOD                PBEh-3c
BASIS                 def2-mSVP
GEOM_OPT_MAX_CYCLES   150
GEOM_OPT_DMAX         10
MAX_SCF_CYCLES        50
SCF_ALGORITHM         DIIS
SCF_PRINT             1
SCF_FINAL_PRINT       1
XC_GRID               000099000590
MEM_TOTAL             20000
MEM_STATIC            4000
BLAS3_DFT             True
New_DFT               True
$End

$Molecule
Read
$End

--------------------------------------------------------------

             Standard Nuclear Orientation (Angstroms)
    I     Atom           X                Y                Z
 ----------------------------------------------------------------
    1      Cl      0.0005376536     0.0200967850     2.3293274384
    2      C       0.0001887122     0.0003494523     0.0001596255
    3      H       0.7620451127    -0.7517745616     0.0063652246
    4      H      -1.0321390440    -0.2835597140     0.0017122478
    5      H       0.2711751485     1.0360790832    -0.0084804681
    6      Cl     -0.0000097436    -0.0194924881    -2.3293037541
 ----------------------------------------------------------------

   11    -959.2662646818      8.21e-10  Convergence criterion met
 Total energy in the final basis set =     -959.2662646818

                    Orbital Energies (a.u.)
 --------------------------------------------------------------

 Alpha MOs
 -- Occupied --
********-102.0218 -10.3401  -9.4868  -9.4867  -7.1720  -7.1719  -7.1680
 -7.1680  -7.1679  -7.1679  -0.6613  -0.6180  -0.5667  -0.3401  -0.3400
 -0.1931  -0.1211  -0.1211  -0.1137  -0.1137  -0.0956

          Ground-State Mulliken Net Atomic Charges

     Atom                 Charge (a.u.)
  ----------------------------------------
      1 Cl                   -0.628004
      2 C                    -0.545471
      3 H                     0.267258
      4 H                     0.267250
      5 H                     0.267254
      6 Cl                   -0.628287
  ----------------------------------------
  Sum of atomic charges =    -1.000000

                    Cartesian Multipole Moments
 -----------------------------------------------------------------
    Charge (ESU x 10^10)
                -4.8032
    Dipole Moment (Debye)
         X      -0.0011      Y      -0.0015      Z       0.0026
       Tot       0.0032
    Quadrupole Moments (Debye-Ang)
        XX     -34.1100     XY       0.0012     YY     -34.1132
        XZ      -0.0028     YZ      -0.2978     ZZ     -69.2425

 Frequency:      -391.60                 203.05                 217.32
 Force Cnst:      1.1960                 0.1052                 0.1211
 Red. Mass:      13.2370                 4.3309                 4.3503
 IR Intens:     1029.172                 12.687                 12.648
 Frequency:       225.12                 924.69                 925.49
 Force Cnst:      1.0440                 0.5100                 0.5109
 Red. Mass:      34.9641                 1.0123                 1.0123
 IR Intens:        0.000                  0.000                  0.002
 Frequency:      1016.38                1436.86                1438.13
 Force Cnst:      0.6353                 1.3423                 1.3458
 Red. Mass:       1.0438                 1.1035                 1.1044
 IR Intens:       81.655                  7.222                  7.180
 Frequency:      3283.57                3491.42                3491.92
 Force Cnst:      6.4022                 8.0731                 8.0766
 Red. Mass:       1.0078                 1.1240                 1.1242
 IR Intens:        0.000                  0.736                  0.731

 STANDARD THERMODYNAMIC QUANTITIES AT   298.15 K  AND     1.00 ATM

   This Molecule has  1 Imaginary Frequencies
   Zero point vibrational energy:       23.808 kcal/mol

   Atom    1 Element Cl Has Mass   34.96885
   Atom    2 Element C  Has Mass   12.00000
   Atom    3 Element H  Has Mass    1.00783
   Atom    4 Element H  Has Mass    1.00783
   Atom    5 Element H  Has Mass    1.00783
   Atom    6 Element Cl Has Mass   34.96885
   Molecular Mass:    84.961190 amu
   Principal axes and moments of inertia in amu*Bohr^2:
                             1           2           3
    Eigenvalues --       12.37599  1361.36565  1361.37118
          X               0.00012     0.79674    -0.60432
          Y               0.00850     0.60430     0.79671
          Z               0.99996    -0.00523    -0.00670
   Rotational Symmetry Number is   1
   The Molecule is an Asymmetric Top
   Translational Enthalpy:        0.889 kcal/mol
   Rotational Enthalpy:           0.889 kcal/mol
   Vibrational Enthalpy:         24.911 kcal/mol
   gas constant (RT):             0.592 kcal/mol
   Translational Entropy:        39.232  cal/mol.K
   Rotational Entropy:           24.642  cal/mol.K
   Vibrational Entropy:           6.375  cal/mol.K

   Total Enthalpy:               27.281 kcal/mol
   Total Entropy:                70.250  cal/mol.K

 Total job time:  37.66s(wall), 292.60s(cpu)
        *  Thank you very much for using Q-Chem.  Have a nice day.  *
