 Q-Chem 5.2 (devel), Q-Chem, Inc., Pleasanton, CA (2019)
 Q-Chem 5.2.0 for Intel X86 EM64T Linux

User input:
--------------------------------------------------------------
$Comment
Geometry optimizations for CLB18.
$End

$Rem
SYMMETRY              False
SYM_IGNORE            True
JOBTYPE               Opt
METHOD                PBEh-3c
BASIS                 def2-mSVP
MAX_SCF_CYCLES        50
SCF_ALGORITHM         DIIS
SCF_PRINT             1
SCF_FINAL_PRINT       1
XC_GRID               000099000590
MEM_TOTAL             20000
MEM_STATIC            4000
BLAS3_DFT             True
New_DFT               True
$End

$Molecule
0 2
C 0.0000000000 0.0000000000 0.0000000000
H 0.5386580820 0.9329831659 0.0000000000
H 0.5386580820 -0.9329831659 0.0000000000
H -1.0773161640 0.0000000000 0.0000000000
$End

--------------------------------------------------------------

   10     -39.7480601885      1.47e-09  Convergence criterion met
 Total energy in the final basis set =      -39.7480601885

             Standard Nuclear Orientation (Angstroms)
    I     Atom           X                Y                Z
 ----------------------------------------------------------------
    1      C       0.0000006780     0.0000002430     0.0000000000
    2      H       0.5385771653     0.9328432626     0.0000000000
    3      H       0.5385765440    -0.9328430659     0.0000000000
    4      H      -1.0771543872    -0.0000004397     0.0000000000
 ----------------------------------------------------------------

    6     -39.7480604125      3.35e-09  Convergence criterion met
 Total energy in the final basis set =      -39.7480604125
 Final energy is   -39.748060412515471
 **  OPTIMIZATION CONVERGED  **

                    Orbital Energies (a.u.)
 --------------------------------------------------------------

 Alpha MOs
 -- Occupied --
-10.4451  -0.7704  -0.4774  -0.4774  -0.2836

 Beta MOs
 -- Occupied --
-10.4290  -0.7173  -0.4654  -0.4654

          Ground-State Mulliken Net Atomic Charges

     Atom                 Charge (a.u.)    Spin (a.u.)
  --------------------------------------------------------
      1 C                    -0.661951       1.180252
      2 H                     0.220651      -0.060084
      3 H                     0.220651      -0.060084
      4 H                     0.220650      -0.060084
  --------------------------------------------------------
  Sum of atomic charges =    -0.000000

                    Cartesian Multipole Moments
 -----------------------------------------------------------------
    Charge (ESU x 10^10)
                 0.0000
    Dipole Moment (Debye)
         X      -0.0000      Y      -0.0000      Z       0.0000
       Tot       0.0000
    Quadrupole Moments (Debye-Ang)
        XX      -6.9981     XY       0.0000     YY      -6.9981
        XZ       0.0000     YZ       0.0000     ZZ      -8.9155

 Total job time:  8.22s(wall), 67.81s(cpu)
        *  Thank you very much for using Q-Chem.  Have a nice day.  *
