 Q-Chem 5.2 (devel), Q-Chem, Inc., Pleasanton, CA (2019)
 Q-Chem 5.2.0 for Intel X86 EM64T Linux

User input:
--------------------------------------------------------------
$Comment
Geometry optimizations for CLB18.
$End

$Rem
SYMMETRY              False
SYM_IGNORE            True
JOBTYPE               Opt
METHOD                PBEh-3c
BASIS                 def2-mSVP
MAX_SCF_CYCLES        50
SCF_ALGORITHM         DIIS
SCF_PRINT             1
SCF_FINAL_PRINT       1
XC_GRID               000099000590
MEM_TOTAL             20000
MEM_STATIC            4000
BLAS3_DFT             True
New_DFT               True
$End

$Molecule
0 1
F 0.0000000000 0.0000000000 -1.0659851570
Cl 0.0000000000 0.0000000000 0.5643463282
$End

--------------------------------------------------------------

   11    -559.2662516795      3.26e-10  Convergence criterion met
 Total energy in the final basis set =     -559.2662516795
    7    -559.2662540926      9.77e-09  Convergence criterion met
 Total energy in the final basis set =     -559.2662540926

             Standard Nuclear Orientation (Angstroms)
    I     Atom           X                Y                Z
 ----------------------------------------------------------------
    1      F       0.0000000000     0.0000000000    -1.0649756941
    2      Cl      0.0000000000     0.0000000000     0.5633368653
 ----------------------------------------------------------------

    7    -559.2662542964      3.80e-09  Convergence criterion met
 Total energy in the final basis set =     -559.2662542964
 Final energy is   -559.26625429641342
 **  OPTIMIZATION CONVERGED  **

                    Orbital Energies (a.u.)
 --------------------------------------------------------------

 Alpha MOs
 -- Occupied --
******** -25.1466  -9.8462  -7.5388  -7.5229  -7.5229  -1.3579  -0.9157
 -0.5881  -0.5552  -0.5552  -0.3812  -0.3812

          Ground-State Mulliken Net Atomic Charges

     Atom                 Charge (a.u.)
  ----------------------------------------
      1 F                    -0.352858
      2 Cl                    0.352858
  ----------------------------------------
  Sum of atomic charges =     0.000000

                    Cartesian Multipole Moments
 -----------------------------------------------------------------
    Charge (ESU x 10^10)
                -0.0000
    Dipole Moment (Debye)
         X      -0.0000      Y      -0.0000      Z       1.0032
       Tot       1.0032
    Quadrupole Moments (Debye-Ang)
        XX     -16.9355     XY      -0.0000     YY     -16.9355
        XZ      -0.0000     YZ       0.0000     ZZ     -15.3785

 Total job time:  6.98s(wall), 46.76s(cpu)
        *  Thank you very much for using Q-Chem.  Have a nice day.  *
