 Q-Chem 5.2 (devel), Q-Chem, Inc., Pleasanton, CA (2019)
 Q-Chem 5.2.0 for Intel X86 EM64T Linux

User input:
--------------------------------------------------------------
$Comment
Geometry optimizations for CLB18.
$End

$Rem
SYMMETRY              False
SYM_IGNORE            True
JOBTYPE               Opt
METHOD                PBEh-3c
BASIS                 def2-mSVP
MAX_SCF_CYCLES        50
SCF_ALGORITHM         DIIS
SCF_PRINT             1
SCF_FINAL_PRINT       1
XC_GRID               000099000590
MEM_TOTAL             20000
MEM_STATIC            4000
BLAS3_DFT             True
New_DFT               True
$End

$Molecule
-1 1
Cl 0.0000000000 0.0000000000 -2.2180722969
C 0.0000000000 0.0000000000 -0.3996659392
H -0.5125319416 0.8877313634 -0.0577142715
H -0.5125319416 -0.8877313634 -0.0577142715
H 1.0250638833 0.0000000000 -0.0577142715
Cl 0.0000000000 0.0000000000 2.7908810507
$End

--------------------------------------------------------------

   11    -959.2801640549      3.63e-09  Convergence criterion met
 Total energy in the final basis set =     -959.2801640549
    8    -959.2805068784      7.05e-09  Convergence criterion met
 Total energy in the final basis set =     -959.2805068784
    8    -959.2809142705      5.33e-09  Convergence criterion met
 Total energy in the final basis set =     -959.2809142705
    8    -959.2810154535      6.87e-09  Convergence criterion met
 Total energy in the final basis set =     -959.2810154535
    8    -959.2810292552      1.62e-09  Convergence criterion met
 Total energy in the final basis set =     -959.2810292552
    8    -959.2810368656      3.73e-09  Convergence criterion met
 Total energy in the final basis set =     -959.2810368656
    7    -959.2810383284      5.00e-09  Convergence criterion met
 Total energy in the final basis set =     -959.2810383284

             Standard Nuclear Orientation (Angstroms)
    I     Atom           X                Y                Z
 ----------------------------------------------------------------
    1      Cl     -0.0000910937    -0.0000636667    -2.2097992070
    2      C       0.0000315072     0.0000232780    -0.3752828347
    3      H      -0.5107674603     0.8848054560    -0.0202122172
    4      H      -0.5107612844    -0.8847262265    -0.0201329609
    5      H       1.0217034811     0.0000342676    -0.0202976718
    6      Cl     -0.0001151498    -0.0000731085     2.6457248917
 ----------------------------------------------------------------

    7    -959.2810389698      3.99e-09  Convergence criterion met
 Total energy in the final basis set =     -959.2810389698
 Final energy is   -959.28103896976268
 **  OPTIMIZATION CONVERGED  **

                    Orbital Energies (a.u.)
 --------------------------------------------------------------

 Alpha MOs
 -- Occupied --
********-101.9301 -10.3272  -9.6034  -9.3945  -7.2905  -7.2830  -7.2830
 -7.0779  -7.0769  -7.0769  -0.7776  -0.5950  -0.5253  -0.3396  -0.3396
 -0.3025  -0.2004  -0.2004  -0.0431  -0.0411  -0.0411

          Ground-State Mulliken Net Atomic Charges

     Atom                 Charge (a.u.)
  ----------------------------------------
      1 Cl                   -0.280888
      2 C                    -0.619811
      3 H                     0.264840
      4 H                     0.264854
      5 H                     0.264827
      6 Cl                   -0.893822
  ----------------------------------------
  Sum of atomic charges =    -1.000000

                    Cartesian Multipole Moments
 -----------------------------------------------------------------
    Charge (ESU x 10^10)
                -4.8032
    Dipole Moment (Debye)
         X       0.0006      Y       0.0004      Z      -7.9546
       Tot       7.9546
    Quadrupole Moments (Debye-Ang)
        XX     -34.2642     XY      -0.0000     YY     -34.2642
        XZ       0.0010     YZ       0.0006     ZZ     -72.2895

 Total job time:  52.12s(wall), 549.57s(cpu)
        *  Thank you very much for using Q-Chem.  Have a nice day.  *
