 Q-Chem 5.2 (devel), Q-Chem, Inc., Pleasanton, CA (2019)
 Q-Chem 5.2.0 for Intel X86 EM64T Linux

User input:
--------------------------------------------------------------
$Comment
Geometry optimizations for CLB18.
$End

$Rem
SYMMETRY              False
SYM_IGNORE            True
JOBTYPE               Opt
METHOD                PBEh-3c
BASIS                 def2-mSVP
MAX_SCF_CYCLES        50
SCF_ALGORITHM         DIIS
SCF_PRINT             1
SCF_FINAL_PRINT       1
XC_GRID               000099000590
MEM_TOTAL             20000
MEM_STATIC            4000
BLAS3_DFT             True
New_DFT               True
$End

$Molecule
0 1
C 0.0000000000 0.0000000000 0.0655663611
F 0.0000000000 0.0000000000 -1.3156284932
H 0.5149162959 -0.8918611861 0.4166873774
H 0.5149162959 0.8918611861 0.4166873774
H -1.0298325917 0.0000000000 0.4166873774
$End

--------------------------------------------------------------

   10    -139.4553410987      4.13e-09  Convergence criterion met
 Total energy in the final basis set =     -139.4553410987
    8    -139.4554640254      3.84e-09  Convergence criterion met
 Total energy in the final basis set =     -139.4554640254
    7    -139.4554762230      9.40e-09  Convergence criterion met
 Total energy in the final basis set =     -139.4554762230

             Standard Nuclear Orientation (Angstroms)
    I     Atom           X                Y                Z
 ----------------------------------------------------------------
    1      C       0.0000005229     0.0000020929     0.0539566859
    2      F      -0.0000021756    -0.0000003529    -1.3218221261
    3      H       0.5132296225    -0.8889404747     0.4226230505
    4      H       0.5132347051     0.8889422491     0.4226229009
    5      H      -1.0264626749    -0.0000035144     0.4226194889
 ----------------------------------------------------------------

    7    -139.4554767423      2.92e-09  Convergence criterion met
 Total energy in the final basis set =     -139.4554767423
 Final energy is   -139.45547674232998
 **  OPTIMIZATION CONVERGED  **

                    Orbital Energies (a.u.)
 --------------------------------------------------------------

 Alpha MOs
 -- Occupied --
-25.0675 -10.5066  -1.3039  -0.7807  -0.5470  -0.5458  -0.5458  -0.4001
 -0.4001

          Ground-State Mulliken Net Atomic Charges

     Atom                 Charge (a.u.)
  ----------------------------------------
      1 C                    -0.212827
      2 F                    -0.358204
      3 H                     0.190344
      4 H                     0.190344
      5 H                     0.190344
  ----------------------------------------
  Sum of atomic charges =     0.000000

                    Cartesian Multipole Moments
 -----------------------------------------------------------------
    Charge (ESU x 10^10)
                -0.0000
    Dipole Moment (Debye)
         X       0.0000      Y       0.0000      Z       1.8528
       Tot       1.8528
    Quadrupole Moments (Debye-Ang)
        XX     -11.6543     XY       0.0000     YY     -11.6543
        XZ       0.0000     YZ      -0.0000     ZZ     -13.9856

 Total job time:  70.00s(wall), 216.16s(cpu)
        *  Thank you very much for using Q-Chem.  Have a nice day.  *
