 Q-Chem 5.2 (devel), Q-Chem, Inc., Pleasanton, CA (2019)
 Q-Chem 5.2.0 for Intel X86 EM64T Linux

User input:
--------------------------------------------------------------
$Comment
Geometry optimizations for CLB18.
$End

$Rem
SYMMETRY              False
SYM_IGNORE            True
JOBTYPE               Opt
METHOD                PBEh-3c
BASIS                 def2-mSVP
MAX_SCF_CYCLES        50
SCF_ALGORITHM         DIIS
SCF_PRINT             1
SCF_FINAL_PRINT       1
XC_GRID               000099000590
MEM_TOTAL             20000
MEM_STATIC            4000
BLAS3_DFT             True
New_DFT               True
$End

$Molecule
0 1
C -0.0464230233 0.6630696287 0.0000000000
O -0.0464230233 -0.7550617950 0.0000000000
H -1.0869564498 0.9759403628 0.0000000000
H 0.8605903144 -1.0570420621 0.0000000000
H 0.4381449719 1.0715944354 0.8895415996
H 0.4381449719 1.0715944354 -0.8895415996
$End

--------------------------------------------------------------

   11    -115.4668688642      3.44e-09  Convergence criterion met
 Total energy in the final basis set =     -115.4668688642
    9    -115.4671443466      1.59e-09  Convergence criterion met
 Total energy in the final basis set =     -115.4671443466
    8    -115.4671781554      9.89e-09  Convergence criterion met
 Total energy in the final basis set =     -115.4671781554

             Standard Nuclear Orientation (Angstroms)
    I     Atom           X                Y                Z
 ----------------------------------------------------------------
    1      C      -0.0446763019     0.6473319628     0.0000052016
    2      O      -0.0479445907    -0.7547735383     0.0000080158
    3      H      -1.0827098747     0.9778096463    -0.0000057964
    4      H       0.8599648352    -1.0609083703    -0.0000133376
    5      H       0.4362200284     1.0803244940     0.8858864777
    6      H       0.4362236654     1.0803108108    -0.8858805611
 ----------------------------------------------------------------

    7    -115.4671790134      7.94e-09  Convergence criterion met
 Total energy in the final basis set =     -115.4671790134
 Final energy is   -115.46717901342022
 **  OPTIMIZATION CONVERGED  **

                    Orbital Energies (a.u.)
 --------------------------------------------------------------

 Alpha MOs
 -- Occupied --
-19.4836 -10.4732  -1.1246  -0.7603  -0.5716  -0.4971  -0.4827  -0.3865
 -0.3254

          Ground-State Mulliken Net Atomic Charges

     Atom                 Charge (a.u.)
  ----------------------------------------
      1 C                    -0.369813
      2 O                    -0.620058
      3 H                     0.216143
      4 H                     0.414514
      5 H                     0.179607
      6 H                     0.179607
  ----------------------------------------
  Sum of atomic charges =     0.000000

                    Cartesian Multipole Moments
 -----------------------------------------------------------------
    Charge (ESU x 10^10)
                -0.0000
    Dipole Moment (Debye)
         X       1.4858      Y       0.8889      Z      -0.0000
       Tot       1.7314
    Quadrupole Moments (Debye-Ang)
        XX     -11.4610     XY      -2.2085     YY     -12.7931
        XZ      -0.0000     YZ       0.0001     ZZ     -13.5449

 Total job time:  29.68s(wall), 301.06s(cpu)
        *  Thank you very much for using Q-Chem.  Have a nice day.  *
