 Q-Chem 5.2 (devel), Q-Chem, Inc., Pleasanton, CA (2019)
 Q-Chem 5.2.0 for Intel X86 EM64T Linux

User input:
--------------------------------------------------------------
$Comment
Geometry optimizations for CLB18.
$End

$Rem
SYMMETRY              False
SYM_IGNORE            True
JOBTYPE               Opt
METHOD                PBEh-3c
BASIS                 def2-mSVP
MAX_SCF_CYCLES        50
SCF_ALGORITHM         DIIS
SCF_PRINT             1
SCF_FINAL_PRINT       1
XC_GRID               000099000590
MEM_TOTAL             20000
MEM_STATIC            4000
BLAS3_DFT             True
New_DFT               True
$End

$Molecule
0 1
O 0.0000000000 0.0000000000 0.4841183005
C 0.0000000000 0.0000000000 -0.6454903617
$End

--------------------------------------------------------------

   10    -113.0659706355      1.62e-09  Convergence criterion met
 Total energy in the final basis set =     -113.0659706355
    8    -113.0658662557      2.07e-09  Convergence criterion met
 Total energy in the final basis set =     -113.0658662557
    8    -113.0660193595      1.67e-09  Convergence criterion met
 Total energy in the final basis set =     -113.0660193595

             Standard Nuclear Orientation (Angstroms)
    I     Atom           X                Y                Z
 ----------------------------------------------------------------
    1      O       0.0000000000     0.0000000000     0.4818966027
    2      C       0.0000000000     0.0000000000    -0.6432686639
 ----------------------------------------------------------------

    6    -113.0660193936      1.50e-09  Convergence criterion met
 Total energy in the final basis set =     -113.0660193936
 Final energy is   -113.06601939363824
 **  OPTIMIZATION CONVERGED  **

                    Orbital Energies (a.u.)
 --------------------------------------------------------------

 Alpha MOs
 -- Occupied --
-19.6052 -10.5665  -1.2804  -0.6483  -0.5350  -0.5350  -0.4323

          Ground-State Mulliken Net Atomic Charges

     Atom                 Charge (a.u.)
  ----------------------------------------
      1 O                    -0.134989
      2 C                     0.134989
  ----------------------------------------
  Sum of atomic charges =     0.000000

                    Cartesian Multipole Moments
 -----------------------------------------------------------------
    Charge (ESU x 10^10)
                 0.0000
    Dipole Moment (Debye)
         X       0.0000      Y       0.0000      Z       0.0398
       Tot       0.0398
    Quadrupole Moments (Debye-Ang)
        XX      -9.8984     XY      -0.0000     YY      -9.8984
        XZ      -0.0000     YZ      -0.0000     ZZ     -11.9864

 Total job time:  7.85s(wall), 54.25s(cpu)
        *  Thank you very much for using Q-Chem.  Have a nice day.  *
