 Q-Chem 5.3 (devel), Q-Chem, Inc., Pleasanton, CA (2020)
 Q-Chem 5.3.1 for Intel X86 EM64T Linux

User input:
--------------------------------------------------------------
$Comment
Geometry optimizations for CLB18.
$End

$Rem
SYMMETRY              False
SYM_IGNORE            True
JOBTYPE               TS
METHOD                PBEh-3c
BASIS                 def2-mSVP
GEOM_OPT_MAX_CYCLES   150
GEOM_OPT_DMAX         10
MAX_SCF_CYCLES        50
SCF_ALGORITHM         DIIS
SCF_PRINT             1
SCF_FINAL_PRINT       1
XC_GRID               000099000590
MEM_TOTAL             20000
MEM_STATIC            4000
BLAS3_DFT             True
New_DFT               True
$End

$Molecule
-1 1
F 1.8236505039 0.0002219999 0.0000770000
C 0.0002360003 -0.0003870000 -0.0002140003
H 0.0001559999 -0.3051860227 1.0250374244
H 0.0003789999 1.0398808452 -0.2489641191
H -0.0000030000 -0.7365564679 -0.7762077163
F -1.8238674665 0.0002430003 0.0000810001
$End

--------------------------------------------------------------

   11    -239.0624090335      1.26e-09  Convergence criterion met
 Total energy in the final basis set =     -239.0624090335
    9    -239.0623562729      9.49e-09  Convergence criterion met
 Total energy in the final basis set =     -239.0623562729
    8    -239.0623133093      9.88e-09  Convergence criterion met
 Total energy in the final basis set =     -239.0623133093
    9    -239.0622723506      4.12e-09  Convergence criterion met
 Total energy in the final basis set =     -239.0622723506
    9    -239.0622371564      3.94e-09  Convergence criterion met
 Total energy in the final basis set =     -239.0622371564
    9    -239.0622104838      4.71e-09  Convergence criterion met
 Total energy in the final basis set =     -239.0622104838
    9    -239.0622152650      6.75e-09  Convergence criterion met
 Total energy in the final basis set =     -239.0622152650
    8    -239.0623029157      6.41e-09  Convergence criterion met
    9    -239.0627360309      2.77e-09  Convergence criterion met
 Total energy in the final basis set =     -239.0627360309
    9    -239.0627435557      2.59e-09  Convergence criterion met
 Total energy in the final basis set =     -239.0627435557
    9    -239.0627456008      1.07e-09  Convergence criterion met
 Total energy in the final basis set =     -239.0627456008
    8    -239.0627464571      8.20e-09  Convergence criterion met
 Total energy in the final basis set =     -239.0627464571
    9    -239.0627475183      1.92e-09  Convergence criterion met
 Total energy in the final basis set =     -239.0627475183
    9    -239.0627479822      1.62e-09  Convergence criterion met
 Total energy in the final basis set =     -239.0627479822
 Final energy is   -239.06274798221398
 **  OPTIMIZATION CONVERGED  **
 Total job time:  135.83s(wall), 972.47s(cpu)
        *  Thank you very much for using Q-Chem.  Have a nice day.  *

User input: 2 of 2

                  Welcome to Q-Chem
     A Quantum Leap Into The Future Of Chemistry

 Q-Chem 5.3 (devel), Q-Chem, Inc., Pleasanton, CA (2020)

 Yihan Shao,  Zhengting Gan,  E. Epifanovsky,  A. T. B. Gilbert,  M. Wormit,
 J. Kussmann,  A. W. Lange,  A. Behn,  Jia Deng,  Xintian Feng,  D. Ghosh,
 M. Goldey,  P. R. Horn,  L. D. Jacobson,  I. Kaliman,  T. Kus,  A. Landau,
 Jie Liu,  E. I. Proynov,  R. M. Richard,  R. P. Steele,  E. J. Sundstrom,
 H. L. Woodcock III,  P. M. Zimmerman,  D. Zuev,  B. Alam,  B. Albrecht,
 A. Aldossary,  E. Alguire,  S. A. Baeppler,  D. Barton,  Z. Benda,
 Y. A. Bernard,  E. J. Berquist,  K. B. Bravaya,  H. Burton,  K. Carter-Fenk,
 D. Casanova,  Chun-Min Chang,  Yunqing Chen,  A. Chien,  K. D. Closser,
 M. P. Coons,  S. Coriani,  S. Dasgupta,  A. L. Dempwolff,  M. Diedenhofen,
 Hainam Do,  R. G. Edgar,  Po-Tung Fang,  S. Faraji,  S. Fatehi,
 Qingguo Feng,  J. Fosso-Tande,  J. Gayvert,  Qinghui Ge,  A. Ghysels,
 G. Gidofalvi,  J. Gomes,  J. Gonthier,  S. Gulania,  A. Gunina,  D. Hait,
 M. W. D. Hanson-Heine,  S. Hammes-Schiffer,  P. H. P. Harbach,
 A. W. Hauser,  M. F. Herbst,  J. E. Herr,  E. G. Hohenstein,  Z. C. Holden,
 S. Houck,  Kerwin Hui,  B. C. Huynh,  M. Ivanov,  T.-C. Jagau,  Hyunjun Ji,
 B. Kaduk,  K. Khistyaev,  Jaehoon Kim,  P. Klunzinger,  K. Koh,
 D. Kosenkov,  L. Koulias,  T. Kowalczyk,  C. M. Krauter,  A. Kunitsa,
 Ka Un Lao,  A. Laurent,  K. V. Lawler,  Joonho Lee,  D. Lefrancois,
 S. Lehtola,  D. S. Levine,  Yi-Pei Li,  You-Sheng Lin,  Fenglai Liu,
 Kuan-Yu Liu,  E. Livshits,  M. Loipersberger,  A. Luenser,  P. Manohar,
 E. Mansoor,  S. F. Manzer,  Shan-Ping Mao,  Yuezhi Mao,  N. Mardirossian,
 A. V. Marenich,  T. Markovich,  L. A. Martinez-Martinez,  S. A. Maurer,
 N. J. Mayhall,  S. C. McKenzie,  J.-M. Mewes,  P. Morgante,  A. F. Morrison,
 J. W. Mullinax,  K. Nanda,  T. S. Nguyen-Beck,  R. Olivares-Amaya,
 K. J. Oosterbaan,  J. A. Parkhill,  S. K. Paul,  F. Pavosevic,  Zheng Pei,
 T. M. Perrine,  F. Plasser,  P. Pokhilko,  S. Prager,  A. Prociuk,
 E. Ramos,  B. Rana,  D. R. Rehn,  F. Rob,  E. Rossomme,  M. Scheurer,
 M. Schneider,  N. Sergueev,  S. M. Sharada,  S. Sharma,  W. Skomorowski,
 D. W. Small,  T. Stauch,  C. J. Stein,  T. Stein,  Yu-Chuan Su,
 S. P. Veccham,  Zhen Tao,  A. J. W. Thom,  A. Tkatchenko,  T. Tsuchimochi,
 N. M. Tubman,  L. Vogt,  M. L. Vidal,  O. Vydrov,  M. A. Watson,  J. Wenzel,
 M. de Wergifosse,  T. A. Wesolowski,  A. White,  J. Witte,  A. Yamada,
 Jun Yang,  K. Yao,  S. Yeganeh,  S. R. Yost,  Zhi-Qiang You,  A. Zech,
 Igor Ying Zhang,  Xing Zhang,  Yan Zhao,  Ying Zhu,  B. R. Brooks,
 G. K. L. Chan,  C. J. Cramer,  M. S. Gordon,  W. J. Hehre,  A. Klamt,
 M. W. Schmidt,  C. D. Sherrill,  D. G. Truhlar,  A. Aspuru-Guzik,  R. Baer,
 A. T. Bell,  N. A. Besley,  Jeng-Da Chai,  A. E. DePrince, III,
 R. A. DiStasio Jr.,  A. Dreuw,  B. D. Dunietz,  T. R. Furlani,
 Chao-Ping Hsu,  Yousung Jung,  Jing Kong,  D. S. Lambrecht,  WanZhen Liang,
 C. Ochsenfeld,  V. A. Rassolov,  L. V. Slipchenko,  J. E. Subotnik,
 T. Van Voorhis,  J. M. Herbert,  A. I. Krylov,  P. M. W. Gill,  M. Head-Gordon

 Contributors to earlier versions of Q-Chem not listed above:
 R. D. Adamson,  B. Austin,  J. Baker,  G. J. O. Beran,  K. Brandhorst,
 S. T. Brown,  E. F. C. Byrd,  A. K. Chakraborty,  C.-L. Cheng,
 Siu Hung Chien,  D. M. Chipman,  D. L. Crittenden,  H. Dachsel,
 R. J. Doerksen,  A. D. Dutoi,  L. Fusti-Molnar,  W. A. Goddard III,
 A. Golubeva-Zadorozhnaya,  S. R. Gwaltney,  G. Hawkins,  A. Heyden,
 S. Hirata,  G. Kedziora,  F. J. Keil,  C. Kelley,  Jihan Kim,  R. A. King,
 R. Z. Khaliullin,  P. P. Korambath,  W. Kurlancheek,  A. M. Lee,  M. S. Lee,
 S. V. Levchenko,  Ching Yeh Lin,  D. Liotard,  R. C. Lochan,  I. Lotan,
 P. E. Maslen,  N. Nair,  D. P. O'Neill,  D. Neuhauser,  E. Neuscamman,
 C. M. Oana,  R. Olson,  B. Peters,  R. Peverati,  P. A. Pieniazek,
 Y. M. Rhee,  J. Ritchie,  M. A. Rohrdanz,  E. Rosta,  N. J. Russ,
 H. F. Schaefer III,  N. E. Schultz,  N. Shenvi,  A. C. Simmonett,  A. Sodt,
 D. Stuck,  K. S. Thanthiriwatte,  V. Vanovschi,  Tao Wang,  A. Warshel,
 C. F. Williams,  Q. Wu,  X. Xu,  W. Zhang

 Please cite Q-Chem as follows:
 Y. Shao et al., Mol. Phys. 113, 184-215 (2015)
 DOI: 10.1080/00268976.2014.952696

 Q-Chem 5.3.1 for Intel X86 EM64T Linux

 Parts of Q-Chem use Armadillo 9.800.1 (Horizon Scraper).
 http://arma.sourceforge.net/

 Q-Chem begins on Fri Oct 30 09:13:42 2020

Host:
0

     Scratch files written to /data/scratch/MN_39_fch3fts_BH76_PBEh_3c//
Processing $rem in /home/pierpa/qchem53/config/preferences:
Processing $rem in /home/pierpa/.qchemrc:
The previous job contains 0 fragments, simply inherited here

Checking the input file for inconsistencies... 	...done.

--------------------------------------------------------------
User input:
--------------------------------------------------------------

$Comment
Geometry optimizations for CLB18.
$End

$Rem
SYMMETRY              False
SYM_IGNORE            True
JOBTYPE               Freq
METHOD                PBEh-3c
BASIS                 def2-mSVP
GEOM_OPT_MAX_CYCLES   150
GEOM_OPT_DMAX         10
MAX_SCF_CYCLES        50
SCF_ALGORITHM         DIIS
SCF_PRINT             1
SCF_FINAL_PRINT       1
XC_GRID               000099000590
MEM_TOTAL             20000
MEM_STATIC            4000
BLAS3_DFT             True
New_DFT               True
$End

$Molecule
Read
$End

--------------------------------------------------------------

             Standard Nuclear Orientation (Angstroms)
    I     Atom           X                Y                Z
 ----------------------------------------------------------------
    1      F       1.7933403565    -0.0008651329    -0.0010959174
    2      C       0.0005788193    -0.0001509507     0.0004248767
    3      H      -0.0010310749    -0.3051997809     1.0314628778
    4      H       0.0020413021     1.0452972364    -0.2500202074
    5      H      -0.0002673522    -0.7386127619    -0.7807269750
    6      F      -1.7941110132    -0.0022522551    -0.0002350659
 ----------------------------------------------------------------

   11    -239.0627479832      1.50e-09  Convergence criterion met
 Total energy in the final basis set =     -239.0627479832

                    Orbital Energies (a.u.)
 --------------------------------------------------------------

 Alpha MOs
 -- Occupied --
-24.6991 -24.6985 -10.2806  -0.8974  -0.8915  -0.5327  -0.2827  -0.2824
 -0.1913  -0.1162  -0.1162  -0.0947  -0.0947  -0.0720

          Ground-State Mulliken Net Atomic Charges

     Atom                 Charge (a.u.)
  ----------------------------------------
      1 F                    -0.670840
      2 C                    -0.195398
      3 H                     0.179189
      4 H                     0.179181
      5 H                     0.179474
      6 F                    -0.671606
  ----------------------------------------
  Sum of atomic charges =    -1.000000

                    Cartesian Multipole Moments
 -----------------------------------------------------------------
    Charge (ESU x 10^10)
                -4.8032
    Dipole Moment (Debye)
         X       0.0131      Y       0.0093      Z       0.0038
       Tot       0.0165
    Quadrupole Moments (Debye-Ang)
        XX     -38.3841     XY      -0.0047     YY     -17.5130
        XZ       0.0032     YZ       0.0009     ZZ     -17.5071

 Frequency:      -511.78                 358.40                 360.41
 Force Cnst:      1.8018                 0.3295                 0.3352
 Red. Mass:      11.6761                 4.3536                 4.3801
 IR Intens:      840.035                 19.779                 19.767
 Frequency:       377.70                1103.03                1104.19
 Force Cnst:      1.5944                 0.7322                 0.7338
 Red. Mass:      18.9690                 1.0214                 1.0215
 IR Intens:        0.003                  0.001                  0.001
 Frequency:      1231.02                1423.25                1425.51
 Force Cnst:      0.9607                 1.3370                 1.3425
 Red. Mass:       1.0760                 1.1202                 1.1213
 IR Intens:        1.412                  2.640                  2.581
 Frequency:      3194.83                3391.53                3392.91
 Force Cnst:      6.0612                 7.6488                 7.6549
 Red. Mass:       1.0079                 1.1286                 1.1286
 IR Intens:        0.002                 36.742                 36.646

 STANDARD THERMODYNAMIC QUANTITIES AT   298.15 K  AND     1.00 ATM

   This Molecule has  1 Imaginary Frequencies
   Zero point vibrational energy:       24.821 kcal/mol

   Atom    1 Element F  Has Mass   18.99840
   Atom    2 Element C  Has Mass   12.00000
   Atom    3 Element H  Has Mass    1.00783
   Atom    4 Element H  Has Mass    1.00783
   Atom    5 Element H  Has Mass    1.00783
   Atom    6 Element F  Has Mass   18.99840
   Molecular Mass:    53.020290 amu
   Principal axes and moments of inertia in amu*Bohr^2:
                             1           2           3
    Eigenvalues --       12.47904   442.80411   442.82111
          X               1.00000     0.00021    -0.00044
          Y               0.00041     0.11188     0.99372
          Z              -0.00025     0.99372    -0.11188
   Rotational Symmetry Number is   1
   The Molecule is an Asymmetric Top
   Translational Enthalpy:        0.889 kcal/mol
   Rotational Enthalpy:           0.889 kcal/mol
   Vibrational Enthalpy:         25.519 kcal/mol
   gas constant (RT):             0.592 kcal/mol
   Translational Entropy:        37.827  cal/mol.K
   Rotational Entropy:           22.419  cal/mol.K
   Vibrational Entropy:           3.489  cal/mol.K

   Total Enthalpy:               27.888 kcal/mol
   Total Entropy:                63.735  cal/mol.K

 Total job time:  35.77s(wall), 277.86s(cpu)
        *  Thank you very much for using Q-Chem.  Have a nice day.  *
