 Q-Chem 5.2 (devel), Q-Chem, Inc., Pleasanton, CA (2019)
 Q-Chem 5.2.0 for Intel X86 EM64T Linux

User input:
--------------------------------------------------------------
$Comment
Geometry optimizations for CLB18.
$End

$Rem
SYMMETRY              False
SYM_IGNORE            True
JOBTYPE               Opt
METHOD                PBEh-3c
BASIS                 def2-mSVP
MAX_SCF_CYCLES        50
SCF_ALGORITHM         DIIS
SCF_PRINT             1
SCF_FINAL_PRINT       1
XC_GRID               000099000590
MEM_TOTAL             20000
MEM_STATIC            4000
BLAS3_DFT             True
New_DFT               True
$End

$Molecule
-1 1
Cl 0.0000000000 0.0000000000 2.1229641588
C 0.0000000000 0.0000000000 0.2724658492
H -0.5131616625 -0.8888220720 -0.0553144529
H -0.5131616625 0.8888220720 -0.0553144529
H 1.0263233250 0.0000000000 -0.0553144529
F 0.0000000000 0.0000000000 -2.2294866494
$End

--------------------------------------------------------------

   12    -599.1512533230      2.72e-09  Convergence criterion met
 Total energy in the final basis set =     -599.1512533230
    9    -599.1516277287      7.85e-09  Convergence criterion met
 Total energy in the final basis set =     -599.1516277287
    9    -599.1518809783      7.96e-09  Convergence criterion met
 Total energy in the final basis set =     -599.1518809783
    9    -599.1520682402      8.06e-09  Convergence criterion met
 Total energy in the final basis set =     -599.1520682402
    9    -599.1521624771      5.13e-09  Convergence criterion met
 Total energy in the final basis set =     -599.1521624771
    9    -599.1522216014      5.93e-09  Convergence criterion met
 Total energy in the final basis set =     -599.1522216014
    9    -599.1522695593      5.90e-09  Convergence criterion met
 Total energy in the final basis set =     -599.1522695593
    9    -599.1523071961      5.29e-09  Convergence criterion met
   10    -599.2038906342      3.48e-09  Convergence criterion met
 Total energy in the final basis set =     -599.2038906342
   10    -599.2095638261      3.33e-09  Convergence criterion met
 Total energy in the final basis set =     -599.2095638261
   10    -599.2120532035      1.63e-09  Convergence criterion met
 Total energy in the final basis set =     -599.2120532035
    9    -599.2128536811      1.54e-09  Convergence criterion met
 Total energy in the final basis set =     -599.2128536811
    9    -599.2135561389      3.74e-09  Convergence criterion met
 Total energy in the final basis set =     -599.2135561389
    9    -599.2137940106      2.53e-09  Convergence criterion met
 Total energy in the final basis set =     -599.2137940106

             Standard Nuclear Orientation (Angstroms)
    I     Atom           X                Y                Z
 ----------------------------------------------------------------
    1      Cl     -0.0001544661    -0.0002046131     2.6101929581
    2      C       0.0000330628     0.0000421783    -0.4646363233
    3      H      -0.5099527287    -0.8832970967    -0.0909103033
    4      H      -0.5099652928     0.8834530075    -0.0910838367
    5      H       1.0201017160     0.0000670844    -0.0911171639
    6      F      -0.0000622913    -0.0000605604    -1.8724453310
 ----------------------------------------------------------------

    8    -599.2138257985      6.82e-09  Convergence criterion met
 Total energy in the final basis set =     -599.2138257985
 Final energy is   -599.21382579851229
 **  OPTIMIZATION CONVERGED  **

                    Orbital Energies (a.u.)
 --------------------------------------------------------------

 Alpha MOs
 -- Occupied --
******** -24.9099 -10.3308  -9.3825  -7.0657  -7.0651  -7.0651  -1.1388
 -0.6090  -0.5152  -0.3793  -0.3771  -0.3771  -0.2393  -0.2393  -0.0334
 -0.0308  -0.0308

          Ground-State Mulliken Net Atomic Charges

     Atom                 Charge (a.u.)
  ----------------------------------------
      1 Cl                   -0.927279
      2 C                    -0.251010
      3 H                     0.198220
      4 H                     0.198185
      5 H                     0.198179
      6 F                    -0.416295
  ----------------------------------------
  Sum of atomic charges =    -1.000000

                    Cartesian Multipole Moments
 -----------------------------------------------------------------
    Charge (ESU x 10^10)
                -4.8032
    Dipole Moment (Debye)
         X       0.0008      Y       0.0010      Z      -9.0237
       Tot       9.0237
    Quadrupole Moments (Debye-Ang)
        XX     -26.3262     XY       0.0000     YY     -26.3262
        XZ       0.0016     YZ       0.0022     ZZ     -62.2963

 Total job time:  178.76s(wall), 1900.68s(cpu)
        *  Thank you very much for using Q-Chem.  Have a nice day.  *
