 Q-Chem 5.2 (devel), Q-Chem, Inc., Pleasanton, CA (2019)
 Q-Chem 5.2.0 for Intel X86 EM64T Linux

User input:
--------------------------------------------------------------
$Comment
Geometry optimizations for CLB18.
$End

$Rem
SYMMETRY              False
SYM_IGNORE            True
JOBTYPE               Opt
METHOD                PBEh-3c
BASIS                 def2-mSVP
MAX_SCF_CYCLES        50
SCF_ALGORITHM         DIIS
SCF_PRINT             1
SCF_FINAL_PRINT       1
XC_GRID               000099000590
MEM_TOTAL             20000
MEM_STATIC            4000
BLAS3_DFT             True
New_DFT               True
$End

$Molecule
-1 1
F 0.0000000000 0.0000000000 -1.8899361232
C 0.0000000000 0.0000000000 -0.4815627273
H -0.5123599590 0.8874334808 -0.1278024701
H -0.5123599590 -0.8874334808 -0.1278024701
H 1.0247199181 0.0000000000 -0.1278024701
Cl 0.0000000000 0.0000000000 2.7549062610
$End

--------------------------------------------------------------

   11    -599.2130043266      1.71e-09  Convergence criterion met
 Total energy in the final basis set =     -599.2130043266
    8    -599.2133220996      6.65e-09  Convergence criterion met
 Total energy in the final basis set =     -599.2133220996
    8    -599.2137279490      8.74e-09  Convergence criterion met
 Total energy in the final basis set =     -599.2137279490
    8    -599.2138055161      4.44e-09  Convergence criterion met
 Total energy in the final basis set =     -599.2138055161
    8    -599.2138171147      2.92e-09  Convergence criterion met
 Total energy in the final basis set =     -599.2138171147

             Standard Nuclear Orientation (Angstroms)
    I     Atom           X                Y                Z
 ----------------------------------------------------------------
    1      F      -0.0000485406    -0.0000357811    -1.8724209993
    2      C       0.0000124258     0.0000102555    -0.4646437759
    3      H      -0.5099804970     0.8833835296    -0.0912674714
    4      H      -0.5099754052    -0.8833364674    -0.0912062777
    5      H       1.0200504500     0.0000191220    -0.0913166107
    6      Cl     -0.0000584328    -0.0000406587     2.6108551352
 ----------------------------------------------------------------

    8    -599.2138258505      5.71e-09  Convergence criterion met
 Total energy in the final basis set =     -599.2138258505
 Final energy is   -599.21382585046103
 **  OPTIMIZATION CONVERGED  **

                    Orbital Energies (a.u.)
 --------------------------------------------------------------

 Alpha MOs
 -- Occupied --
******** -24.9099 -10.3308  -9.3825  -7.0657  -7.0651  -7.0651  -1.1389
 -0.6091  -0.5152  -0.3794  -0.3771  -0.3771  -0.2394  -0.2393  -0.0333
 -0.0308  -0.0308

          Ground-State Mulliken Net Atomic Charges

     Atom                 Charge (a.u.)
  ----------------------------------------
      1 F                    -0.416311
      2 C                    -0.250938
      3 H                     0.198197
      4 H                     0.198207
      5 H                     0.198190
      6 Cl                   -0.927344
  ----------------------------------------
  Sum of atomic charges =    -1.000000

                    Cartesian Multipole Moments
 -----------------------------------------------------------------
    Charge (ESU x 10^10)
                -4.8032
    Dipole Moment (Debye)
         X       0.0003      Y       0.0002      Z      -9.0278
       Tot       9.0278
    Quadrupole Moments (Debye-Ang)
        XX     -26.3256     XY      -0.0000     YY     -26.3255
        XZ       0.0005     YZ       0.0004     ZZ     -62.3128

 Total job time:  38.11s(wall), 394.55s(cpu)
        *  Thank you very much for using Q-Chem.  Have a nice day.  *
