 Q-Chem 5.2 (devel), Q-Chem, Inc., Pleasanton, CA (2019)
 Q-Chem 5.2.0 for Intel X86 EM64T Linux

User input:
--------------------------------------------------------------
$Comment
Geometry optimizations for CLB18.
$End

$Rem
SYMMETRY              False
SYM_IGNORE            True
JOBTYPE               Opt
METHOD                PBEh-3c
BASIS                 def2-mSVP
MAX_SCF_CYCLES        50
SCF_ALGORITHM         DIIS
SCF_PRINT             1
SCF_FINAL_PRINT       1
XC_GRID               000099000590
MEM_TOTAL             20000
MEM_STATIC            4000
BLAS3_DFT             True
New_DFT               True
$End

$Molecule
-1 1
F 0.0000000000 0.0000000000 -1.7913712232
C 0.0000000000 0.0000000000 -0.3656170018
H -0.5117910935 0.8864481769 -0.0175866754
H -0.5117910935 -0.8864481769 -0.0175866754
H 1.0235821871 0.0000000000 -0.0175866754
F 0.0000000000 0.0000000000 2.2097482512
$End

--------------------------------------------------------------

   11    -239.0803407421      7.30e-09  Convergence criterion met
 Total energy in the final basis set =     -239.0803407421
    8    -239.0805379908      7.96e-09  Convergence criterion met
 Total energy in the final basis set =     -239.0805379908
    9    -239.0807856947      1.98e-09  Convergence criterion met
 Total energy in the final basis set =     -239.0807856947
    9    -239.0807998261      8.57e-10  Convergence criterion met
 Total energy in the final basis set =     -239.0807998261
    9    -239.0808074646      1.70e-09  Convergence criterion met
 Total energy in the final basis set =     -239.0808074646
    9    -239.0808097009      7.58e-10  Convergence criterion met
 Total energy in the final basis set =     -239.0808097009

             Standard Nuclear Orientation (Angstroms)
    I     Atom           X                Y                Z
 ----------------------------------------------------------------
    1      F      -0.0000152936    -0.0000138179    -1.7858779969
    2      C       0.0000057569     0.0000056680    -0.3552456985
    3      H      -0.5107881540     0.8847378689     0.0045577125
    4      H      -0.5107835856    -0.8847148511     0.0045869034
    5      H       1.0216083874     0.0000075527     0.0045397522
    6      F      -0.0000271109    -0.0000224206     2.1274393272
 ----------------------------------------------------------------

    7    -239.0808103258      7.66e-09  Convergence criterion met
 Total energy in the final basis set =     -239.0808103258
 Final energy is   -239.08081032580225
 **  OPTIMIZATION CONVERGED  **

                    Orbital Energies (a.u.)
 --------------------------------------------------------------

 Alpha MOs
 -- Occupied --
-24.8720 -24.5673 -10.2948  -1.0969  -0.7556  -0.5696  -0.3391  -0.3391
 -0.3374  -0.2069  -0.2069   0.0066   0.0075   0.0075

          Ground-State Mulliken Net Atomic Charges

     Atom                 Charge (a.u.)
  ----------------------------------------
      1 F                    -0.445170
      2 C                    -0.264224
      3 H                     0.192438
      4 H                     0.192445
      5 H                     0.192434
      6 F                    -0.867923
  ----------------------------------------
  Sum of atomic charges =    -1.000000

                    Cartesian Multipole Moments
 -----------------------------------------------------------------
    Charge (ESU x 10^10)
                -4.8032
    Dipole Moment (Debye)
         X       0.0001      Y       0.0001      Z      -6.0591
       Tot       6.0591
    Quadrupole Moments (Debye-Ang)
        XX     -17.6287     XY      -0.0000     YY     -17.6287
        XZ       0.0002     YZ       0.0002     ZZ     -42.7903

 Total job time:  43.77s(wall), 454.99s(cpu)
        *  Thank you very much for using Q-Chem.  Have a nice day.  *
