 Q-Chem 5.2 (devel), Q-Chem, Inc., Pleasanton, CA (2019)
 Q-Chem 5.2.0 for Intel X86 EM64T Linux

User input:
--------------------------------------------------------------
$Comment
Geometry optimizations for CLB18.
$End

$Rem
SYMMETRY              False
SYM_IGNORE            True
JOBTYPE               Opt
METHOD                PBEh-3c
BASIS                 def2-mSVP
MAX_SCF_CYCLES        50
SCF_ALGORITHM         DIIS
SCF_PRINT             1
SCF_FINAL_PRINT       1
XC_GRID               000099000590
MEM_TOTAL             20000
MEM_STATIC            4000
BLAS3_DFT             True
New_DFT               True
$End

$Molecule
0 1
F 0.0000000000 0.0000000000 0.6976037335
F 0.0000000000 0.0000000000 -0.6976037335
$End

--------------------------------------------------------------

    9    -199.1238555220      4.11e-10  Convergence criterion met
 Total energy in the final basis set =     -199.1238555220
    7    -199.1239548168      1.29e-09  Convergence criterion met
 Total energy in the final basis set =     -199.1239548168

             Standard Nuclear Orientation (Angstroms)
    I     Atom           X                Y                Z
 ----------------------------------------------------------------
    1      F       0.0000000000     0.0000000000     0.6921712533
    2      F       0.0000000000     0.0000000000    -0.6921712533
 ----------------------------------------------------------------

    6    -199.1239551867      2.76e-09  Convergence criterion met
 Total energy in the final basis set =     -199.1239551867
 Final energy is   -199.12395518669078
 **  OPTIMIZATION CONVERGED  **

                    Orbital Energies (a.u.)
 --------------------------------------------------------------

 Alpha MOs
 -- Occupied --
-25.2036 -25.2032  -1.4855  -1.2109  -0.6559  -0.6219  -0.6219  -0.4767
 -0.4767

          Ground-State Mulliken Net Atomic Charges

     Atom                 Charge (a.u.)
  ----------------------------------------
      1 F                    -0.000000
      2 F                     0.000000
  ----------------------------------------
  Sum of atomic charges =     0.000000

                    Cartesian Multipole Moments
 -----------------------------------------------------------------
    Charge (ESU x 10^10)
                 0.0000
    Dipole Moment (Debye)
         X      -0.0000      Y       0.0000      Z      -0.0000
       Tot       0.0000
    Quadrupole Moments (Debye-Ang)
        XX      -9.3059     XY       0.0000     YY      -9.3059
        XZ      -0.0000     YZ       0.0000     ZZ      -8.3128

 Total job time:  8.02s(wall), 51.10s(cpu)
        *  Thank you very much for using Q-Chem.  Have a nice day.  *
