 Q-Chem 5.2 (devel), Q-Chem, Inc., Pleasanton, CA (2019)
 Q-Chem 5.2.0 for Intel X86 EM64T Linux

User input:
--------------------------------------------------------------
$Comment
Geometry optimizations for CLB18.
$End

$Rem
SYMMETRY              False
SYM_IGNORE            True
JOBTYPE               Opt
METHOD                PBEh-3c
BASIS                 def2-mSVP
MAX_SCF_CYCLES        50
SCF_ALGORITHM         DIIS
SCF_PRINT             1
SCF_FINAL_PRINT       1
XC_GRID               000099000590
MEM_TOTAL             20000
MEM_STATIC            4000
BLAS3_DFT             True
New_DFT               True
$End

$Molecule
0 1
C 0.0000000000 0.0000000000 -0.5003650992
N 0.0000000000 0.0000000000 0.6526395459
H 0.0000000000 0.0000000000 -1.5662904592
$End

--------------------------------------------------------------

   10     -93.2064444440      7.53e-09  Convergence criterion met
 Total energy in the final basis set =      -93.2064444440
    8     -93.2061215316      8.23e-09  Convergence criterion met
 Total energy in the final basis set =      -93.2061215316
    8     -93.2065507521      6.30e-09  Convergence criterion met
 Total energy in the final basis set =      -93.2065507521
    7     -93.2065519220      5.52e-09  Convergence criterion met
 Total energy in the final basis set =      -93.2065519220

             Standard Nuclear Orientation (Angstroms)
    I     Atom           X                Y                Z
 ----------------------------------------------------------------
    1      C       0.0000000000     0.0000000000    -0.4980156428
    2      N       0.0000000000     0.0000000000     0.6484026519
    3      H       0.0000000000     0.0000000000    -1.5644030216
 ----------------------------------------------------------------

    7     -93.2065521517      2.77e-09  Convergence criterion met
 Total energy in the final basis set =      -93.2065521517
 Final energy is   -93.206552151722491
 **  OPTIMIZATION CONVERGED  **

                    Orbital Energies (a.u.)
 --------------------------------------------------------------

 Alpha MOs
 -- Occupied --
-14.6681 -10.5026  -1.0279  -0.6784  -0.4477  -0.4176  -0.4176

          Ground-State Mulliken Net Atomic Charges

     Atom                 Charge (a.u.)
  ----------------------------------------
      1 C                    -0.140396
      2 N                    -0.160171
      3 H                     0.300567
  ----------------------------------------
  Sum of atomic charges =     0.000000

                    Cartesian Multipole Moments
 -----------------------------------------------------------------
    Charge (ESU x 10^10)
                -0.0000
    Dipole Moment (Debye)
         X       0.0000      Y       0.0000      Z      -2.9941
       Tot       2.9941
    Quadrupole Moments (Debye-Ang)
        XX     -11.5570     XY      -0.0000     YY     -11.5570
        XZ       0.0000     YZ       0.0000     ZZ      -9.4329

 Total job time:  14.46s(wall), 118.18s(cpu)
        *  Thank you very much for using Q-Chem.  Have a nice day.  *
