 Q-Chem 5.2 (devel), Q-Chem, Inc., Pleasanton, CA (2019)
 Q-Chem 5.2.0 for Intel X86 EM64T Linux

User input:
--------------------------------------------------------------
$Comment
Geometry optimizations for CLB18.
$End

$Rem
SYMMETRY              False
SYM_IGNORE            True
JOBTYPE               Opt
METHOD                PBEh-3c
BASIS                 def2-mSVP
MAX_SCF_CYCLES        50
SCF_ALGORITHM         DIIS
SCF_PRINT             1
SCF_FINAL_PRINT       1
XC_GRID               000099000590
MEM_TOTAL             20000
MEM_STATIC            4000
BLAS3_DFT             True
New_DFT               True
$End

$Molecule
0 1
H 0.0000000000 0.0000000000 0.3709384078
H 0.0000000000 0.0000000000 -0.3709384078
$End

--------------------------------------------------------------

    4      -1.1679949045      6.92e-10  Convergence criterion met
 Total energy in the final basis set =       -1.1679949045

             Standard Nuclear Orientation (Angstroms)
    I     Atom           X                Y                Z
 ----------------------------------------------------------------
    1      H       0.0000000000     0.0000000000     0.3712076374
    2      H       0.0000000000     0.0000000000    -0.3712076374
 ----------------------------------------------------------------

    3      -1.1679952379      6.67e-12  Convergence criterion met
 Total energy in the final basis set =       -1.1679952379
 Final energy is   -1.1679952378835752
 **  OPTIMIZATION CONVERGED  **

                    Orbital Energies (a.u.)
 --------------------------------------------------------------

 Alpha MOs
 -- Occupied --
 -0.4827

          Ground-State Mulliken Net Atomic Charges

     Atom                 Charge (a.u.)
  ----------------------------------------
      1 H                     0.000000
      2 H                    -0.000000
  ----------------------------------------
  Sum of atomic charges =     0.000000

                    Cartesian Multipole Moments
 -----------------------------------------------------------------
    Charge (ESU x 10^10)
                 0.0000
    Dipole Moment (Debye)
         X       0.0000      Y       0.0000      Z       0.0000
       Tot       0.0000
    Quadrupole Moments (Debye-Ang)
        XX      -1.9578     XY       0.0000     YY      -1.9578
        XZ       0.0000     YZ       0.0000     ZZ      -1.5262

 Total job time:  2.40s(wall), 7.16s(cpu)
        *  Thank you very much for using Q-Chem.  Have a nice day.  *
