 Q-Chem 5.2 (devel), Q-Chem, Inc., Pleasanton, CA (2019)
 Q-Chem 5.2.0 for Intel X86 EM64T Linux

User input:
--------------------------------------------------------------
$Comment
Geometry optimizations for CLB18.
$End

$Rem
SYMMETRY              False
SYM_IGNORE            True
JOBTYPE               Opt
METHOD                PBEh-3c
BASIS                 def2-mSVP
MAX_SCF_CYCLES        50
SCF_ALGORITHM         DIIS
SCF_PRINT             1
SCF_FINAL_PRINT       1
XC_GRID               000099000590
MEM_TOTAL             20000
MEM_STATIC            4000
BLAS3_DFT             True
New_DFT               True
$End

$Molecule
0 1
Cl 0.0000000000 0.0000000000 0.0708028525
H 0.0000000000 0.0000000000 -1.2036453166
$End

--------------------------------------------------------------

    9    -460.2964852823      1.79e-09  Convergence criterion met
 Total energy in the final basis set =     -460.2964852823

             Standard Nuclear Orientation (Angstroms)
    I     Atom           X                Y                Z
 ----------------------------------------------------------------
    1      Cl      0.0000000000     0.0000000000     0.0712140571
    2      H       0.0000000000     0.0000000000    -1.2040565212
 ----------------------------------------------------------------

    6    -460.2964860757      6.12e-09  Convergence criterion met
 Total energy in the final basis set =     -460.2964860757
 Final energy is   -460.29648607566622
 **  OPTIMIZATION CONVERGED  **

                    Orbital Energies (a.u.)
 --------------------------------------------------------------

 Alpha MOs
 -- Occupied --
********  -9.7675  -7.4556  -7.4462  -7.4462  -0.9284  -0.5231  -0.3755
 -0.3755

          Ground-State Mulliken Net Atomic Charges

     Atom                 Charge (a.u.)
  ----------------------------------------
      1 Cl                   -0.289052
      2 H                     0.289052
  ----------------------------------------
  Sum of atomic charges =     0.000000

                    Cartesian Multipole Moments
 -----------------------------------------------------------------
    Charge (ESU x 10^10)
                -0.0000
    Dipole Moment (Debye)
         X       0.0000      Y      -0.0000      Z      -1.5080
       Tot       1.5080
    Quadrupole Moments (Debye-Ang)
        XX     -13.5252     XY       0.0000     YY     -13.5252
        XZ      -0.0000     YZ       0.0000     ZZ     -10.0529

 Total job time:  5.00s(wall), 31.09s(cpu)
        *  Thank you very much for using Q-Chem.  Have a nice day.  *
