 Q-Chem 5.2 (devel), Q-Chem, Inc., Pleasanton, CA (2019)
 Q-Chem 5.2.0 for Intel X86 EM64T Linux

User input:
--------------------------------------------------------------
$Comment
Geometry optimizations for CLB18.
$End

$Rem
SYMMETRY              False
SYM_IGNORE            True
JOBTYPE               Opt
METHOD                PBEh-3c
BASIS                 def2-mSVP
MAX_SCF_CYCLES        50
SCF_ALGORITHM         DIIS
SCF_PRINT             1
SCF_FINAL_PRINT       1
XC_GRID               000099000590
MEM_TOTAL             20000
MEM_STATIC            4000
BLAS3_DFT             True
New_DFT               True
$End

$Molecule
0 1
S 0.0000000000 0.0000000000 0.1025190886
H 0.0000000000 0.9662511281 -0.8201558837
H 0.0000000000 -0.9662511281 -0.8201558837
$End

--------------------------------------------------------------

    9    -398.9315460361      5.68e-09  Convergence criterion met
 Total energy in the final basis set =     -398.9315460361

             Standard Nuclear Orientation (Angstroms)
    I     Atom           X                Y                Z
 ----------------------------------------------------------------
    1      S       0.0000000000    -0.0000009009     0.1015118362
    2      H       0.0000000000     0.9681945833    -0.8196526876
    3      H       0.0000000000    -0.9681936824    -0.8196518274
 ----------------------------------------------------------------

    6    -398.9315469130      3.90e-09  Convergence criterion met
 Total energy in the final basis set =     -398.9315469130
 Final energy is   -398.93154691298162
 **  OPTIMIZATION CONVERGED  **

                    Orbital Energies (a.u.)
 --------------------------------------------------------------

 Alpha MOs
 -- Occupied --
-89.5814  -8.2252  -6.1161  -6.1133  -6.1066  -0.8234  -0.5009  -0.4122
 -0.3032

          Ground-State Mulliken Net Atomic Charges

     Atom                 Charge (a.u.)
  ----------------------------------------
      1 S                    -0.377436
      2 H                     0.188718
      3 H                     0.188718
  ----------------------------------------
  Sum of atomic charges =     0.000000

                    Cartesian Multipole Moments
 -----------------------------------------------------------------
    Charge (ESU x 10^10)
                -0.0000
    Dipole Moment (Debye)
         X      -0.0000      Y       0.0000      Z      -1.4935
       Tot       1.4935
    Quadrupole Moments (Debye-Ang)
        XX     -16.1703     XY       0.0000     YY     -11.9896
        XZ       0.0000     YZ      -0.0000     ZZ     -13.2749

 Total job time:  5.12s(wall), 33.12s(cpu)
        *  Thank you very much for using Q-Chem.  Have a nice day.  *
