 Q-Chem 5.2 (devel), Q-Chem, Inc., Pleasanton, CA (2019)
 Q-Chem 5.2.0 for Intel X86 EM64T Linux

User input:
--------------------------------------------------------------
$Comment
Geometry optimizations for CLB18.
$End

$Rem
SYMMETRY              False
SYM_IGNORE            True
JOBTYPE               Opt
METHOD                PBEh-3c
BASIS                 def2-mSVP
MAX_SCF_CYCLES        50
SCF_ALGORITHM         DIIS
SCF_PRINT             1
SCF_FINAL_PRINT       1
XC_GRID               000099000590
MEM_TOTAL             20000
MEM_STATIC            4000
BLAS3_DFT             True
New_DFT               True
$End

$Molecule
0 1
O 0.0000000000 0.0000000000 0.1171450175
H 0.0000000000 0.7567075361 -0.4685821867
H 0.0000000000 -0.7567075361 -0.4685821867
$End

--------------------------------------------------------------

   10     -76.2579471709      7.57e-10  Convergence criterion met
 Total energy in the final basis set =      -76.2579471709
    7     -76.2579536919      1.75e-09  Convergence criterion met
 Total energy in the final basis set =      -76.2579536919

             Standard Nuclear Orientation (Angstroms)
    I     Atom           X                Y                Z
 ----------------------------------------------------------------
    1      O       0.0000000000    -0.0000000935     0.1152666159
    2      H       0.0000000000     0.7594628535    -0.4676430221
    3      H       0.0000000000    -0.7594627600    -0.4676429498
 ----------------------------------------------------------------

    6     -76.2579539850      2.41e-09  Convergence criterion met
 Total energy in the final basis set =      -76.2579539850
 Final energy is   -76.257953984991843
 **  OPTIMIZATION CONVERGED  **

                    Orbital Energies (a.u.)
 --------------------------------------------------------------

 Alpha MOs
 -- Occupied --
-19.4734  -1.1035  -0.5841  -0.4337  -0.3566

          Ground-State Mulliken Net Atomic Charges

     Atom                 Charge (a.u.)
  ----------------------------------------
      1 O                    -0.818065
      2 H                     0.409032
      3 H                     0.409032
  ----------------------------------------
  Sum of atomic charges =     0.000000

                    Cartesian Multipole Moments
 -----------------------------------------------------------------
    Charge (ESU x 10^10)
                -0.0000
    Dipole Moment (Debye)
         X      -0.0000      Y       0.0000      Z      -2.1484
       Tot       2.1484
    Quadrupole Moments (Debye-Ang)
        XX      -7.1409     XY       0.0000     YY      -4.0512
        XZ       0.0000     YZ      -0.0000     ZZ      -5.8790

 Total job time:  6.48s(wall), 40.79s(cpu)
        *  Thank you very much for using Q-Chem.  Have a nice day.  *
