 Q-Chem 5.2 (devel), Q-Chem, Inc., Pleasanton, CA (2019)
 Q-Chem 5.2.0 for Intel X86 EM64T Linux

User input:
--------------------------------------------------------------
$Comment
Geometry optimizations for CLB18.
$End

$Rem
SYMMETRY              False
SYM_IGNORE            True
JOBTYPE               Opt
METHOD                PBEh-3c
BASIS                 def2-mSVP
MAX_SCF_CYCLES        50
SCF_ALGORITHM         DIIS
SCF_PRINT             1
SCF_FINAL_PRINT       1
XC_GRID               000099000590
MEM_TOTAL             20000
MEM_STATIC            4000
BLAS3_DFT             True
New_DFT               True
$End

$Molecule
0 1
F 0.0000000000 0.0000000000 0.0915381323
H 0.0000000000 0.0000000000 -0.8238442489
$End

--------------------------------------------------------------

    9    -100.2415819881      4.38e-09  Convergence criterion met
 Total energy in the final basis set =     -100.2415819881
    7    -100.2418022057      9.25e-09  Convergence criterion met
 Total energy in the final basis set =     -100.2418022057

             Standard Nuclear Orientation (Angstroms)
    I     Atom           X                Y                Z
 ----------------------------------------------------------------
    1      F       0.0000000000     0.0000000000     0.0989100219
    2      H       0.0000000000     0.0000000000    -0.8312161385
 ----------------------------------------------------------------

    7    -100.2418201662      2.03e-09  Convergence criterion met
 Total energy in the final basis set =     -100.2418201662
 Final energy is   -100.24182016620820
 **  OPTIMIZATION CONVERGED  **

                    Orbital Energies (a.u.)
 --------------------------------------------------------------

 Alpha MOs
 -- Occupied --
-25.0643  -1.2971  -0.5955  -0.4623  -0.4623

          Ground-State Mulliken Net Atomic Charges

     Atom                 Charge (a.u.)
  ----------------------------------------
      1 F                    -0.511343
      2 H                     0.511343
  ----------------------------------------
  Sum of atomic charges =     0.000000

                    Cartesian Multipole Moments
 -----------------------------------------------------------------
    Charge (ESU x 10^10)
                -0.0000
    Dipole Moment (Debye)
         X      -0.0000      Y      -0.0000      Z      -1.8553
       Tot       1.8553
    Quadrupole Moments (Debye-Ang)
        XX      -5.4369     XY      -0.0000     YY      -5.4369
        XZ      -0.0000     YZ      -0.0000     ZZ      -3.2891

 Total job time:  4.94s(wall), 28.63s(cpu)
        *  Thank you very much for using Q-Chem.  Have a nice day.  *
