 Q-Chem 5.2 (devel), Q-Chem, Inc., Pleasanton, CA (2019)
 Q-Chem 5.2.0 for Intel X86 EM64T Linux

User input:
--------------------------------------------------------------
$Comment
Geometry optimizations for CLB18.
$End

$Rem
SYMMETRY              False
SYM_IGNORE            True
JOBTYPE               Opt
METHOD                PBEh-3c
BASIS                 def2-mSVP
MAX_SCF_CYCLES        50
SCF_ALGORITHM         DIIS
SCF_PRINT             1
SCF_FINAL_PRINT       1
XC_GRID               000099000590
MEM_TOTAL             20000
MEM_STATIC            4000
BLAS3_DFT             True
New_DFT               True
$End

$Molecule
0 2
H -0.8520546860 1.2278922164 0.0000000000
C 0.0608612002 0.5846561496 0.0000000000
O 0.0608612002 -0.5919746704 0.0000000000
$End

--------------------------------------------------------------

   14    -113.6023486782      6.74e-09  Convergence criterion met
 Total energy in the final basis set =     -113.6023486782
   11    -113.6024455261      3.66e-09  Convergence criterion met
 Total energy in the final basis set =     -113.6024455261

             Standard Nuclear Orientation (Angstroms)
    I     Atom           X                Y                Z
 ----------------------------------------------------------------
    1      H      -0.8522435942     1.2292452983     0.0000000000
    2      C       0.0601034271     0.5804518550     0.0000000000
    3      O       0.0618078816    -0.5891234577     0.0000000000
 ----------------------------------------------------------------

    9    -113.6024472693      8.76e-09  Convergence criterion met
 Total energy in the final basis set =     -113.6024472693
 Final energy is   -113.60244726926109
 **  OPTIMIZATION CONVERGED  **

                    Orbital Energies (a.u.)
 --------------------------------------------------------------

 Alpha MOs
 -- Occupied --
-19.5634 -10.5526  -1.2271  -0.6962  -0.5739  -0.5115  -0.4923  -0.2683

 Beta MOs
 -- Occupied --
-19.5537 -10.5408  -1.2071  -0.6611  -0.5435  -0.4840  -0.4403

          Ground-State Mulliken Net Atomic Charges

     Atom                 Charge (a.u.)    Spin (a.u.)
  --------------------------------------------------------
      1 H                     0.192091       0.169371
      2 C                     0.016358       0.587072
      3 O                    -0.208448       0.243557
  --------------------------------------------------------
  Sum of atomic charges =    -0.000000

                    Cartesian Multipole Moments
 -----------------------------------------------------------------
    Charge (ESU x 10^10)
                 0.0000
    Dipole Moment (Debye)
         X      -0.9589      Y       1.4265      Z      -0.0000
       Tot       1.7188
    Quadrupole Moments (Debye-Ang)
        XX     -11.1818     XY      -1.0762     YY     -11.1792
        XZ       0.0000     YZ      -0.0000     ZZ     -10.6782

 Total job time:  12.41s(wall), 105.52s(cpu)
        *  Thank you very much for using Q-Chem.  Have a nice day.  *
