 Q-Chem 5.3 (devel), Q-Chem, Inc., Pleasanton, CA (2020)
 Q-Chem 5.3.1 for Intel X86 EM64T Linux

User input:
--------------------------------------------------------------
$Comment
Geometry optimizations for CLB18.
$End

$Rem
SYMMETRY              False
SYM_IGNORE            True
JOBTYPE               TS
METHOD                PBEh-3c
BASIS                 def2-mSVP
GEOM_OPT_MAX_CYCLES   150
GEOM_OPT_DMAX         10
GEOM_OPT_DMAX         10
MAX_SCF_CYCLES        50
GEOM_OPT_MAX_CYCLES   150
SCF_ALGORITHM         DIIS
SCF_PRINT             1
SCF_FINAL_PRINT       1
XC_GRID               000099000590
MEM_TOTAL             20000
MEM_STATIC            4000
BLAS3_DFT             True
New_DFT               True
$End

$Molecule
0 2
H 0.0004500001 2.0009672037 0.0000000000
F -0.0000350000 0.7624808595 0.0000000000
C -0.0000350000 -0.9061683475 0.0000000000
H 1.0537611634 -1.1415728298 0.0000000000
H -0.5268451268 -1.1423560120 0.9123544291
H -0.5268451268 -1.1423560120 -0.9123544291
$End

--------------------------------------------------------------

   13    -139.9001745961      9.02e-09  Convergence criterion met
 Total energy in the final basis set =     -139.9001745961
    9    -139.9001658033      3.35e-09  Convergence criterion met
 Total energy in the final basis set =     -139.9001658033
    9    -139.9001524150      9.30e-09  Convergence criterion met
 Total energy in the final basis set =     -139.9001524150
    9    -139.9001288090      9.74e-09  Convergence criterion met
 Total energy in the final basis set =     -139.9001288090
    9    -139.9001094608      9.41e-09  Convergence criterion met
 Total energy in the final basis set =     -139.9001094608
   10    -139.9000922807      3.69e-09  Convergence criterion met
 Total energy in the final basis set =     -139.9000922807
   10    -139.9001611746      5.93e-09  Convergence criterion met
 Total energy in the final basis set =     -139.9001611746
   10    -139.9002316485      5.99e-09  Convergence criterion met
   10    -139.9003433679      5.90e-09  Convergence criterion met
 Total energy in the final basis set =     -139.9003433679
   10    -139.9003836825      5.88e-09  Convergence criterion met
 Total energy in the final basis set =     -139.9003836825
   10    -139.9004137156      5.86e-09  Convergence criterion met
 Total energy in the final basis set =     -139.9004137156
   10    -139.9004336695      5.83e-09  Convergence criterion met
 Total energy in the final basis set =     -139.9004336695
   10    -139.9004435049      5.83e-09  Convergence criterion met
 Total energy in the final basis set =     -139.9004435049
   10    -139.9004448066      2.99e-09  Convergence criterion met
 Total energy in the final basis set =     -139.9004448066
 Final energy is   -139.90044480660865
 **  OPTIMIZATION CONVERGED  **
 Total job time:  95.28s(wall), 691.10s(cpu)
        *  Thank you very much for using Q-Chem.  Have a nice day.  *

User input: 2 of 2

                  Welcome to Q-Chem
     A Quantum Leap Into The Future Of Chemistry

 Q-Chem 5.3 (devel), Q-Chem, Inc., Pleasanton, CA (2020)

 Yihan Shao,  Zhengting Gan,  E. Epifanovsky,  A. T. B. Gilbert,  M. Wormit,
 J. Kussmann,  A. W. Lange,  A. Behn,  Jia Deng,  Xintian Feng,  D. Ghosh,
 M. Goldey,  P. R. Horn,  L. D. Jacobson,  I. Kaliman,  T. Kus,  A. Landau,
 Jie Liu,  E. I. Proynov,  R. M. Richard,  R. P. Steele,  E. J. Sundstrom,
 H. L. Woodcock III,  P. M. Zimmerman,  D. Zuev,  B. Alam,  B. Albrecht,
 A. Aldossary,  E. Alguire,  S. A. Baeppler,  D. Barton,  Z. Benda,
 Y. A. Bernard,  E. J. Berquist,  K. B. Bravaya,  H. Burton,  K. Carter-Fenk,
 D. Casanova,  Chun-Min Chang,  Yunqing Chen,  A. Chien,  K. D. Closser,
 M. P. Coons,  S. Coriani,  S. Dasgupta,  A. L. Dempwolff,  M. Diedenhofen,
 Hainam Do,  R. G. Edgar,  Po-Tung Fang,  S. Faraji,  S. Fatehi,
 Qingguo Feng,  J. Fosso-Tande,  J. Gayvert,  Qinghui Ge,  A. Ghysels,
 G. Gidofalvi,  J. Gomes,  J. Gonthier,  S. Gulania,  A. Gunina,  D. Hait,
 M. W. D. Hanson-Heine,  S. Hammes-Schiffer,  P. H. P. Harbach,
 A. W. Hauser,  M. F. Herbst,  J. E. Herr,  E. G. Hohenstein,  Z. C. Holden,
 S. Houck,  Kerwin Hui,  B. C. Huynh,  M. Ivanov,  T.-C. Jagau,  Hyunjun Ji,
 B. Kaduk,  K. Khistyaev,  Jaehoon Kim,  P. Klunzinger,  K. Koh,
 D. Kosenkov,  L. Koulias,  T. Kowalczyk,  C. M. Krauter,  A. Kunitsa,
 Ka Un Lao,  A. Laurent,  K. V. Lawler,  Joonho Lee,  D. Lefrancois,
 S. Lehtola,  D. S. Levine,  Yi-Pei Li,  You-Sheng Lin,  Fenglai Liu,
 Kuan-Yu Liu,  E. Livshits,  M. Loipersberger,  A. Luenser,  P. Manohar,
 E. Mansoor,  S. F. Manzer,  Shan-Ping Mao,  Yuezhi Mao,  N. Mardirossian,
 A. V. Marenich,  T. Markovich,  L. A. Martinez-Martinez,  S. A. Maurer,
 N. J. Mayhall,  S. C. McKenzie,  J.-M. Mewes,  P. Morgante,  A. F. Morrison,
 J. W. Mullinax,  K. Nanda,  T. S. Nguyen-Beck,  R. Olivares-Amaya,
 K. J. Oosterbaan,  J. A. Parkhill,  S. K. Paul,  F. Pavosevic,  Zheng Pei,
 T. M. Perrine,  F. Plasser,  P. Pokhilko,  S. Prager,  A. Prociuk,
 E. Ramos,  B. Rana,  D. R. Rehn,  F. Rob,  E. Rossomme,  M. Scheurer,
 M. Schneider,  N. Sergueev,  S. M. Sharada,  S. Sharma,  W. Skomorowski,
 D. W. Small,  T. Stauch,  C. J. Stein,  T. Stein,  Yu-Chuan Su,
 S. P. Veccham,  Zhen Tao,  A. J. W. Thom,  A. Tkatchenko,  T. Tsuchimochi,
 N. M. Tubman,  L. Vogt,  M. L. Vidal,  O. Vydrov,  M. A. Watson,  J. Wenzel,
 M. de Wergifosse,  T. A. Wesolowski,  A. White,  J. Witte,  A. Yamada,
 Jun Yang,  K. Yao,  S. Yeganeh,  S. R. Yost,  Zhi-Qiang You,  A. Zech,
 Igor Ying Zhang,  Xing Zhang,  Yan Zhao,  Ying Zhu,  B. R. Brooks,
 G. K. L. Chan,  C. J. Cramer,  M. S. Gordon,  W. J. Hehre,  A. Klamt,
 M. W. Schmidt,  C. D. Sherrill,  D. G. Truhlar,  A. Aspuru-Guzik,  R. Baer,
 A. T. Bell,  N. A. Besley,  Jeng-Da Chai,  A. E. DePrince, III,
 R. A. DiStasio Jr.,  A. Dreuw,  B. D. Dunietz,  T. R. Furlani,
 Chao-Ping Hsu,  Yousung Jung,  Jing Kong,  D. S. Lambrecht,  WanZhen Liang,
 C. Ochsenfeld,  V. A. Rassolov,  L. V. Slipchenko,  J. E. Subotnik,
 T. Van Voorhis,  J. M. Herbert,  A. I. Krylov,  P. M. W. Gill,  M. Head-Gordon

 Contributors to earlier versions of Q-Chem not listed above:
 R. D. Adamson,  B. Austin,  J. Baker,  G. J. O. Beran,  K. Brandhorst,
 S. T. Brown,  E. F. C. Byrd,  A. K. Chakraborty,  C.-L. Cheng,
 Siu Hung Chien,  D. M. Chipman,  D. L. Crittenden,  H. Dachsel,
 R. J. Doerksen,  A. D. Dutoi,  L. Fusti-Molnar,  W. A. Goddard III,
 A. Golubeva-Zadorozhnaya,  S. R. Gwaltney,  G. Hawkins,  A. Heyden,
 S. Hirata,  G. Kedziora,  F. J. Keil,  C. Kelley,  Jihan Kim,  R. A. King,
 R. Z. Khaliullin,  P. P. Korambath,  W. Kurlancheek,  A. M. Lee,  M. S. Lee,
 S. V. Levchenko,  Ching Yeh Lin,  D. Liotard,  R. C. Lochan,  I. Lotan,
 P. E. Maslen,  N. Nair,  D. P. O'Neill,  D. Neuhauser,  E. Neuscamman,
 C. M. Oana,  R. Olson,  B. Peters,  R. Peverati,  P. A. Pieniazek,
 Y. M. Rhee,  J. Ritchie,  M. A. Rohrdanz,  E. Rosta,  N. J. Russ,
 H. F. Schaefer III,  N. E. Schultz,  N. Shenvi,  A. C. Simmonett,  A. Sodt,
 D. Stuck,  K. S. Thanthiriwatte,  V. Vanovschi,  Tao Wang,  A. Warshel,
 C. F. Williams,  Q. Wu,  X. Xu,  W. Zhang

 Please cite Q-Chem as follows:
 Y. Shao et al., Mol. Phys. 113, 184-215 (2015)
 DOI: 10.1080/00268976.2014.952696

 Q-Chem 5.3.1 for Intel X86 EM64T Linux

 Parts of Q-Chem use Armadillo 9.800.1 (Horizon Scraper).
 http://arma.sourceforge.net/

 Q-Chem begins on Fri Oct 30 09:17:03 2020

Host:
0

     Scratch files written to /data/scratch/MN_53_hfch3ts_BH76_PBEh_3c//
Processing $rem in /home/pierpa/qchem53/config/preferences:
Processing $rem in /home/pierpa/.qchemrc:
The previous job contains 0 fragments, simply inherited here

Checking the input file for inconsistencies... 	...done.

--------------------------------------------------------------
User input:
--------------------------------------------------------------

$Comment
Geometry optimizations for CLB18.
$End

$Rem
SYMMETRY              False
SYM_IGNORE            True
JOBTYPE               Freq
METHOD                PBEh-3c
BASIS                 def2-mSVP
GEOM_OPT_MAX_CYCLES   150
GEOM_OPT_DMAX         10
MAX_SCF_CYCLES        50
SCF_ALGORITHM         DIIS
SCF_PRINT             1
SCF_FINAL_PRINT       1
XC_GRID               000099000590
MEM_TOTAL             20000
MEM_STATIC            4000
BLAS3_DFT             True
New_DFT               True
$End

$Molecule
Read
$End

--------------------------------------------------------------

             Standard Nuclear Orientation (Angstroms)
    I     Atom           X                Y                Z
 ----------------------------------------------------------------
    1      H      -0.0004982265     2.0369565686     0.0002357674
    2      F       0.0008390757     0.7757352690    -0.0002705288
    3      C       0.0001402083    -0.8937895161    -0.0000311712
    4      H       1.0476939111    -1.1633011898     0.0000188334
    5      H      -0.5238637375    -1.1621107456     0.9073898227
    6      H      -0.5238603211    -1.1624955243    -0.9073427235
 ----------------------------------------------------------------

   14    -139.9004448083      2.80e-09  Convergence criterion met
 Total energy in the final basis set =     -139.9004448083

                    Orbital Energies (a.u.)
 --------------------------------------------------------------

 Alpha MOs
 -- Occupied --
-25.0770 -10.4880  -1.2608  -0.7935  -0.5589  -0.5131  -0.5131  -0.4311
 -0.4311  -0.2086

 Beta MOs
 -- Occupied --
-25.0762 -10.4782  -1.2575  -0.7691  -0.5443  -0.5067  -0.5067  -0.4280
 -0.4280

          Ground-State Mulliken Net Atomic Charges

     Atom                 Charge (a.u.)    Spin (a.u.)
  --------------------------------------------------------
      1 H                     0.121750       0.665796
      2 F                    -0.372685      -0.117967
      3 C                    -0.416893       0.524648
      4 H                     0.222609      -0.024149
      5 H                     0.222609      -0.024167
      6 H                     0.222610      -0.024161
  --------------------------------------------------------
  Sum of atomic charges =    -0.000000

                    Cartesian Multipole Moments
 -----------------------------------------------------------------
    Charge (ESU x 10^10)
                 0.0000
    Dipole Moment (Debye)
         X      -0.0014      Y      -1.4543      Z       0.0005
       Tot       1.4543
    Quadrupole Moments (Debye-Ang)
        XX     -12.7951     XY      -0.0021     YY     -11.7242
        XZ      -0.0000     YZ       0.0007     ZZ     -12.7950

 Frequency:     -1769.00                 288.98                 291.03
 Force Cnst:      3.1845                 0.0563                 0.0571
 Red. Mass:       1.7272                 1.1435                 1.1452
 IR Intens:     3629.663                 11.031                 11.000
 Frequency:       838.75                 841.43                 970.47
 Force Cnst:      0.4800                 0.4818                 0.9408
 Red. Mass:       1.1580                 1.1551                 1.6955
 IR Intens:        0.334                  0.345                242.494
 Frequency:      1263.32                1504.43                1506.13
 Force Cnst:      1.1887                 1.4442                 1.4460
 Red. Mass:       1.2641                 1.0830                 1.0819
 IR Intens:       39.478                  4.893                  4.890
 Frequency:      3177.97                3328.54                3329.39
 Force Cnst:      6.0624                 7.2772                 7.2803
 Red. Mass:       1.0188                 1.1148                 1.1147
 IR Intens:        1.146                  8.037                  8.030

 STANDARD THERMODYNAMIC QUANTITIES AT   298.15 K  AND     1.00 ATM

   This Molecule has  1 Imaginary Frequencies
   Zero point vibrational energy:       24.789 kcal/mol

   Atom    1 Element H  Has Mass    1.00783
   Atom    2 Element F  Has Mass   18.99840
   Atom    3 Element C  Has Mass   12.00000
   Atom    4 Element H  Has Mass    1.00783
   Atom    5 Element H  Has Mass    1.00783
   Atom    6 Element H  Has Mass    1.00783
   Molecular Mass:    35.029720 amu
   Principal axes and moments of inertia in amu*Bohr^2:
                             1           2           3
    Eigenvalues --       11.85216   109.85058   109.85094
          X               0.00028    -0.09273     0.99569
          Y               1.00000     0.00012    -0.00027
          Z              -0.00009     0.99569     0.09273
   Rotational Symmetry Number is   1
   The Molecule is an Asymmetric Top
   Translational Enthalpy:        0.889 kcal/mol
   Rotational Enthalpy:           0.889 kcal/mol
   Vibrational Enthalpy:         25.457 kcal/mol
   gas constant (RT):             0.592 kcal/mol
   Translational Entropy:        36.591  cal/mol.K
   Rotational Entropy:           19.598  cal/mol.K
   Vibrational Entropy:           3.462  cal/mol.K

   Total Enthalpy:               27.827 kcal/mol
   Total Entropy:                59.651  cal/mol.K

 Total job time:  50.44s(wall), 392.05s(cpu)
        *  Thank you very much for using Q-Chem.  Have a nice day.  *
