 Q-Chem 5.2 (devel), Q-Chem, Inc., Pleasanton, CA (2019)
 Q-Chem 5.2.0 for Intel X86 EM64T Linux

User input:
--------------------------------------------------------------
$Comment
Geometry optimizations for CLB18.
$End

$Rem
SYMMETRY              False
SYM_IGNORE            True
JOBTYPE               Opt
METHOD                PBEh-3c
BASIS                 def2-mSVP
MAX_SCF_CYCLES        50
SCF_ALGORITHM         DIIS
SCF_PRINT             1
SCF_FINAL_PRINT       1
XC_GRID               000099000590
MEM_TOTAL             20000
MEM_STATIC            4000
BLAS3_DFT             True
New_DFT               True
$End

$Molecule
0 2
N -0.0624418525 0.6594923907 0.0000000000
N -0.0624418525 -0.5187090272 0.0000000000
H 0.8741954605 -0.9854761361 0.0000000000
$End

--------------------------------------------------------------

   15    -109.7834538573      2.51e-09  Convergence criterion met
 Total energy in the final basis set =     -109.7834538573
   11    -109.7836410997      7.77e-09  Convergence criterion met
 Total energy in the final basis set =     -109.7836410997

             Standard Nuclear Orientation (Angstroms)
    I     Atom           X                Y                Z
 ----------------------------------------------------------------
    1      N      -0.0627808495     0.6541888135     0.0000000000
    2      N      -0.0606858172    -0.5137020708     0.0000000000
    3      H       0.8727784222    -0.9851795154     0.0000000000
 ----------------------------------------------------------------

   11    -109.7836515045      7.70e-09  Convergence criterion met
 Total energy in the final basis set =     -109.7836515045
 Final energy is   -109.78365150449429
 **  OPTIMIZATION CONVERGED  **

                    Orbital Energies (a.u.)
 --------------------------------------------------------------

 Alpha MOs
 -- Occupied --
-14.7164 -14.7122  -1.1868  -0.7545  -0.5599  -0.4864  -0.4804  -0.2653

 Beta MOs
 -- Occupied --
-14.7130 -14.6933  -1.1632  -0.7188  -0.4976  -0.4706  -0.4378

          Ground-State Mulliken Net Atomic Charges

     Atom                 Charge (a.u.)    Spin (a.u.)
  --------------------------------------------------------
      1 N                    -0.057907       0.779323
      2 N                    -0.273982       0.070342
      3 H                     0.331889       0.150335
  --------------------------------------------------------
  Sum of atomic charges =    -0.000000

                    Cartesian Multipole Moments
 -----------------------------------------------------------------
    Charge (ESU x 10^10)
                 0.0000
    Dipole Moment (Debye)
         X       1.5180      Y      -1.2842      Z      -0.0000
       Tot       1.9883
    Quadrupole Moments (Debye-Ang)
        XX     -10.4866     XY      -1.4929     YY     -11.7748
        XZ       0.0000     YZ      -0.0000     ZZ     -10.9076

 Total job time:  11.60s(wall), 107.88s(cpu)
        *  Thank you very much for using Q-Chem.  Have a nice day.  *
