 Q-Chem 5.2 (devel), Q-Chem, Inc., Pleasanton, CA (2019)
 Q-Chem 5.2.0 for Intel X86 EM64T Linux

User input:
--------------------------------------------------------------
$Comment
Geometry optimizations for CLB18.
$End

$Rem
SYMMETRY              False
SYM_IGNORE            True
JOBTYPE               Opt
METHOD                PBEh-3c
BASIS                 def2-mSVP
MAX_SCF_CYCLES        50
SCF_ALGORITHM         DIIS
SCF_PRINT             1
SCF_FINAL_PRINT       1
XC_GRID               000099000590
MEM_TOTAL             20000
MEM_STATIC            4000
BLAS3_DFT             True
New_DFT               True
$End

$Molecule
0 1
N 0.0000000000 0.0000000000 -1.1956759078
N 0.0000000000 0.0000000000 -0.0751108841
O 0.0000000000 0.0000000000 1.1119389060
$End

--------------------------------------------------------------

   12    -184.2653380428      2.69e-09  Convergence criterion met
 Total energy in the final basis set =     -184.2653380428
   10    -184.2656304626      3.33e-09  Convergence criterion met
 Total energy in the final basis set =     -184.2656304626
   10    -184.2656041733      7.80e-10  Convergence criterion met
 Total energy in the final basis set =     -184.2656041733
    9    -184.2656512638      9.31e-09  Convergence criterion met
 Total energy in the final basis set =     -184.2656512638

             Standard Nuclear Orientation (Angstroms)
    I     Atom           X                Y                Z
 ----------------------------------------------------------------
    1      N       0.0000000000     0.0000000000    -1.1886911186
    2      N       0.0000000000     0.0000000000    -0.0722573038
    3      O       0.0000000000     0.0000000000     1.1021005365
 ----------------------------------------------------------------

    8    -184.2656517099      3.55e-09  Convergence criterion met
 Total energy in the final basis set =     -184.2656517099
 Final energy is   -184.26565170986561
 **  OPTIMIZATION CONVERGED  **

                    Orbital Energies (a.u.)
 --------------------------------------------------------------

 Alpha MOs
 -- Occupied --
-19.5950 -14.8816 -14.7419  -1.3739  -1.2053  -0.6769  -0.6415  -0.6415
 -0.5448  -0.3954  -0.3954

          Ground-State Mulliken Net Atomic Charges

     Atom                 Charge (a.u.)
  ----------------------------------------
      1 N                    -0.107798
      2 N                     0.452893
      3 O                    -0.345095
  ----------------------------------------
  Sum of atomic charges =     0.000000

                    Cartesian Multipole Moments
 -----------------------------------------------------------------
    Charge (ESU x 10^10)
                -0.0000
    Dipole Moment (Debye)
         X       0.0000      Y       0.0000      Z      -0.1528
       Tot       0.1528
    Quadrupole Moments (Debye-Ang)
        XX     -14.9104     XY       0.0000     YY     -14.9104
        XZ       0.0000     YZ      -0.0000     ZZ     -18.9405

 Total job time:  17.49s(wall), 163.26s(cpu)
        *  Thank you very much for using Q-Chem.  Have a nice day.  *
