 Q-Chem 5.2 (devel), Q-Chem, Inc., Pleasanton, CA (2019)
 Q-Chem 5.2.0 for Intel X86 EM64T Linux

User input:
--------------------------------------------------------------
$Comment
Geometry optimizations for CLB18.
$End

$Rem
SYMMETRY              False
SYM_IGNORE            True
JOBTYPE               Opt
METHOD                PBEh-3c
BASIS                 def2-mSVP
MAX_SCF_CYCLES        50
SCF_ALGORITHM         DIIS
SCF_PRINT             1
SCF_FINAL_PRINT       1
XC_GRID               000099000590
MEM_TOTAL             20000
MEM_STATIC            4000
BLAS3_DFT             True
New_DFT               True
$End

$Molecule
0 1
C 0.0000000000 0.0000000000 -0.7392552717
N 0.0000000000 0.0000000000 0.4300824280
H 0.0000000000 0.0000000000 1.4249525179
$End

--------------------------------------------------------------

   10     -93.1841297826      9.67e-09  Convergence criterion met
 Total energy in the final basis set =      -93.1841297826
    8     -93.1840497596      4.14e-09  Convergence criterion met
 Total energy in the final basis set =      -93.1840497596
    8     -93.1841679988      3.25e-09  Convergence criterion met
 Total energy in the final basis set =      -93.1841679988

             Standard Nuclear Orientation (Angstroms)
    I     Atom           X                Y                Z
 ----------------------------------------------------------------
    1      C       0.0000000000     0.0000000000    -0.7366192801
    2      N       0.0000000000     0.0000000000     0.4286040864
    3      H       0.0000000000     0.0000000000     1.4237948679
 ----------------------------------------------------------------

    7     -93.1841683255      3.26e-09  Convergence criterion met
 Total energy in the final basis set =      -93.1841683255
 Final energy is   -93.184168325454834
 **  OPTIMIZATION CONVERGED  **

                    Orbital Energies (a.u.)
 --------------------------------------------------------------

 Alpha MOs
 -- Occupied --
-14.6795 -10.4987  -1.0502  -0.7400  -0.4313  -0.4313  -0.3708

          Ground-State Mulliken Net Atomic Charges

     Atom                 Charge (a.u.)
  ----------------------------------------
      1 C                     0.023594
      2 N                    -0.419508
      3 H                     0.395915
  ----------------------------------------
  Sum of atomic charges =     0.000000

                    Cartesian Multipole Moments
 -----------------------------------------------------------------
    Charge (ESU x 10^10)
                 0.0000
    Dipole Moment (Debye)
         X      -0.0000      Y       0.0000      Z       3.0439
       Tot       3.0439
    Quadrupole Moments (Debye-Ang)
        XX     -11.6120     XY       0.0000     YY     -11.6120
        XZ       0.0000     YZ      -0.0000     ZZ      -9.9514

 Total job time:  11.31s(wall), 99.64s(cpu)
        *  Thank you very much for using Q-Chem.  Have a nice day.  *
