 Q-Chem 5.2 (devel), Q-Chem, Inc., Pleasanton, CA (2019)
 Q-Chem 5.2.0 for Intel X86 EM64T Linux

User input:
--------------------------------------------------------------
$Comment
Geometry optimizations for CLB18.
$End

$Rem
SYMMETRY              False
SYM_IGNORE            True
JOBTYPE               Opt
METHOD                PBEh-3c
BASIS                 def2-mSVP
MAX_SCF_CYCLES        50
SCF_ALGORITHM         DIIS
SCF_PRINT             1
SCF_FINAL_PRINT       1
XC_GRID               000099000590
MEM_TOTAL             20000
MEM_STATIC            4000
BLAS3_DFT             True
New_DFT               True
$End

$Molecule
0 2
S 0.0000000000 0.0000000000 0.0788352333
H 0.0000000000 0.0000000000 -1.2613679668
$End

--------------------------------------------------------------

             Standard Nuclear Orientation (Angstroms)
    I     Atom           X                Y                Z
 ----------------------------------------------------------------
    1      S       0.0000000000     0.0000000000     0.0788352333
    2      H       0.0000000000     0.0000000000    -1.2613679668
 ----------------------------------------------------------------

   11    -398.2866895861      1.97e-09  Convergence criterion met
 Total energy in the final basis set =     -398.2866895861
 Final energy is   -398.28668958606573
 **  OPTIMIZATION CONVERGED  **

                    Orbital Energies (a.u.)
 --------------------------------------------------------------

 Alpha MOs
 -- Occupied --
-89.6082  -8.2487  -6.1478  -6.1361  -6.1277  -0.8165  -0.4609  -0.3692
 -0.3161

 Beta MOs
 -- Occupied --
-89.6019  -8.2423  -6.1324  -6.1245  -6.1240  -0.7633  -0.4445  -0.2990

          Ground-State Mulliken Net Atomic Charges

     Atom                 Charge (a.u.)    Spin (a.u.)
  --------------------------------------------------------
      1 S                    -0.176668       1.032433
      2 H                     0.176668      -0.032433
  --------------------------------------------------------
  Sum of atomic charges =     0.000000

                    Cartesian Multipole Moments
 -----------------------------------------------------------------
    Charge (ESU x 10^10)
                -0.0000
    Dipole Moment (Debye)
         X      -0.0000      Y       0.0000      Z      -1.1213
       Tot       1.1213
    Quadrupole Moments (Debye-Ang)
        XX     -12.6128     XY       0.0000     YY     -15.2699
        XZ       0.0000     YZ      -0.0000     ZZ     -11.7874

 Total job time:  2.07s(wall), 15.98s(cpu)
        *  Thank you very much for using Q-Chem.  Have a nice day.  *
