 Q-Chem 5.2 (devel), Q-Chem, Inc., Pleasanton, CA (2019)
 Q-Chem 5.2.0 for Intel X86 EM64T Linux

User input:
--------------------------------------------------------------
$Comment
Geometry optimizations for CLB18.
$End

$Rem
SYMMETRY              False
SYM_IGNORE            True
JOBTYPE               Opt
METHOD                PBEh-3c
BASIS                 def2-mSVP
MAX_SCF_CYCLES        50
SCF_ALGORITHM         DIIS
SCF_PRINT             1
SCF_FINAL_PRINT       1
XC_GRID               000099000590
MEM_TOTAL             20000
MEM_STATIC            4000
BLAS3_DFT             True
New_DFT               True
$End

$Molecule
-1 1
C -1.2979976133 -0.3895183489 -0.0000340000
O -0.4772231214 0.7280208395 0.0000539999
H -2.3519228216 -0.0802322612 -0.0086390296
H -1.1408531488 -1.0358220560 -0.8781007883
H -1.1531776860 -1.0275139738 0.8863612445
H 0.5105803361 0.3711601331 0.0002430003
F 1.7490153500 -0.1905170253 -0.0000100000
$End

--------------------------------------------------------------

   12    -215.1365062279      2.35e-09  Convergence criterion met
 Total energy in the final basis set =     -215.1365062279
   10    -215.1384526452      2.02e-09  Convergence criterion met
 Total energy in the final basis set =     -215.1384526452
   10    -215.1404031578      4.88e-09  Convergence criterion met
 Total energy in the final basis set =     -215.1404031578
   10    -215.1410035700      1.71e-09  Convergence criterion met
 Total energy in the final basis set =     -215.1410035700
   10    -215.1413751459      2.22e-09  Convergence criterion met
 Total energy in the final basis set =     -215.1413751459
    9    -215.1414224930      5.97e-09  Convergence criterion met
 Total energy in the final basis set =     -215.1414224930
    8    -215.1414274175      5.27e-09  Convergence criterion met
 Total energy in the final basis set =     -215.1414274175

             Standard Nuclear Orientation (Angstroms)
    I     Atom           X                Y                Z
 ----------------------------------------------------------------
    1      C      -1.2898313890    -0.3680798055    -0.0005529563
    2      O      -0.4743052025     0.7148739103    -0.0020313882
    3      H      -2.3646562064    -0.0861103400    -0.0067007516
    4      H      -1.1826433000    -1.0537911409    -0.8743828977
    5      H      -1.1906405728    -1.0455871897     0.8806907103
    6      H       0.6372765613     0.3231924978     0.0003154250
    7      F       1.7032214045    -0.1089206248     0.0025362853
 ----------------------------------------------------------------

    8    -215.1414286873      5.99e-09  Convergence criterion met
 Total energy in the final basis set =     -215.1414286873
 Final energy is   -215.14142868726844
 **  OPTIMIZATION CONVERGED  **

                    Orbital Energies (a.u.)
 --------------------------------------------------------------

 Alpha MOs
 -- Occupied --
-24.6950 -19.1934 -10.2678  -0.9110  -0.8322  -0.5198  -0.3166  -0.2717
 -0.2518  -0.1813  -0.1154  -0.1138  -0.0620  -0.0575

          Ground-State Mulliken Net Atomic Charges

     Atom                 Charge (a.u.)
  ----------------------------------------
      1 C                    -0.271659
      2 O                    -0.723735
      3 H                     0.084496
      4 H                     0.082777
      5 H                     0.082423
      6 H                     0.476628
      7 F                    -0.730932
  ----------------------------------------
  Sum of atomic charges =    -1.000000

                    Cartesian Multipole Moments
 -----------------------------------------------------------------
    Charge (ESU x 10^10)
                -4.8032
    Dipole Moment (Debye)
         X      -2.5864      Y      -1.2735      Z      -0.0022
       Tot       2.8830
    Quadrupole Moments (Debye-Ang)
        XX     -30.3026     XY       1.6602     YY     -22.2424
        XZ      -0.0146     YZ       0.0074     ZZ     -20.4125

 Total job time:  63.33s(wall), 694.21s(cpu)
        *  Thank you very much for using Q-Chem.  Have a nice day.  *
