 Q-Chem 5.2 (devel), Q-Chem, Inc., Pleasanton, CA (2019)
 Q-Chem 5.2.0 for Intel X86 EM64T Linux

User input:
--------------------------------------------------------------
$Comment
Geometry optimizations for CLB18.
$End

$Rem
SYMMETRY              False
SYM_IGNORE            True
JOBTYPE               Opt
METHOD                PBEh-3c
BASIS                 def2-mSVP
MAX_SCF_CYCLES        50
SCF_ALGORITHM         DIIS
SCF_PRINT             1
SCF_FINAL_PRINT       1
XC_GRID               000099000590
MEM_TOTAL             20000
MEM_STATIC            4000
BLAS3_DFT             True
New_DFT               True
$End

$Molecule
-1 1
F 1.8990529646 -0.0764571109 -0.0054040106
C 0.4894132476 0.1054840685 0.0067680178
H 0.0013039985 -0.7861668315 -0.3611549795
H 0.1719429052 0.2983580491 1.0232435137
H 0.2497441263 0.9474706288 -0.6308850707
O -2.1694466440 -0.0731428741 -0.0023200029
H -3.0953691769 0.1806970838 -0.0046240034
$End

--------------------------------------------------------------

   12    -215.0492882977      5.50e-09  Convergence criterion met
 Total energy in the final basis set =     -215.0492882977
   11    -215.0500024821      1.55e-09  Convergence criterion met
 Total energy in the final basis set =     -215.0500024821
   10    -215.0501236241      2.21e-09  Convergence criterion met
 Total energy in the final basis set =     -215.0501236241
   11    -215.0504464349      2.00e-09  Convergence criterion met
 Total energy in the final basis set =     -215.0504464349
   11    -215.0509703140      1.95e-09  Convergence criterion met
 Total energy in the final basis set =     -215.0509703140
   11    -215.0518761389      3.15e-09  Convergence criterion met
 Total energy in the final basis set =     -215.0518761389
   11    -215.0530773411      2.72e-09  Convergence criterion met
 Total energy in the final basis set =     -215.0530773411
   11    -215.0538706298      3.44e-09  Convergence criterion met
   10    -215.0540390039      3.66e-09  Convergence criterion met
 Total energy in the final basis set =     -215.0540390039
   10    -215.0542053607      3.99e-09  Convergence criterion met
 Total energy in the final basis set =     -215.0542053607
   10    -215.0543730853      7.64e-09  Convergence criterion met
 Total energy in the final basis set =     -215.0543730853
   10    -215.0544632782      6.74e-09  Convergence criterion met
 Total energy in the final basis set =     -215.0544632782
   10    -215.0544897138      2.42e-09  Convergence criterion met
 Total energy in the final basis set =     -215.0544897138
    9    -215.0544944214      7.96e-09  Convergence criterion met
 Total energy in the final basis set =     -215.0544944214

             Standard Nuclear Orientation (Angstroms)
    I     Atom           X                Y                Z
 ----------------------------------------------------------------
    1      F       1.8130293930     0.1416260262    -0.0454341039
    2      C       0.3817074923     0.0680640754     0.0123184502
    3      H       0.0402277629    -0.8650622537    -0.4178804356
    4      H       0.0480068056     0.1319417387     1.0405635325
    5      H      -0.0235535744     0.9005429724    -0.5543718352
    6      O      -2.2007263734    -0.2682782812     0.2534482671
    7      H      -2.5120500849     0.4874087359    -0.2630204107
 ----------------------------------------------------------------

    9    -215.0544953057      5.63e-09  Convergence criterion met
 Total energy in the final basis set =     -215.0544953057
 Final energy is   -215.05449530573799
 **  OPTIMIZATION CONVERGED  **

                    Orbital Energies (a.u.)
 --------------------------------------------------------------

 Alpha MOs
 -- Occupied --
-24.8715 -19.0625 -10.2967  -1.0955  -0.6440  -0.5705  -0.3402  -0.3380
 -0.3373  -0.2096  -0.2069  -0.1013   0.0448   0.0457

          Ground-State Mulliken Net Atomic Charges

     Atom                 Charge (a.u.)
  ----------------------------------------
      1 F                    -0.445475
      2 C                    -0.264571
      3 H                     0.206755
      4 H                     0.206505
      5 H                     0.157016
      6 O                    -1.093875
      7 H                     0.233646
  ----------------------------------------
  Sum of atomic charges =    -1.000000

                    Cartesian Multipole Moments
 -----------------------------------------------------------------
    Charge (ESU x 10^10)
                -4.8032
    Dipole Moment (Debye)
         X       5.9223      Y       1.6544      Z      -1.4467
       Tot       6.3169
    Quadrupole Moments (Debye-Ang)
        XX     -44.4350     XY      -5.1154     YY     -19.3467
        XZ       3.9710     YZ      -0.0479     ZZ     -19.6661

 Total job time:  129.37s(wall), 1416.98s(cpu)
        *  Thank you very much for using Q-Chem.  Have a nice day.  *
