 Q-Chem 5.2 (devel), Q-Chem, Inc., Pleasanton, CA (2019)
 Q-Chem 5.2.0 for Intel X86 EM64T Linux

User input:
--------------------------------------------------------------
$Comment
Geometry optimizations for CLB18.
$End

$Rem
SYMMETRY              False
SYM_IGNORE            True
JOBTYPE               Opt
METHOD                PBEh-3c
BASIS                 def2-mSVP
MAX_SCF_CYCLES        50
SCF_ALGORITHM         DIIS
SCF_PRINT             1
SCF_FINAL_PRINT       1
XC_GRID               000099000590
MEM_TOTAL             20000
MEM_STATIC            4000
BLAS3_DFT             True
New_DFT               True
$End

$Molecule
0 3
N 0.0000000000 0.0000000000 0.1295912655
H 0.0000000000 0.0000000000 -0.9071420336
$End

--------------------------------------------------------------

   11     -55.0999783954      1.31e-09  Convergence criterion met
 Total energy in the final basis set =      -55.0999783954

             Standard Nuclear Orientation (Angstroms)
    I     Atom           X                Y                Z
 ----------------------------------------------------------------
    1      N       0.0000000000     0.0000000000     0.1299747830
    2      H       0.0000000000     0.0000000000    -0.9075255511
 ----------------------------------------------------------------

    7     -55.0999790229      5.69e-09  Convergence criterion met
 Total energy in the final basis set =      -55.0999790229
 Final energy is   -55.099979022908819
 **  OPTIMIZATION CONVERGED  **

                    Orbital Energies (a.u.)
 --------------------------------------------------------------

 Alpha MOs
 -- Occupied --
-14.7016  -0.9393  -0.4571  -0.3955  -0.3955

 Beta MOs
 -- Occupied --
-14.6580  -0.7931  -0.4007

          Ground-State Mulliken Net Atomic Charges

     Atom                 Charge (a.u.)    Spin (a.u.)
  --------------------------------------------------------
      1 N                    -0.303860       2.080165
      2 H                     0.303860      -0.080165
  --------------------------------------------------------
  Sum of atomic charges =     0.000000

                    Cartesian Multipole Moments
 -----------------------------------------------------------------
    Charge (ESU x 10^10)
                 0.0000
    Dipole Moment (Debye)
         X      -0.0000      Y       0.0000      Z      -1.6751
       Tot       1.6751
    Quadrupole Moments (Debye-Ang)
        XX      -6.0799     XY      -0.0000     YY      -6.0799
        XZ       0.0000     YZ       0.0000     ZZ      -5.6277

 Total job time:  3.93s(wall), 25.27s(cpu)
        *  Thank you very much for using Q-Chem.  Have a nice day.  *
