 Q-Chem 5.2 (devel), Q-Chem, Inc., Pleasanton, CA (2019)
 Q-Chem 5.2.0 for Intel X86 EM64T Linux

User input:
--------------------------------------------------------------
$Comment
Geometry optimizations for CLB18.
$End

$Rem
SYMMETRY              False
SYM_IGNORE            True
JOBTYPE               Opt
METHOD                PBEh-3c
BASIS                 def2-mSVP
MAX_SCF_CYCLES        50
SCF_ALGORITHM         DIIS
SCF_PRINT             1
SCF_FINAL_PRINT       1
XC_GRID               000099000590
MEM_TOTAL             20000
MEM_STATIC            4000
BLAS3_DFT             True
New_DFT               True
$End

$Molecule
0 1
N 0.0000000000 0.0000000000 0.5485556803
N 0.0000000000 0.0000000000 -0.5485556803
$End

--------------------------------------------------------------

    8    -109.2794174513      8.07e-09  Convergence criterion met
 Total energy in the final basis set =     -109.2794174513
    7    -109.2790870548      2.44e-09  Convergence criterion met
 Total energy in the final basis set =     -109.2790870548
    7    -109.2794794681      2.24e-09  Convergence criterion met
 Total energy in the final basis set =     -109.2794794681

             Standard Nuclear Orientation (Angstroms)
    I     Atom           X                Y                Z
 ----------------------------------------------------------------
    1      N       0.0000000000     0.0000000000     0.5463260549
    2      N       0.0000000000     0.0000000000    -0.5463260549
 ----------------------------------------------------------------

    5    -109.2794795571      2.40e-09  Convergence criterion met
 Total energy in the final basis set =     -109.2794795571
 Final energy is   -109.27947955705436
 **  OPTIMIZATION CONVERGED  **

                    Orbital Energies (a.u.)
 --------------------------------------------------------------

 Alpha MOs
 -- Occupied --
-14.7413 -14.7393  -1.2377  -0.6194  -0.5201  -0.5201  -0.4883

          Ground-State Mulliken Net Atomic Charges

     Atom                 Charge (a.u.)
  ----------------------------------------
      1 N                     0.000000
      2 N                    -0.000000
  ----------------------------------------
  Sum of atomic charges =     0.000000

                    Cartesian Multipole Moments
 -----------------------------------------------------------------
    Charge (ESU x 10^10)
                 0.0000
    Dipole Moment (Debye)
         X      -0.0000      Y       0.0000      Z       0.0000
       Tot       0.0000
    Quadrupole Moments (Debye-Ang)
        XX      -9.9226     XY      -0.0000     YY      -9.9226
        XZ       0.0000     YZ       0.0000     ZZ     -11.5224

 Total job time:  8.31s(wall), 68.37s(cpu)
        *  Thank you very much for using Q-Chem.  Have a nice day.  *
