 Q-Chem 5.2 (devel), Q-Chem, Inc., Pleasanton, CA (2019)
 Q-Chem 5.2.0 for Intel X86 EM64T Linux

User input:
--------------------------------------------------------------
$Comment
Geometry optimizations for CLB18.
$End

$Rem
SYMMETRY              False
SYM_IGNORE            True
JOBTYPE               Opt
METHOD                PBEh-3c
BASIS                 def2-mSVP
MAX_SCF_CYCLES        50
SCF_ALGORITHM         DIIS
SCF_PRINT             1
SCF_FINAL_PRINT       1
XC_GRID               000099000590
MEM_TOTAL             20000
MEM_STATIC            4000
BLAS3_DFT             True
New_DFT               True
$End

$Molecule
0 2
N 0.0000000000 0.0000000000 0.1414152011
H 0.0000000000 0.8023120282 -0.4949542622
H 0.0000000000 -0.8023120282 -0.4949542622
$End

--------------------------------------------------------------

   11     -55.7508782037      2.30e-09  Convergence criterion met
 Total energy in the final basis set =      -55.7508782037

             Standard Nuclear Orientation (Angstroms)
    I     Atom           X                Y                Z
 ----------------------------------------------------------------
    1      N       0.0000000000    -0.0000000836     0.1399640288
    2      H       0.0000000000     0.8030659631    -0.4942287092
    3      H       0.0000000000    -0.8030658795    -0.4942286429
 ----------------------------------------------------------------

    7     -55.7508807796      5.97e-09  Convergence criterion met
 Total energy in the final basis set =      -55.7508807796
 Final energy is   -55.750880779639033
 **  OPTIMIZATION CONVERGED  **

                    Orbital Energies (a.u.)
 --------------------------------------------------------------

 Alpha MOs
 -- Occupied --
-14.6529  -0.9471  -0.5292  -0.3761  -0.3717

 Beta MOs
 -- Occupied --
-14.6311  -0.8774  -0.5120  -0.3457

          Ground-State Mulliken Net Atomic Charges

     Atom                 Charge (a.u.)    Spin (a.u.)
  --------------------------------------------------------
      1 N                    -0.616418       1.085506
      2 H                     0.308209      -0.042753
      3 H                     0.308209      -0.042753
  --------------------------------------------------------
  Sum of atomic charges =     0.000000

                    Cartesian Multipole Moments
 -----------------------------------------------------------------
    Charge (ESU x 10^10)
                 0.0000
    Dipole Moment (Debye)
         X       0.0000      Y       0.0000      Z      -2.0811
       Tot       2.0811
    Quadrupole Moments (Debye-Ang)
        XX      -6.8605     XY       0.0000     YY      -5.3053
        XZ       0.0000     YZ       0.0000     ZZ      -7.2205

 Total job time:  6.14s(wall), 52.43s(cpu)
        *  Thank you very much for using Q-Chem.  Have a nice day.  *
