 Q-Chem 5.2 (devel), Q-Chem, Inc., Pleasanton, CA (2019)
 Q-Chem 5.2.0 for Intel X86 EM64T Linux

User input:
--------------------------------------------------------------
$Comment
Geometry optimizations for CLB18.
$End

$Rem
SYMMETRY              False
SYM_IGNORE            True
JOBTYPE               Opt
METHOD                PBEh-3c
BASIS                 def2-mSVP
MAX_SCF_CYCLES        50
SCF_ALGORITHM         DIIS
SCF_PRINT             1
SCF_FINAL_PRINT       1
XC_GRID               000099000590
MEM_TOTAL             20000
MEM_STATIC            4000
BLAS3_DFT             True
New_DFT               True
$End

$Molecule
0 1
N 0.0000000000 0.0000000000 0.2822266073
H 0.4690122280 0.8123530082 -0.0940755358
H 0.4690122280 -0.8123530082 -0.0940755358
H -0.9380244560 0.0000000000 -0.0940755358
$End

--------------------------------------------------------------

    9     -56.4280054363      9.62e-09  Convergence criterion met
 Total energy in the final basis set =      -56.4280054363
    7     -56.4280105862      2.32e-09  Convergence criterion met
 Total energy in the final basis set =      -56.4280105862

             Standard Nuclear Orientation (Angstroms)
    I     Atom           X                Y                Z
 ----------------------------------------------------------------
    1      N       0.0000002441     0.0000004630     0.2837261298
    2      H       0.4680434162     0.8106749178    -0.0945752366
    3      H       0.4680416936    -0.8106742319    -0.0945754512
    4      H      -0.9360853539    -0.0000011489    -0.0945754420
 ----------------------------------------------------------------

    6     -56.4280107431      3.57e-09  Convergence criterion met
 Total energy in the final basis set =      -56.4280107431
 Final energy is   -56.428010743085125
 **  OPTIMIZATION CONVERGED  **

                    Orbital Energies (a.u.)
 --------------------------------------------------------------

 Alpha MOs
 -- Occupied --
-14.5952  -0.9361  -0.5118  -0.5118  -0.3060

          Ground-State Mulliken Net Atomic Charges

     Atom                 Charge (a.u.)
  ----------------------------------------
      1 N                    -0.944360
      2 H                     0.314787
      3 H                     0.314787
      4 H                     0.314787
  ----------------------------------------
  Sum of atomic charges =     0.000000

                    Cartesian Multipole Moments
 -----------------------------------------------------------------
    Charge (ESU x 10^10)
                -0.0000
    Dipole Moment (Debye)
         X      -0.0000      Y      -0.0000      Z      -1.9047
       Tot       1.9047
    Quadrupole Moments (Debye-Ang)
        XX      -5.9479     XY       0.0000     YY      -5.9479
        XZ       0.0000     YZ       0.0000     ZZ      -9.3636

 Total job time:  6.75s(wall), 57.09s(cpu)
        *  Thank you very much for using Q-Chem.  Have a nice day.  *
