 Q-Chem 5.2 (devel), Q-Chem, Inc., Pleasanton, CA (2019)
 Q-Chem 5.2.0 for Intel X86 EM64T Linux

User input:
--------------------------------------------------------------
$Comment
Geometry optimizations for CLB18.
$End

$Rem
SYMMETRY              False
SYM_IGNORE            True
JOBTYPE               Opt
METHOD                PBEh-3c
BASIS                 def2-mSVP
MAX_SCF_CYCLES        50
SCF_ALGORITHM         DIIS
SCF_PRINT             1
SCF_FINAL_PRINT       1
XC_GRID               000099000590
MEM_TOTAL             20000
MEM_STATIC            4000
BLAS3_DFT             True
New_DFT               True
$End

$Molecule
0 2
O 0.0000000000 0.0000000000 0.1076552826
H 0.0000000000 0.0000000000 -0.8612412023
$End

--------------------------------------------------------------

   11     -75.5730163320      1.40e-09  Convergence criterion met
 Total energy in the final basis set =      -75.5730163320

             Standard Nuclear Orientation (Angstroms)
    I     Atom           X                Y                Z
 ----------------------------------------------------------------
    1      O       0.0000000000     0.0000000000     0.1093451546
    2      H       0.0000000000     0.0000000000    -0.8629310743
 ----------------------------------------------------------------

    8     -75.5730259395      1.76e-09  Convergence criterion met
 Total energy in the final basis set =      -75.5730259395
 Final energy is   -75.573025939496688
 **  OPTIMIZATION CONVERGED  **

                    Orbital Energies (a.u.)
 --------------------------------------------------------------

 Alpha MOs
 -- Occupied --
-19.5506  -1.1185  -0.5323  -0.4778  -0.3973

 Beta MOs
 -- Occupied --
-19.5226  -1.0275  -0.5011  -0.3654

          Ground-State Mulliken Net Atomic Charges

     Atom                 Charge (a.u.)    Spin (a.u.)
  --------------------------------------------------------
      1 O                    -0.419859       1.035822
      2 H                     0.419859      -0.035822
  --------------------------------------------------------
  Sum of atomic charges =    -0.000000

                    Cartesian Multipole Moments
 -----------------------------------------------------------------
    Charge (ESU x 10^10)
                -0.0000
    Dipole Moment (Debye)
         X      -0.0000      Y      -0.0000      Z      -1.8346
       Tot       1.8346
    Quadrupole Moments (Debye-Ang)
        XX      -5.2276     XY       0.0000     YY      -6.3791
        XZ       0.0000     YZ      -0.0000     ZZ      -4.3006

 Total job time:  4.10s(wall), 28.81s(cpu)
        *  Thank you very much for using Q-Chem.  Have a nice day.  *
