 Q-Chem 5.2 (devel), Q-Chem, Inc., Pleasanton, CA (2019)
 Q-Chem 5.2.0 for Intel X86 EM64T Linux

User input:
--------------------------------------------------------------
$Comment
Geometry optimizations for CLB18.
$End

$Rem
SYMMETRY              False
SYM_IGNORE            True
JOBTYPE               Opt
METHOD                PBEh-3c
BASIS                 def2-mSVP
MAX_SCF_CYCLES        50
SCF_ALGORITHM         DIIS
SCF_PRINT             1
SCF_FINAL_PRINT       1
XC_GRID               000099000590
MEM_TOTAL             20000
MEM_STATIC            4000
BLAS3_DFT             True
New_DFT               True
$End

$Molecule
0 1
P 0.0000000000 0.0000000000 0.5688490971
H 0.5956709732 1.0317323902 -0.1896163657
H 0.5956709732 -1.0317323902 -0.1896163657
H -1.1913419464 0.0000000000 -0.1896163657
$End

--------------------------------------------------------------

    9    -342.7305384127      3.90e-09  Convergence criterion met
 Total energy in the final basis set =     -342.7305384127
    7    -342.7305594488      2.39e-09  Convergence criterion met
 Total energy in the final basis set =     -342.7305594488

             Standard Nuclear Orientation (Angstroms)
    I     Atom           X                Y                Z
 ----------------------------------------------------------------
    1      P       0.0000054033     0.0000001969     0.5754164009
    2      H       0.5934314122     1.0278738167    -0.1918042471
    3      H       0.5934275461    -1.0278717159    -0.1918043902
    4      H      -1.1868643616    -0.0000022977    -0.1918077636
 ----------------------------------------------------------------

    6    -342.7305596464      3.94e-09  Convergence criterion met
 Total energy in the final basis set =     -342.7305596464
 Final energy is   -342.73055964640082
 **  OPTIMIZATION CONVERGED  **

                    Orbital Energies (a.u.)
 --------------------------------------------------------------

 Alpha MOs
 -- Occupied --
-77.7271  -6.8082  -4.8989  -4.8989  -4.8951  -0.7195  -0.4363  -0.4363
 -0.3172

          Ground-State Mulliken Net Atomic Charges

     Atom                 Charge (a.u.)
  ----------------------------------------
      1 P                    -0.261413
      2 H                     0.087137
      3 H                     0.087138
      4 H                     0.087137
  ----------------------------------------
  Sum of atomic charges =     0.000000

                    Cartesian Multipole Moments
 -----------------------------------------------------------------
    Charge (ESU x 10^10)
                -0.0000
    Dipole Moment (Debye)
         X       0.0000      Y      -0.0000      Z      -1.0310
       Tot       1.0310
    Quadrupole Moments (Debye-Ang)
        XX     -14.5534     XY       0.0000     YY     -14.5533
        XZ       0.0000     YZ       0.0000     ZZ     -17.6741

 Total job time:  7.57s(wall), 65.09s(cpu)
        *  Thank you very much for using Q-Chem.  Have a nice day.  *
