 Q-Chem 5.2 (devel), Q-Chem, Inc., Pleasanton, CA (2019)
 Q-Chem 5.2.0 for Intel X86 EM64T Linux

User input:
--------------------------------------------------------------
$Comment
Geometry optimizations for CLB18.
$End

$Rem
SYMMETRY              False
SYM_IGNORE            True
JOBTYPE               Opt
METHOD                PBEh-3c
BASIS                 def2-mSVP
MAX_SCF_CYCLES        50
SCF_ALGORITHM         DIIS
SCF_PRINT             1
SCF_FINAL_PRINT       1
XC_GRID               000099000590
MEM_TOTAL             20000
MEM_STATIC            4000
BLAS3_DFT             True
New_DFT               True
$End

$Molecule
0 2
P 0.0000000000 0.0000000000 0.1156569712
H 0.0000000000 1.0201319517 -0.8674272839
H 0.0000000000 -1.0201319517 -0.8674272839
$End

--------------------------------------------------------------

   11    -342.0949710334      2.45e-09  Convergence criterion met
 Total energy in the final basis set =     -342.0949710334

             Standard Nuclear Orientation (Angstroms)
    I     Atom           X                Y                Z
 ----------------------------------------------------------------
    1      P       0.0000000000    -0.0000009940     0.1181832635
    2      H       0.0000000000     1.0169017126    -0.8686909090
    3      H       0.0000000000    -1.0169007186    -0.8686899511
 ----------------------------------------------------------------

    7    -342.0949744719      4.83e-09  Convergence criterion met
 Total energy in the final basis set =     -342.0949744719
 Final energy is   -342.09497447193888
 **  OPTIMIZATION CONVERGED  **

                    Orbital Energies (a.u.)
 --------------------------------------------------------------

 Alpha MOs
 -- Occupied --
-77.7442  -6.8231  -4.9199  -4.9119  -4.9091  -0.7123  -0.4399  -0.3538
 -0.2948

 Beta MOs
 -- Occupied --
-77.7392  -6.8177  -4.9086  -4.9062  -4.9010  -0.6720  -0.4333  -0.3359

          Ground-State Mulliken Net Atomic Charges

     Atom                 Charge (a.u.)    Spin (a.u.)
  --------------------------------------------------------
      1 P                    -0.128450       1.082185
      2 H                     0.064225      -0.041093
      3 H                     0.064225      -0.041092
  --------------------------------------------------------
  Sum of atomic charges =    -0.000000

                    Cartesian Multipole Moments
 -----------------------------------------------------------------
    Charge (ESU x 10^10)
                -0.0000
    Dipole Moment (Debye)
         X      -0.0000      Y      -0.0000      Z      -0.9513
       Tot       0.9513
    Quadrupole Moments (Debye-Ang)
        XX     -14.7806     XY      -0.0000     YY     -13.8336
        XZ       0.0000     YZ       0.0000     ZZ     -15.2862

 Total job time:  7.03s(wall), 59.46s(cpu)
        *  Thank you very much for using Q-Chem.  Have a nice day.  *
