 Q-Chem 5.2 (devel), Q-Chem, Inc., Pleasanton, CA (2019)
 Q-Chem 5.2.0 for Intel X86 EM64T Linux

User input:
--------------------------------------------------------------
$Comment
Geometry optimizations for CLB18.
$End

$Rem
SYMMETRY              False
SYM_IGNORE            True
JOBTYPE               Opt
METHOD                PBEh-3c
BASIS                 def2-mSVP
MAX_SCF_CYCLES        50
SCF_ALGORITHM         DIIS
SCF_PRINT             1
SCF_FINAL_PRINT       1
XC_GRID               000099000590
MEM_TOTAL             20000
MEM_STATIC            4000
BLAS3_DFT             True
New_DFT               True
$End

$Molecule
-1 1
O 0.0000000000 0.0000000000 0.1068937966
H 0.0000000000 0.0000000000 -0.8551503727
$End

--------------------------------------------------------------

   10     -75.5629622939      7.72e-10  Convergence criterion met
 Total energy in the final basis set =      -75.5629622939

             Standard Nuclear Orientation (Angstroms)
    I     Atom           X                Y                Z
 ----------------------------------------------------------------
    1      O       0.0000000000     0.0000000000     0.1114515999
    2      H       0.0000000000     0.0000000000    -0.8597081760
 ----------------------------------------------------------------

    8     -75.5630377637      4.10e-10  Convergence criterion met
 Total energy in the final basis set =      -75.5630377637
 Final energy is   -75.563037763712742
 **  OPTIMIZATION CONVERGED  **

                    Orbital Energies (a.u.)
 --------------------------------------------------------------

 Alpha MOs
 -- Occupied --
-18.9952  -0.5788  -0.0429   0.1059   0.1059

          Ground-State Mulliken Net Atomic Charges

     Atom                 Charge (a.u.)
  ----------------------------------------
      1 O                    -1.190462
      2 H                     0.190462
  ----------------------------------------
  Sum of atomic charges =    -1.000000

                    Cartesian Multipole Moments
 -----------------------------------------------------------------
    Charge (ESU x 10^10)
                -4.8032
    Dipole Moment (Debye)
         X      -0.0000      Y       0.0000      Z      -1.4465
       Tot       1.4465
    Quadrupole Moments (Debye-Ang)
        XX      -7.8416     XY      -0.0000     YY      -7.8416
        XZ      -0.0000     YZ       0.0000     ZZ      -6.4149

 Total job time:  4.48s(wall), 30.58s(cpu)
        *  Thank you very much for using Q-Chem.  Have a nice day.  *
