 Q-Chem 5.3 (devel), Q-Chem, Inc., Pleasanton, CA (2020)
 Q-Chem 5.3.1 for Intel X86 EM64T Linux

User input:
--------------------------------------------------------------
$Comment
Geometry optimizations for CLB18.
$End

$Rem
SYMMETRY              False
SYM_IGNORE            True
JOBTYPE               TS
METHOD                PBEh-3c
BASIS                 def2-mSVP
GEOM_OPT_MAX_CYCLES   150
GEOM_OPT_DMAX         10
MAX_SCF_CYCLES        50
SCF_ALGORITHM         DIIS
SCF_PRINT             1
SCF_FINAL_PRINT       1
XC_GRID               000099000590
MEM_TOTAL             20000
MEM_STATIC            4000
BLAS3_DFT             True
New_DFT               True
$End

$Molecule
0 2
C -1.8006207116 0.1680582153 0.2173732979
H -2.1516451227 -0.7643858975 -0.2044200982
H -2.0003427745 1.0607727615 -0.3603453384
H -1.8751394465 0.2660623639 1.2922824994
H -0.4200259442 0.0393650165 0.0508550412
Cl 1.0147608030 -0.0947147831 -0.1225061118
$End

--------------------------------------------------------------

   12    -500.0479891179      9.74e-09  Convergence criterion met
 Total energy in the final basis set =     -500.0479891179
    9    -500.0479345152      3.19e-09  Convergence criterion met
 Total energy in the final basis set =     -500.0479345152
    9    -500.0478636607      7.65e-09  Convergence criterion met
 Total energy in the final basis set =     -500.0478636607
    9    -500.0477958244      8.07e-09  Convergence criterion met
 Total energy in the final basis set =     -500.0477958244
    9    -500.0477313933      7.98e-09  Convergence criterion met
 Total energy in the final basis set =     -500.0477313933
    9    -500.0476704310      7.90e-09  Convergence criterion met
 Total energy in the final basis set =     -500.0476704310
    9    -500.0476128352      7.78e-09  Convergence criterion met
 Total energy in the final basis set =     -500.0476128352
    9    -500.0475585405      7.64e-09  Convergence criterion met
    9    -500.0470895127      5.32e-09  Convergence criterion met
 Total energy in the final basis set =     -500.0470895127
    9    -500.0470818956      5.16e-09  Convergence criterion met
 Total energy in the final basis set =     -500.0470818956
    9    -500.0470764368      4.99e-09  Convergence criterion met
 Total energy in the final basis set =     -500.0470764368
    9    -500.0470730691      4.81e-09  Convergence criterion met
 Total energy in the final basis set =     -500.0470730691
    9    -500.0470717230      4.58e-09  Convergence criterion met
 Total energy in the final basis set =     -500.0470717230
    8    -500.0470716900      2.32e-09  Convergence criterion met
 Total energy in the final basis set =     -500.0470716900
 Final energy is   -500.04707168998181
 **  OPTIMIZATION CONVERGED  **
 Total job time:  174.13s(wall), 1270.11s(cpu)
        *  Thank you very much for using Q-Chem.  Have a nice day.  *

User input: 2 of 2

                  Welcome to Q-Chem
     A Quantum Leap Into The Future Of Chemistry

 Q-Chem 5.3 (devel), Q-Chem, Inc., Pleasanton, CA (2020)

 Yihan Shao,  Zhengting Gan,  E. Epifanovsky,  A. T. B. Gilbert,  M. Wormit,
 J. Kussmann,  A. W. Lange,  A. Behn,  Jia Deng,  Xintian Feng,  D. Ghosh,
 M. Goldey,  P. R. Horn,  L. D. Jacobson,  I. Kaliman,  T. Kus,  A. Landau,
 Jie Liu,  E. I. Proynov,  R. M. Richard,  R. P. Steele,  E. J. Sundstrom,
 H. L. Woodcock III,  P. M. Zimmerman,  D. Zuev,  B. Alam,  B. Albrecht,
 A. Aldossary,  E. Alguire,  S. A. Baeppler,  D. Barton,  Z. Benda,
 Y. A. Bernard,  E. J. Berquist,  K. B. Bravaya,  H. Burton,  K. Carter-Fenk,
 D. Casanova,  Chun-Min Chang,  Yunqing Chen,  A. Chien,  K. D. Closser,
 M. P. Coons,  S. Coriani,  S. Dasgupta,  A. L. Dempwolff,  M. Diedenhofen,
 Hainam Do,  R. G. Edgar,  Po-Tung Fang,  S. Faraji,  S. Fatehi,
 Qingguo Feng,  J. Fosso-Tande,  J. Gayvert,  Qinghui Ge,  A. Ghysels,
 G. Gidofalvi,  J. Gomes,  J. Gonthier,  S. Gulania,  A. Gunina,  D. Hait,
 M. W. D. Hanson-Heine,  S. Hammes-Schiffer,  P. H. P. Harbach,
 A. W. Hauser,  M. F. Herbst,  J. E. Herr,  E. G. Hohenstein,  Z. C. Holden,
 S. Houck,  Kerwin Hui,  B. C. Huynh,  M. Ivanov,  T.-C. Jagau,  Hyunjun Ji,
 B. Kaduk,  K. Khistyaev,  Jaehoon Kim,  P. Klunzinger,  K. Koh,
 D. Kosenkov,  L. Koulias,  T. Kowalczyk,  C. M. Krauter,  A. Kunitsa,
 Ka Un Lao,  A. Laurent,  K. V. Lawler,  Joonho Lee,  D. Lefrancois,
 S. Lehtola,  D. S. Levine,  Yi-Pei Li,  You-Sheng Lin,  Fenglai Liu,
 Kuan-Yu Liu,  E. Livshits,  M. Loipersberger,  A. Luenser,  P. Manohar,
 E. Mansoor,  S. F. Manzer,  Shan-Ping Mao,  Yuezhi Mao,  N. Mardirossian,
 A. V. Marenich,  T. Markovich,  L. A. Martinez-Martinez,  S. A. Maurer,
 N. J. Mayhall,  S. C. McKenzie,  J.-M. Mewes,  P. Morgante,  A. F. Morrison,
 J. W. Mullinax,  K. Nanda,  T. S. Nguyen-Beck,  R. Olivares-Amaya,
 K. J. Oosterbaan,  J. A. Parkhill,  S. K. Paul,  F. Pavosevic,  Zheng Pei,
 T. M. Perrine,  F. Plasser,  P. Pokhilko,  S. Prager,  A. Prociuk,
 E. Ramos,  B. Rana,  D. R. Rehn,  F. Rob,  E. Rossomme,  M. Scheurer,
 M. Schneider,  N. Sergueev,  S. M. Sharada,  S. Sharma,  W. Skomorowski,
 D. W. Small,  T. Stauch,  C. J. Stein,  T. Stein,  Yu-Chuan Su,
 S. P. Veccham,  Zhen Tao,  A. J. W. Thom,  A. Tkatchenko,  T. Tsuchimochi,
 N. M. Tubman,  L. Vogt,  M. L. Vidal,  O. Vydrov,  M. A. Watson,  J. Wenzel,
 M. de Wergifosse,  T. A. Wesolowski,  A. White,  J. Witte,  A. Yamada,
 Jun Yang,  K. Yao,  S. Yeganeh,  S. R. Yost,  Zhi-Qiang You,  A. Zech,
 Igor Ying Zhang,  Xing Zhang,  Yan Zhao,  Ying Zhu,  B. R. Brooks,
 G. K. L. Chan,  C. J. Cramer,  M. S. Gordon,  W. J. Hehre,  A. Klamt,
 M. W. Schmidt,  C. D. Sherrill,  D. G. Truhlar,  A. Aspuru-Guzik,  R. Baer,
 A. T. Bell,  N. A. Besley,  Jeng-Da Chai,  A. E. DePrince, III,
 R. A. DiStasio Jr.,  A. Dreuw,  B. D. Dunietz,  T. R. Furlani,
 Chao-Ping Hsu,  Yousung Jung,  Jing Kong,  D. S. Lambrecht,  WanZhen Liang,
 C. Ochsenfeld,  V. A. Rassolov,  L. V. Slipchenko,  J. E. Subotnik,
 T. Van Voorhis,  J. M. Herbert,  A. I. Krylov,  P. M. W. Gill,  M. Head-Gordon

 Contributors to earlier versions of Q-Chem not listed above:
 R. D. Adamson,  B. Austin,  J. Baker,  G. J. O. Beran,  K. Brandhorst,
 S. T. Brown,  E. F. C. Byrd,  A. K. Chakraborty,  C.-L. Cheng,
 Siu Hung Chien,  D. M. Chipman,  D. L. Crittenden,  H. Dachsel,
 R. J. Doerksen,  A. D. Dutoi,  L. Fusti-Molnar,  W. A. Goddard III,
 A. Golubeva-Zadorozhnaya,  S. R. Gwaltney,  G. Hawkins,  A. Heyden,
 S. Hirata,  G. Kedziora,  F. J. Keil,  C. Kelley,  Jihan Kim,  R. A. King,
 R. Z. Khaliullin,  P. P. Korambath,  W. Kurlancheek,  A. M. Lee,  M. S. Lee,
 S. V. Levchenko,  Ching Yeh Lin,  D. Liotard,  R. C. Lochan,  I. Lotan,
 P. E. Maslen,  N. Nair,  D. P. O'Neill,  D. Neuhauser,  E. Neuscamman,
 C. M. Oana,  R. Olson,  B. Peters,  R. Peverati,  P. A. Pieniazek,
 Y. M. Rhee,  J. Ritchie,  M. A. Rohrdanz,  E. Rosta,  N. J. Russ,
 H. F. Schaefer III,  N. E. Schultz,  N. Shenvi,  A. C. Simmonett,  A. Sodt,
 D. Stuck,  K. S. Thanthiriwatte,  V. Vanovschi,  Tao Wang,  A. Warshel,
 C. F. Williams,  Q. Wu,  X. Xu,  W. Zhang

 Please cite Q-Chem as follows:
 Y. Shao et al., Mol. Phys. 113, 184-215 (2015)
 DOI: 10.1080/00268976.2014.952696

 Q-Chem 5.3.1 for Intel X86 EM64T Linux

 Parts of Q-Chem use Armadillo 9.800.1 (Horizon Scraper).
 http://arma.sourceforge.net/

 Q-Chem begins on Fri Oct 30 09:37:51 2020

Host:
0

     Scratch files written to /data/scratch/MN_84_RKT08_BH76_PBEh_3c//
Processing $rem in /home/pierpa/qchem53/config/preferences:
Processing $rem in /home/pierpa/.qchemrc:
The previous job contains 0 fragments, simply inherited here

Checking the input file for inconsistencies... 	...done.

--------------------------------------------------------------
User input:
--------------------------------------------------------------

$Comment
Geometry optimizations for CLB18.
$End

$Rem
SYMMETRY              False
SYM_IGNORE            True
JOBTYPE               Freq
METHOD                PBEh-3c
BASIS                 def2-mSVP
GEOM_OPT_MAX_CYCLES   150
GEOM_OPT_DMAX         10
MAX_SCF_CYCLES        50
SCF_ALGORITHM         DIIS
SCF_PRINT             1
SCF_FINAL_PRINT       1
XC_GRID               000099000590
MEM_TOTAL             20000
MEM_STATIC            4000
BLAS3_DFT             True
New_DFT               True
$End

$Molecule
Read
$End

--------------------------------------------------------------

             Standard Nuclear Orientation (Angstroms)
    I     Atom           X                Y                Z
 ----------------------------------------------------------------
    1      C      -1.8449121727     0.1721695897     0.2227013798
    2      H      -2.1717012898    -0.7657270163    -0.2035466060
    3      H      -2.0196829994     1.0654940056    -0.3600127373
    4      H      -1.8940034652     0.2681335386     1.2981132480
    5      H      -0.3387680795     0.0316373674     0.0409511279
    6      Cl      1.0360548102    -0.0965498084    -0.1249671222
 ----------------------------------------------------------------

   13    -500.0470716914      2.24e-09  Convergence criterion met
 Total energy in the final basis set =     -500.0470716914

                    Orbital Energies (a.u.)
 --------------------------------------------------------------

 Alpha MOs
 -- Occupied --
******** -10.4894  -9.7412  -7.4324  -7.4197  -7.4197  -0.9035  -0.8162
 -0.5233  -0.5129  -0.5129  -0.3532  -0.3532  -0.3195

 Beta MOs
 -- Occupied --
******** -10.4756  -9.7385  -7.4228  -7.4181  -7.4181  -0.8821  -0.7737
 -0.5024  -0.5024  -0.4815  -0.3476  -0.3476

          Ground-State Mulliken Net Atomic Charges

     Atom                 Charge (a.u.)    Spin (a.u.)
  --------------------------------------------------------
      1 C                    -0.750219       0.875729
      2 H                     0.266747      -0.034263
      3 H                     0.266749      -0.034263
      4 H                     0.266748      -0.034263
      5 H                     0.249414      -0.072219
      6 Cl                   -0.299440       0.299279
  --------------------------------------------------------
  Sum of atomic charges =    -0.000000

                    Cartesian Multipole Moments
 -----------------------------------------------------------------
    Charge (ESU x 10^10)
                -0.0000
    Dipole Moment (Debye)
         X      -2.8570      Y       0.2665      Z       0.3448
       Tot       2.8901
    Quadrupole Moments (Debye-Ang)
        XX     -19.0004     XY      -0.1404     YY     -20.4910
        XZ      -0.1816     YZ       0.0170     ZZ     -20.4821

 Frequency:      -547.28                 290.69                 297.98
 Force Cnst:      0.4791                 0.0513                 0.0539
 Red. Mass:       2.7152                 1.0297                 1.0300
 IR Intens:       27.199                  3.865                  3.677
 Frequency:       728.40                 814.18                 819.26
 Force Cnst:      0.3830                 0.4112                 0.4161
 Red. Mass:       1.2251                 1.0527                 1.0523
 IR Intens:       63.646                 27.636                 27.797
 Frequency:      1307.25                1453.63                1454.22
 Force Cnst:      1.2594                 1.3573                 1.3582
 Red. Mass:       1.2508                 1.0902                 1.0901
 IR Intens:       34.726                  7.045                  6.985
 Frequency:      3182.61                3358.36                3358.69
 Force Cnst:      6.0468                 7.4141                 7.4147
 Red. Mass:       1.0132                 1.1157                 1.1156
 IR Intens:        1.521                  0.001                  0.000

 STANDARD THERMODYNAMIC QUANTITIES AT   298.15 K  AND     1.00 ATM

   This Molecule has  1 Imaginary Frequencies
   Zero point vibrational energy:       24.396 kcal/mol

   Atom    1 Element C  Has Mass   12.00000
   Atom    2 Element H  Has Mass    1.00783
   Atom    3 Element H  Has Mass    1.00783
   Atom    4 Element H  Has Mass    1.00783
   Atom    5 Element H  Has Mass    1.00783
   Atom    6 Element Cl Has Mass   34.96885
   Molecular Mass:    51.000170 amu
   Principal axes and moments of inertia in amu*Bohr^2:
                             1           2           3
    Eigenvalues --       12.24015   334.25892   334.25893
          X               0.98857     0.15076    -0.00254
          Y              -0.09221     0.61777     0.78093
          Z              -0.11930     0.77177    -0.62461
   Rotational Symmetry Number is   1
   The Molecule is an Asymmetric Top
   Translational Enthalpy:        0.889 kcal/mol
   Rotational Enthalpy:           0.889 kcal/mol
   Vibrational Enthalpy:         25.103 kcal/mol
   gas constant (RT):             0.592 kcal/mol
   Translational Entropy:        37.711  cal/mol.K
   Rotational Entropy:           21.841  cal/mol.K
   Vibrational Entropy:           3.616  cal/mol.K

   Total Enthalpy:               27.473 kcal/mol
   Total Entropy:                63.167  cal/mol.K

 Total job time:  47.42s(wall), 370.33s(cpu)
        *  Thank you very much for using Q-Chem.  Have a nice day.  *
