 Q-Chem 5.3 (devel), Q-Chem, Inc., Pleasanton, CA (2020)
 Q-Chem 5.3.1 for Intel X86 EM64T Linux

User input:
--------------------------------------------------------------
$Comment
Geometry optimizations for CLB18.
$End

$Rem
SYMMETRY              False
SYM_IGNORE            True
JOBTYPE               TS
METHOD                PBEh-3c
BASIS                 def2-mSVP
GEOM_OPT_MAX_CYCLES   150
GEOM_OPT_DMAX         10
MAX_SCF_CYCLES        50
SCF_ALGORITHM         DIIS
SCF_PRINT             1
SCF_FINAL_PRINT       1
XC_GRID               000099000590
MEM_TOTAL             20000
MEM_STATIC            4000
BLAS3_DFT             True
New_DFT               True
$End

$Molecule
0 2
P 0.2174288616 0.0000880001 -0.1112489250
H 0.2466103388 1.0346684496 0.8521658132
H 0.2626613420 -1.0250585915 0.8616222099
H -1.2664163173 -0.0109520103 -0.1506260596
H -2.5042888159 0.0000290000 0.1055750870
$End

--------------------------------------------------------------

   13    -343.2274295255      3.80e-09  Convergence criterion met
 Total energy in the final basis set =     -343.2274295255
    9    -343.2273981757      5.61e-09  Convergence criterion met
 Total energy in the final basis set =     -343.2273981757
    9    -343.2273650550      7.51e-09  Convergence criterion met
 Total energy in the final basis set =     -343.2273650550
    9    -343.2273334492      7.92e-09  Convergence criterion met
 Total energy in the final basis set =     -343.2273334492
    9    -343.2273035846      7.74e-09  Convergence criterion met
 Total energy in the final basis set =     -343.2273035846
    9    -343.2272754341      7.56e-09  Convergence criterion met
 Total energy in the final basis set =     -343.2272754341
    9    -343.2272489553      7.37e-09  Convergence criterion met
 Total energy in the final basis set =     -343.2272489553
    9    -343.2272241007      7.17e-09  Convergence criterion met
    9    -343.2270053855      4.10e-09  Convergence criterion met
 Total energy in the final basis set =     -343.2270053855
    9    -343.2270020582      4.02e-09  Convergence criterion met
 Total energy in the final basis set =     -343.2270020582
    9    -343.2269995405      3.97e-09  Convergence criterion met
 Total energy in the final basis set =     -343.2269995405
    9    -343.2269977958      4.00e-09  Convergence criterion met
 Total energy in the final basis set =     -343.2269977958
    9    -343.2269967887      4.14e-09  Convergence criterion met
 Total energy in the final basis set =     -343.2269967887
    9    -343.2269964538      4.24e-09  Convergence criterion met
 Total energy in the final basis set =     -343.2269964538
 Final energy is   -343.22699645384006
 **  OPTIMIZATION CONVERGED  **
 Total job time:  127.85s(wall), 878.20s(cpu)
        *  Thank you very much for using Q-Chem.  Have a nice day.  *

User input: 2 of 2

                  Welcome to Q-Chem
     A Quantum Leap Into The Future Of Chemistry

 Q-Chem 5.3 (devel), Q-Chem, Inc., Pleasanton, CA (2020)

 Yihan Shao,  Zhengting Gan,  E. Epifanovsky,  A. T. B. Gilbert,  M. Wormit,
 J. Kussmann,  A. W. Lange,  A. Behn,  Jia Deng,  Xintian Feng,  D. Ghosh,
 M. Goldey,  P. R. Horn,  L. D. Jacobson,  I. Kaliman,  T. Kus,  A. Landau,
 Jie Liu,  E. I. Proynov,  R. M. Richard,  R. P. Steele,  E. J. Sundstrom,
 H. L. Woodcock III,  P. M. Zimmerman,  D. Zuev,  B. Alam,  B. Albrecht,
 A. Aldossary,  E. Alguire,  S. A. Baeppler,  D. Barton,  Z. Benda,
 Y. A. Bernard,  E. J. Berquist,  K. B. Bravaya,  H. Burton,  K. Carter-Fenk,
 D. Casanova,  Chun-Min Chang,  Yunqing Chen,  A. Chien,  K. D. Closser,
 M. P. Coons,  S. Coriani,  S. Dasgupta,  A. L. Dempwolff,  M. Diedenhofen,
 Hainam Do,  R. G. Edgar,  Po-Tung Fang,  S. Faraji,  S. Fatehi,
 Qingguo Feng,  J. Fosso-Tande,  J. Gayvert,  Qinghui Ge,  A. Ghysels,
 G. Gidofalvi,  J. Gomes,  J. Gonthier,  S. Gulania,  A. Gunina,  D. Hait,
 M. W. D. Hanson-Heine,  S. Hammes-Schiffer,  P. H. P. Harbach,
 A. W. Hauser,  M. F. Herbst,  J. E. Herr,  E. G. Hohenstein,  Z. C. Holden,
 S. Houck,  Kerwin Hui,  B. C. Huynh,  M. Ivanov,  T.-C. Jagau,  Hyunjun Ji,
 B. Kaduk,  K. Khistyaev,  Jaehoon Kim,  P. Klunzinger,  K. Koh,
 D. Kosenkov,  L. Koulias,  T. Kowalczyk,  C. M. Krauter,  A. Kunitsa,
 Ka Un Lao,  A. Laurent,  K. V. Lawler,  Joonho Lee,  D. Lefrancois,
 S. Lehtola,  D. S. Levine,  Yi-Pei Li,  You-Sheng Lin,  Fenglai Liu,
 Kuan-Yu Liu,  E. Livshits,  M. Loipersberger,  A. Luenser,  P. Manohar,
 E. Mansoor,  S. F. Manzer,  Shan-Ping Mao,  Yuezhi Mao,  N. Mardirossian,
 A. V. Marenich,  T. Markovich,  L. A. Martinez-Martinez,  S. A. Maurer,
 N. J. Mayhall,  S. C. McKenzie,  J.-M. Mewes,  P. Morgante,  A. F. Morrison,
 J. W. Mullinax,  K. Nanda,  T. S. Nguyen-Beck,  R. Olivares-Amaya,
 K. J. Oosterbaan,  J. A. Parkhill,  S. K. Paul,  F. Pavosevic,  Zheng Pei,
 T. M. Perrine,  F. Plasser,  P. Pokhilko,  S. Prager,  A. Prociuk,
 E. Ramos,  B. Rana,  D. R. Rehn,  F. Rob,  E. Rossomme,  M. Scheurer,
 M. Schneider,  N. Sergueev,  S. M. Sharada,  S. Sharma,  W. Skomorowski,
 D. W. Small,  T. Stauch,  C. J. Stein,  T. Stein,  Yu-Chuan Su,
 S. P. Veccham,  Zhen Tao,  A. J. W. Thom,  A. Tkatchenko,  T. Tsuchimochi,
 N. M. Tubman,  L. Vogt,  M. L. Vidal,  O. Vydrov,  M. A. Watson,  J. Wenzel,
 M. de Wergifosse,  T. A. Wesolowski,  A. White,  J. Witte,  A. Yamada,
 Jun Yang,  K. Yao,  S. Yeganeh,  S. R. Yost,  Zhi-Qiang You,  A. Zech,
 Igor Ying Zhang,  Xing Zhang,  Yan Zhao,  Ying Zhu,  B. R. Brooks,
 G. K. L. Chan,  C. J. Cramer,  M. S. Gordon,  W. J. Hehre,  A. Klamt,
 M. W. Schmidt,  C. D. Sherrill,  D. G. Truhlar,  A. Aspuru-Guzik,  R. Baer,
 A. T. Bell,  N. A. Besley,  Jeng-Da Chai,  A. E. DePrince, III,
 R. A. DiStasio Jr.,  A. Dreuw,  B. D. Dunietz,  T. R. Furlani,
 Chao-Ping Hsu,  Yousung Jung,  Jing Kong,  D. S. Lambrecht,  WanZhen Liang,
 C. Ochsenfeld,  V. A. Rassolov,  L. V. Slipchenko,  J. E. Subotnik,
 T. Van Voorhis,  J. M. Herbert,  A. I. Krylov,  P. M. W. Gill,  M. Head-Gordon

 Contributors to earlier versions of Q-Chem not listed above:
 R. D. Adamson,  B. Austin,  J. Baker,  G. J. O. Beran,  K. Brandhorst,
 S. T. Brown,  E. F. C. Byrd,  A. K. Chakraborty,  C.-L. Cheng,
 Siu Hung Chien,  D. M. Chipman,  D. L. Crittenden,  H. Dachsel,
 R. J. Doerksen,  A. D. Dutoi,  L. Fusti-Molnar,  W. A. Goddard III,
 A. Golubeva-Zadorozhnaya,  S. R. Gwaltney,  G. Hawkins,  A. Heyden,
 S. Hirata,  G. Kedziora,  F. J. Keil,  C. Kelley,  Jihan Kim,  R. A. King,
 R. Z. Khaliullin,  P. P. Korambath,  W. Kurlancheek,  A. M. Lee,  M. S. Lee,
 S. V. Levchenko,  Ching Yeh Lin,  D. Liotard,  R. C. Lochan,  I. Lotan,
 P. E. Maslen,  N. Nair,  D. P. O'Neill,  D. Neuhauser,  E. Neuscamman,
 C. M. Oana,  R. Olson,  B. Peters,  R. Peverati,  P. A. Pieniazek,
 Y. M. Rhee,  J. Ritchie,  M. A. Rohrdanz,  E. Rosta,  N. J. Russ,
 H. F. Schaefer III,  N. E. Schultz,  N. Shenvi,  A. C. Simmonett,  A. Sodt,
 D. Stuck,  K. S. Thanthiriwatte,  V. Vanovschi,  Tao Wang,  A. Warshel,
 C. F. Williams,  Q. Wu,  X. Xu,  W. Zhang

 Please cite Q-Chem as follows:
 Y. Shao et al., Mol. Phys. 113, 184-215 (2015)
 DOI: 10.1080/00268976.2014.952696

 Q-Chem 5.3.1 for Intel X86 EM64T Linux

 Parts of Q-Chem use Armadillo 9.800.1 (Horizon Scraper).
 http://arma.sourceforge.net/

 Q-Chem begins on Fri Oct 30 09:45:46 2020

Host:
0

     Scratch files written to /data/scratch/MN_88_RKT12_BH76_PBEh_3c//
Processing $rem in /home/pierpa/qchem53/config/preferences:
Processing $rem in /home/pierpa/.qchemrc:
The previous job contains 0 fragments, simply inherited here

Checking the input file for inconsistencies... 	...done.

--------------------------------------------------------------
User input:
--------------------------------------------------------------

$Comment
Geometry optimizations for CLB18.
$End

$Rem
SYMMETRY              False
SYM_IGNORE            True
JOBTYPE               Freq
METHOD                PBEh-3c
BASIS                 def2-mSVP
GEOM_OPT_MAX_CYCLES   150
GEOM_OPT_DMAX         10
MAX_SCF_CYCLES        50
SCF_ALGORITHM         DIIS
SCF_PRINT             1
SCF_FINAL_PRINT       1
XC_GRID               000099000590
MEM_TOTAL             20000
MEM_STATIC            4000
BLAS3_DFT             True
New_DFT               True
$End

$Molecule
Read
$End

--------------------------------------------------------------

             Standard Nuclear Orientation (Angstroms)
    I     Atom           X                Y                Z
 ----------------------------------------------------------------
    1      P       0.2367251430     0.0000078990    -0.1120677769
    2      H       0.2700667420     1.0315729766     0.8544021378
    3      H       0.2788403155    -1.0215021949     0.8646916765
    4      H      -1.2196127261    -0.0062924803    -0.1502541266
    5      H      -2.6100240652    -0.0050113525     0.1007162147
 ----------------------------------------------------------------

   13    -343.2269964552      3.81e-09  Convergence criterion met
 Total energy in the final basis set =     -343.2269964552

                    Orbital Energies (a.u.)
 --------------------------------------------------------------

 Alpha MOs
 -- Occupied --
-77.7326  -6.8136  -4.9056  -4.9038  -4.9007  -0.7271  -0.4763  -0.4400
 -0.3503  -0.2984

 Beta MOs
 -- Occupied --
-77.7313  -6.8122  -4.9030  -4.9018  -4.8986  -0.7171  -0.4445  -0.4386
 -0.3231

          Ground-State Mulliken Net Atomic Charges

     Atom                 Charge (a.u.)    Spin (a.u.)
  --------------------------------------------------------
      1 P                    -0.201029       0.228608
      2 H                     0.092558      -0.006860
      3 H                     0.092540      -0.006856
      4 H                     0.020005      -0.095236
      5 H                    -0.004073       0.880344
  --------------------------------------------------------
  Sum of atomic charges =    -0.000000

                    Cartesian Multipole Moments
 -----------------------------------------------------------------
    Charge (ESU x 10^10)
                -0.0000
    Dipole Moment (Debye)
         X      -0.2734      Y       0.0028      Z       0.8468
       Tot       0.8898
    Quadrupole Moments (Debye-Ang)
        XX     -17.4510     XY      -0.0008     YY     -15.7587
        XZ       1.0719     YZ      -0.0033     ZZ     -17.2471

 Frequency:      -572.44                 317.37                 326.87
 Force Cnst:      0.1971                 0.0605                 0.0634
 Red. Mass:       1.0210                 1.0197                 1.0079
 IR Intens:       54.147                  3.466                  3.073
 Frequency:      1047.93                1178.52                1187.11
 Force Cnst:      0.6986                 0.8383                 0.8532
 Red. Mass:       1.0798                 1.0244                 1.0276
 IR Intens:       10.283                 13.676                  8.125
 Frequency:      1860.48                2497.21                2503.12
 Force Cnst:      2.1364                 3.8039                 3.8423
 Red. Mass:       1.0476                 1.0353                 1.0408
 IR Intens:       71.204                 42.290                 74.663

 STANDARD THERMODYNAMIC QUANTITIES AT   298.15 K  AND     1.00 ATM

   This Molecule has  1 Imaginary Frequencies
   Zero point vibrational energy:       15.609 kcal/mol

   Atom    1 Element P  Has Mass   30.97376
   Atom    2 Element H  Has Mass    1.00783
   Atom    3 Element H  Has Mass    1.00783
   Atom    4 Element H  Has Mass    1.00783
   Atom    5 Element H  Has Mass    1.00783
   Molecular Mass:    35.005080 amu
   Principal axes and moments of inertia in amu*Bohr^2:
                             1           2           3
    Eigenvalues --       14.06251    41.45704    42.56550
          X               0.99962    -0.00204     0.02766
          Y               0.00193     0.99999     0.00369
          Z              -0.02766    -0.00364     0.99961
   Rotational Symmetry Number is   1
   The Molecule is an Asymmetric Top
   Translational Enthalpy:        0.889 kcal/mol
   Rotational Enthalpy:           0.889 kcal/mol
   Vibrational Enthalpy:         16.145 kcal/mol
   gas constant (RT):             0.592 kcal/mol
   Translational Entropy:        36.589  cal/mol.K
   Rotational Entropy:           17.857  cal/mol.K
   Vibrational Entropy:           2.768  cal/mol.K

   Total Enthalpy:               18.515 kcal/mol
   Total Entropy:                57.214  cal/mol.K

 Total job time:  24.40s(wall), 186.76s(cpu)
        *  Thank you very much for using Q-Chem.  Have a nice day.  *
