 Q-Chem 5.3 (devel), Q-Chem, Inc., Pleasanton, CA (2020)
 Q-Chem 5.3.1 for Intel X86 EM64T Linux

User input:
--------------------------------------------------------------
$Comment
Geometry optimizations for CLB18.
$End

$Rem
SYMMETRY              False
SYM_IGNORE            True
JOBTYPE               TS
METHOD                PBEh-3c
BASIS                 def2-mSVP
GEOM_OPT_MAX_CYCLES   150
GEOM_OPT_DMAX         10
MAX_SCF_CYCLES        50
SCF_ALGORITHM         DIIS
SCF_PRINT             1
SCF_FINAL_PRINT       1
XC_GRID               000099000590
MEM_TOTAL             20000
MEM_STATIC            4000
BLAS3_DFT             True
New_DFT               True
$End

$Molecule
0 2
N -1.1508175556 -0.0439320275 -0.1025587769
O 1.1791867459 -0.0926959720 -0.0102900096
H -1.3031835499 -0.5476402037 0.7665713993
H -1.3389135952 0.9358075631 0.0918540511
H -0.0306869865 -0.1538339319 -0.3531839832
H 1.2950077620 0.8147529844 0.2949908945
$End

--------------------------------------------------------------

   17    -131.9942924131      7.73e-09  Convergence criterion met
 Total energy in the final basis set =     -131.9942924131
   13    -131.9942848294      4.33e-09  Convergence criterion met
 Total energy in the final basis set =     -131.9942848294
   12    -131.9942844693      9.87e-09  Convergence criterion met
 Total energy in the final basis set =     -131.9942844693
   13    -131.9942808316      2.93e-09  Convergence criterion met
 Total energy in the final basis set =     -131.9942808316
   13    -131.9942777388      2.65e-09  Convergence criterion met
 Total energy in the final basis set =     -131.9942777388
   13    -131.9942746290      2.53e-09  Convergence criterion met
 Total energy in the final basis set =     -131.9942746290
   12    -131.9942716731      9.17e-09  Convergence criterion met
 Total energy in the final basis set =     -131.9942716731
   12    -131.9942692356      7.45e-09  Convergence criterion met
   13    -131.9944504064      3.15e-09  Convergence criterion met
 Total energy in the final basis set =     -131.9944504064
   13    -131.9944529858      3.13e-09  Convergence criterion met
 Total energy in the final basis set =     -131.9944529858
   13    -131.9944551583      3.05e-09  Convergence criterion met
 Total energy in the final basis set =     -131.9944551583
   13    -131.9944568094      3.03e-09  Convergence criterion met
 Total energy in the final basis set =     -131.9944568094
   13    -131.9944579898      3.02e-09  Convergence criterion met
 Total energy in the final basis set =     -131.9944579898
   13    -131.9944584523      2.99e-09  Convergence criterion met
 Total energy in the final basis set =     -131.9944584523
 Final energy is   -131.99445845227768
 **  OPTIMIZATION CONVERGED  **
 Total job time:  281.26s(wall), 2045.26s(cpu)
        *  Thank you very much for using Q-Chem.  Have a nice day.  *

User input: 2 of 2

                  Welcome to Q-Chem
     A Quantum Leap Into The Future Of Chemistry

 Q-Chem 5.3 (devel), Q-Chem, Inc., Pleasanton, CA (2020)

 Yihan Shao,  Zhengting Gan,  E. Epifanovsky,  A. T. B. Gilbert,  M. Wormit,
 J. Kussmann,  A. W. Lange,  A. Behn,  Jia Deng,  Xintian Feng,  D. Ghosh,
 M. Goldey,  P. R. Horn,  L. D. Jacobson,  I. Kaliman,  T. Kus,  A. Landau,
 Jie Liu,  E. I. Proynov,  R. M. Richard,  R. P. Steele,  E. J. Sundstrom,
 H. L. Woodcock III,  P. M. Zimmerman,  D. Zuev,  B. Alam,  B. Albrecht,
 A. Aldossary,  E. Alguire,  S. A. Baeppler,  D. Barton,  Z. Benda,
 Y. A. Bernard,  E. J. Berquist,  K. B. Bravaya,  H. Burton,  K. Carter-Fenk,
 D. Casanova,  Chun-Min Chang,  Yunqing Chen,  A. Chien,  K. D. Closser,
 M. P. Coons,  S. Coriani,  S. Dasgupta,  A. L. Dempwolff,  M. Diedenhofen,
 Hainam Do,  R. G. Edgar,  Po-Tung Fang,  S. Faraji,  S. Fatehi,
 Qingguo Feng,  J. Fosso-Tande,  J. Gayvert,  Qinghui Ge,  A. Ghysels,
 G. Gidofalvi,  J. Gomes,  J. Gonthier,  S. Gulania,  A. Gunina,  D. Hait,
 M. W. D. Hanson-Heine,  S. Hammes-Schiffer,  P. H. P. Harbach,
 A. W. Hauser,  M. F. Herbst,  J. E. Herr,  E. G. Hohenstein,  Z. C. Holden,
 S. Houck,  Kerwin Hui,  B. C. Huynh,  M. Ivanov,  T.-C. Jagau,  Hyunjun Ji,
 B. Kaduk,  K. Khistyaev,  Jaehoon Kim,  P. Klunzinger,  K. Koh,
 D. Kosenkov,  L. Koulias,  T. Kowalczyk,  C. M. Krauter,  A. Kunitsa,
 Ka Un Lao,  A. Laurent,  K. V. Lawler,  Joonho Lee,  D. Lefrancois,
 S. Lehtola,  D. S. Levine,  Yi-Pei Li,  You-Sheng Lin,  Fenglai Liu,
 Kuan-Yu Liu,  E. Livshits,  M. Loipersberger,  A. Luenser,  P. Manohar,
 E. Mansoor,  S. F. Manzer,  Shan-Ping Mao,  Yuezhi Mao,  N. Mardirossian,
 A. V. Marenich,  T. Markovich,  L. A. Martinez-Martinez,  S. A. Maurer,
 N. J. Mayhall,  S. C. McKenzie,  J.-M. Mewes,  P. Morgante,  A. F. Morrison,
 J. W. Mullinax,  K. Nanda,  T. S. Nguyen-Beck,  R. Olivares-Amaya,
 K. J. Oosterbaan,  J. A. Parkhill,  S. K. Paul,  F. Pavosevic,  Zheng Pei,
 T. M. Perrine,  F. Plasser,  P. Pokhilko,  S. Prager,  A. Prociuk,
 E. Ramos,  B. Rana,  D. R. Rehn,  F. Rob,  E. Rossomme,  M. Scheurer,
 M. Schneider,  N. Sergueev,  S. M. Sharada,  S. Sharma,  W. Skomorowski,
 D. W. Small,  T. Stauch,  C. J. Stein,  T. Stein,  Yu-Chuan Su,
 S. P. Veccham,  Zhen Tao,  A. J. W. Thom,  A. Tkatchenko,  T. Tsuchimochi,
 N. M. Tubman,  L. Vogt,  M. L. Vidal,  O. Vydrov,  M. A. Watson,  J. Wenzel,
 M. de Wergifosse,  T. A. Wesolowski,  A. White,  J. Witte,  A. Yamada,
 Jun Yang,  K. Yao,  S. Yeganeh,  S. R. Yost,  Zhi-Qiang You,  A. Zech,
 Igor Ying Zhang,  Xing Zhang,  Yan Zhao,  Ying Zhu,  B. R. Brooks,
 G. K. L. Chan,  C. J. Cramer,  M. S. Gordon,  W. J. Hehre,  A. Klamt,
 M. W. Schmidt,  C. D. Sherrill,  D. G. Truhlar,  A. Aspuru-Guzik,  R. Baer,
 A. T. Bell,  N. A. Besley,  Jeng-Da Chai,  A. E. DePrince, III,
 R. A. DiStasio Jr.,  A. Dreuw,  B. D. Dunietz,  T. R. Furlani,
 Chao-Ping Hsu,  Yousung Jung,  Jing Kong,  D. S. Lambrecht,  WanZhen Liang,
 C. Ochsenfeld,  V. A. Rassolov,  L. V. Slipchenko,  J. E. Subotnik,
 T. Van Voorhis,  J. M. Herbert,  A. I. Krylov,  P. M. W. Gill,  M. Head-Gordon

 Contributors to earlier versions of Q-Chem not listed above:
 R. D. Adamson,  B. Austin,  J. Baker,  G. J. O. Beran,  K. Brandhorst,
 S. T. Brown,  E. F. C. Byrd,  A. K. Chakraborty,  C.-L. Cheng,
 Siu Hung Chien,  D. M. Chipman,  D. L. Crittenden,  H. Dachsel,
 R. J. Doerksen,  A. D. Dutoi,  L. Fusti-Molnar,  W. A. Goddard III,
 A. Golubeva-Zadorozhnaya,  S. R. Gwaltney,  G. Hawkins,  A. Heyden,
 S. Hirata,  G. Kedziora,  F. J. Keil,  C. Kelley,  Jihan Kim,  R. A. King,
 R. Z. Khaliullin,  P. P. Korambath,  W. Kurlancheek,  A. M. Lee,  M. S. Lee,
 S. V. Levchenko,  Ching Yeh Lin,  D. Liotard,  R. C. Lochan,  I. Lotan,
 P. E. Maslen,  N. Nair,  D. P. O'Neill,  D. Neuhauser,  E. Neuscamman,
 C. M. Oana,  R. Olson,  B. Peters,  R. Peverati,  P. A. Pieniazek,
 Y. M. Rhee,  J. Ritchie,  M. A. Rohrdanz,  E. Rosta,  N. J. Russ,
 H. F. Schaefer III,  N. E. Schultz,  N. Shenvi,  A. C. Simmonett,  A. Sodt,
 D. Stuck,  K. S. Thanthiriwatte,  V. Vanovschi,  Tao Wang,  A. Warshel,
 C. F. Williams,  Q. Wu,  X. Xu,  W. Zhang

 Please cite Q-Chem as follows:
 Y. Shao et al., Mol. Phys. 113, 184-215 (2015)
 DOI: 10.1080/00268976.2014.952696

 Q-Chem 5.3.1 for Intel X86 EM64T Linux

 Parts of Q-Chem use Armadillo 9.800.1 (Horizon Scraper).
 http://arma.sourceforge.net/

 Q-Chem begins on Fri Oct 30 09:35:05 2020

Host:
0

     Scratch files written to /data/scratch/MN_83_RKT07_BH76_PBEh_3c//
Processing $rem in /home/pierpa/qchem53/config/preferences:
Processing $rem in /home/pierpa/.qchemrc:
The previous job contains 0 fragments, simply inherited here

Checking the input file for inconsistencies... 	...done.

--------------------------------------------------------------
User input:
--------------------------------------------------------------

$Comment
Geometry optimizations for CLB18.
$End

$Rem
SYMMETRY              False
SYM_IGNORE            True
JOBTYPE               Freq
METHOD                PBEh-3c
BASIS                 def2-mSVP
GEOM_OPT_MAX_CYCLES   150
GEOM_OPT_DMAX         10
MAX_SCF_CYCLES        50
SCF_ALGORITHM         DIIS
SCF_PRINT             1
SCF_FINAL_PRINT       1
XC_GRID               000099000590
MEM_TOTAL             20000
MEM_STATIC            4000
BLAS3_DFT             True
New_DFT               True
$End

$Molecule
Read
$End

--------------------------------------------------------------

             Standard Nuclear Orientation (Angstroms)
    I     Atom           X                Y                Z
 ----------------------------------------------------------------
    1      N      -1.1428853704    -0.0333271777    -0.1052714167
    2      O       1.1691068962    -0.0938375496     0.0411391475
    3      H      -1.3407794859    -0.5727336237     0.7317122072
    4      H      -1.3314024067     0.9369976642     0.1267808623
    5      H      -0.0275897904    -0.1650149519    -0.3371963371
    6      H       1.3241429778     0.8403740511     0.2302191120
 ----------------------------------------------------------------

   17    -131.9944584527      7.01e-09  Convergence criterion met
 Total energy in the final basis set =     -131.9944584527

                    Orbital Energies (a.u.)
 --------------------------------------------------------------

 Alpha MOs
 -- Occupied --
-19.5011 -14.6540  -1.0970  -0.9677  -0.5939  -0.5509  -0.4855  -0.4028
 -0.3637  -0.3446

 Beta MOs
 -- Occupied --
-19.4833 -14.6411  -1.0475  -0.9283  -0.5592  -0.5394  -0.4558  -0.3449
 -0.3221

          Ground-State Mulliken Net Atomic Charges

     Atom                 Charge (a.u.)    Spin (a.u.)
  --------------------------------------------------------
      1 N                    -0.838338       0.551911
      2 O                    -0.667571       0.577104
      3 H                     0.345342      -0.021710
      4 H                     0.330140      -0.022250
      5 H                     0.429891      -0.065233
      6 H                     0.400535      -0.019822
  --------------------------------------------------------
  Sum of atomic charges =    -0.000000

                    Cartesian Multipole Moments
 -----------------------------------------------------------------
    Charge (ESU x 10^10)
                -0.0000
    Dipole Moment (Debye)
         X      -1.0384      Y       2.1610      Z       1.5565
       Tot       2.8585
    Quadrupole Moments (Debye-Ang)
        XX     -13.9233     XY       1.4602     YY     -10.5847
        XZ      -2.1000     YZ      -0.1201     ZZ     -13.7182

 Frequency:     -1594.60                 138.35                 426.19
 Force Cnst:      1.5765                 0.0121                 0.2128
 Red. Mass:       1.0523                 1.0700                 1.9880
 IR Intens:     2216.412                 76.101                 16.861
 Frequency:       529.24                 850.52                 909.26
 Force Cnst:      0.1697                 0.7080                 0.5588
 Red. Mass:       1.0280                 1.6611                 1.1471
 IR Intens:       41.869                 64.150                188.027
 Frequency:      1506.76                1643.42                1732.33
 Force Cnst:      1.5160                 1.7309                 1.8101
 Red. Mass:       1.1333                 1.0878                 1.0238
 IR Intens:      316.854                 81.172                 69.899
 Frequency:      3561.47                3668.49                3875.83
 Force Cnst:      7.8506                 8.6567                 9.4413
 Red. Mass:       1.0505                 1.0918                 1.0667
 IR Intens:       11.756                  5.815                 50.664

 STANDARD THERMODYNAMIC QUANTITIES AT   298.15 K  AND     1.00 ATM

   This Molecule has  1 Imaginary Frequencies
   Zero point vibrational energy:       26.936 kcal/mol

   Atom    1 Element N  Has Mass   14.00307
   Atom    2 Element O  Has Mass   15.99491
   Atom    3 Element H  Has Mass    1.00783
   Atom    4 Element H  Has Mass    1.00783
   Atom    5 Element H  Has Mass    1.00783
   Atom    6 Element H  Has Mass    1.00783
   Molecular Mass:    34.029300 amu
   Principal axes and moments of inertia in amu*Bohr^2:
                             1           2           3
    Eigenvalues --       10.45212   165.62406   170.03503
          X               0.99927     0.01388    -0.03567
          Y              -0.01255     0.99922     0.03734
          Z               0.03616    -0.03686     0.99867
   Rotational Symmetry Number is   1
   The Molecule is an Asymmetric Top
   Translational Enthalpy:        0.889 kcal/mol
   Rotational Enthalpy:           0.889 kcal/mol
   Vibrational Enthalpy:         27.738 kcal/mol
   gas constant (RT):             0.592 kcal/mol
   Translational Entropy:        36.505  cal/mol.K
   Rotational Entropy:           20.315  cal/mol.K
   Vibrational Entropy:           4.613  cal/mol.K

   Total Enthalpy:               30.108 kcal/mol
   Total Entropy:                61.433  cal/mol.K

 Total job time:  52.68s(wall), 411.05s(cpu)
        *  Thank you very much for using Q-Chem.  Have a nice day.  *
