 Q-Chem 5.3 (devel), Q-Chem, Inc., Pleasanton, CA (2020)
 Q-Chem 5.3.1 for Intel X86 EM64T Linux

User input:
--------------------------------------------------------------
$Comment
Geometry optimizations for CLB18.
$End

$Rem
SYMMETRY              False
SYM_IGNORE            True
JOBTYPE               TS
METHOD                PBEh-3c
BASIS                 def2-mSVP
GEOM_OPT_MAX_CYCLES   150
GEOM_OPT_DMAX         10
MAX_SCF_CYCLES        50
SCF_ALGORITHM         DIIS
SCF_PRINT             1
SCF_FINAL_PRINT       1
XC_GRID               000099000590
MEM_TOTAL             20000
MEM_STATIC            4000
BLAS3_DFT             True
New_DFT               True
$End

$Molecule
0 2
H 0.1465677996 -1.1283910254 0.0000000000
F 0.0000000000 0.3304219547 0.0000000000
H -0.1465677996 -1.8454102708 0.0000000000
$End

--------------------------------------------------------------

   15    -100.7034797663      1.62e-09  Convergence criterion met
 Total energy in the final basis set =     -100.7034797663
   11    -100.7034743328      2.15e-09  Convergence criterion met
 Total energy in the final basis set =     -100.7034743328
   11    -100.7034715113      2.29e-09  Convergence criterion met
 Total energy in the final basis set =     -100.7034715113
   11    -100.7034735635      2.21e-09  Convergence criterion met
 Total energy in the final basis set =     -100.7034735635
   11    -100.7034877072      2.06e-09  Convergence criterion met
 Total energy in the final basis set =     -100.7034877072
   11    -100.7034826312      2.23e-09  Convergence criterion met
 Total energy in the final basis set =     -100.7034826312
   10    -100.7034987275      2.86e-09  Convergence criterion met
 Total energy in the final basis set =     -100.7034987275
   11    -100.7035076105      1.92e-09  Convergence criterion met
   10    -100.7037499621      9.49e-09  Convergence criterion met
 Total energy in the final basis set =     -100.7037499621
   10    -100.7037516133      9.57e-09  Convergence criterion met
 Total energy in the final basis set =     -100.7037516133
   10    -100.7037530533      9.44e-09  Convergence criterion met
 Total energy in the final basis set =     -100.7037530533
   10    -100.7037542918      8.26e-09  Convergence criterion met
 Total energy in the final basis set =     -100.7037542918
   10    -100.7037553176      7.62e-09  Convergence criterion met
 Total energy in the final basis set =     -100.7037553176
    8    -100.7037561324      9.97e-09  Convergence criterion met
 Total energy in the final basis set =     -100.7037561324
 Final energy is   -100.70375613244852
 **  OPTIMIZATION CONVERGED  **
 Total job time:  134.08s(wall), 834.16s(cpu)
        *  Thank you very much for using Q-Chem.  Have a nice day.  *

User input: 2 of 2

                  Welcome to Q-Chem
     A Quantum Leap Into The Future Of Chemistry

 Q-Chem 5.3 (devel), Q-Chem, Inc., Pleasanton, CA (2020)

 Yihan Shao,  Zhengting Gan,  E. Epifanovsky,  A. T. B. Gilbert,  M. Wormit,
 J. Kussmann,  A. W. Lange,  A. Behn,  Jia Deng,  Xintian Feng,  D. Ghosh,
 M. Goldey,  P. R. Horn,  L. D. Jacobson,  I. Kaliman,  T. Kus,  A. Landau,
 Jie Liu,  E. I. Proynov,  R. M. Richard,  R. P. Steele,  E. J. Sundstrom,
 H. L. Woodcock III,  P. M. Zimmerman,  D. Zuev,  B. Alam,  B. Albrecht,
 A. Aldossary,  E. Alguire,  S. A. Baeppler,  D. Barton,  Z. Benda,
 Y. A. Bernard,  E. J. Berquist,  K. B. Bravaya,  H. Burton,  K. Carter-Fenk,
 D. Casanova,  Chun-Min Chang,  Yunqing Chen,  A. Chien,  K. D. Closser,
 M. P. Coons,  S. Coriani,  S. Dasgupta,  A. L. Dempwolff,  M. Diedenhofen,
 Hainam Do,  R. G. Edgar,  Po-Tung Fang,  S. Faraji,  S. Fatehi,
 Qingguo Feng,  J. Fosso-Tande,  J. Gayvert,  Qinghui Ge,  A. Ghysels,
 G. Gidofalvi,  J. Gomes,  J. Gonthier,  S. Gulania,  A. Gunina,  D. Hait,
 M. W. D. Hanson-Heine,  S. Hammes-Schiffer,  P. H. P. Harbach,
 A. W. Hauser,  M. F. Herbst,  J. E. Herr,  E. G. Hohenstein,  Z. C. Holden,
 S. Houck,  Kerwin Hui,  B. C. Huynh,  M. Ivanov,  T.-C. Jagau,  Hyunjun Ji,
 B. Kaduk,  K. Khistyaev,  Jaehoon Kim,  P. Klunzinger,  K. Koh,
 D. Kosenkov,  L. Koulias,  T. Kowalczyk,  C. M. Krauter,  A. Kunitsa,
 Ka Un Lao,  A. Laurent,  K. V. Lawler,  Joonho Lee,  D. Lefrancois,
 S. Lehtola,  D. S. Levine,  Yi-Pei Li,  You-Sheng Lin,  Fenglai Liu,
 Kuan-Yu Liu,  E. Livshits,  M. Loipersberger,  A. Luenser,  P. Manohar,
 E. Mansoor,  S. F. Manzer,  Shan-Ping Mao,  Yuezhi Mao,  N. Mardirossian,
 A. V. Marenich,  T. Markovich,  L. A. Martinez-Martinez,  S. A. Maurer,
 N. J. Mayhall,  S. C. McKenzie,  J.-M. Mewes,  P. Morgante,  A. F. Morrison,
 J. W. Mullinax,  K. Nanda,  T. S. Nguyen-Beck,  R. Olivares-Amaya,
 K. J. Oosterbaan,  J. A. Parkhill,  S. K. Paul,  F. Pavosevic,  Zheng Pei,
 T. M. Perrine,  F. Plasser,  P. Pokhilko,  S. Prager,  A. Prociuk,
 E. Ramos,  B. Rana,  D. R. Rehn,  F. Rob,  E. Rossomme,  M. Scheurer,
 M. Schneider,  N. Sergueev,  S. M. Sharada,  S. Sharma,  W. Skomorowski,
 D. W. Small,  T. Stauch,  C. J. Stein,  T. Stein,  Yu-Chuan Su,
 S. P. Veccham,  Zhen Tao,  A. J. W. Thom,  A. Tkatchenko,  T. Tsuchimochi,
 N. M. Tubman,  L. Vogt,  M. L. Vidal,  O. Vydrov,  M. A. Watson,  J. Wenzel,
 M. de Wergifosse,  T. A. Wesolowski,  A. White,  J. Witte,  A. Yamada,
 Jun Yang,  K. Yao,  S. Yeganeh,  S. R. Yost,  Zhi-Qiang You,  A. Zech,
 Igor Ying Zhang,  Xing Zhang,  Yan Zhao,  Ying Zhu,  B. R. Brooks,
 G. K. L. Chan,  C. J. Cramer,  M. S. Gordon,  W. J. Hehre,  A. Klamt,
 M. W. Schmidt,  C. D. Sherrill,  D. G. Truhlar,  A. Aspuru-Guzik,  R. Baer,
 A. T. Bell,  N. A. Besley,  Jeng-Da Chai,  A. E. DePrince, III,
 R. A. DiStasio Jr.,  A. Dreuw,  B. D. Dunietz,  T. R. Furlani,
 Chao-Ping Hsu,  Yousung Jung,  Jing Kong,  D. S. Lambrecht,  WanZhen Liang,
 C. Ochsenfeld,  V. A. Rassolov,  L. V. Slipchenko,  J. E. Subotnik,
 T. Van Voorhis,  J. M. Herbert,  A. I. Krylov,  P. M. W. Gill,  M. Head-Gordon

 Contributors to earlier versions of Q-Chem not listed above:
 R. D. Adamson,  B. Austin,  J. Baker,  G. J. O. Beran,  K. Brandhorst,
 S. T. Brown,  E. F. C. Byrd,  A. K. Chakraborty,  C.-L. Cheng,
 Siu Hung Chien,  D. M. Chipman,  D. L. Crittenden,  H. Dachsel,
 R. J. Doerksen,  A. D. Dutoi,  L. Fusti-Molnar,  W. A. Goddard III,
 A. Golubeva-Zadorozhnaya,  S. R. Gwaltney,  G. Hawkins,  A. Heyden,
 S. Hirata,  G. Kedziora,  F. J. Keil,  C. Kelley,  Jihan Kim,  R. A. King,
 R. Z. Khaliullin,  P. P. Korambath,  W. Kurlancheek,  A. M. Lee,  M. S. Lee,
 S. V. Levchenko,  Ching Yeh Lin,  D. Liotard,  R. C. Lochan,  I. Lotan,
 P. E. Maslen,  N. Nair,  D. P. O'Neill,  D. Neuhauser,  E. Neuscamman,
 C. M. Oana,  R. Olson,  B. Peters,  R. Peverati,  P. A. Pieniazek,
 Y. M. Rhee,  J. Ritchie,  M. A. Rohrdanz,  E. Rosta,  N. J. Russ,
 H. F. Schaefer III,  N. E. Schultz,  N. Shenvi,  A. C. Simmonett,  A. Sodt,
 D. Stuck,  K. S. Thanthiriwatte,  V. Vanovschi,  Tao Wang,  A. Warshel,
 C. F. Williams,  Q. Wu,  X. Xu,  W. Zhang

 Please cite Q-Chem as follows:
 Y. Shao et al., Mol. Phys. 113, 184-215 (2015)
 DOI: 10.1080/00268976.2014.952696

 Q-Chem 5.3.1 for Intel X86 EM64T Linux

 Parts of Q-Chem use Armadillo 9.800.1 (Horizon Scraper).
 http://arma.sourceforge.net/

 Q-Chem begins on Fri Oct 30 09:40:53 2020

Host:
0

     Scratch files written to /data/scratch/MN_86_RKT10_BH76_PBEh_3c//
Processing $rem in /home/pierpa/qchem53/config/preferences:
Processing $rem in /home/pierpa/.qchemrc:
The previous job contains 0 fragments, simply inherited here

Checking the input file for inconsistencies... 	...done.

--------------------------------------------------------------
User input:
--------------------------------------------------------------

$Comment
Geometry optimizations for CLB18.
$End

$Rem
SYMMETRY              False
SYM_IGNORE            True
JOBTYPE               Freq
METHOD                PBEh-3c
BASIS                 def2-mSVP
GEOM_OPT_MAX_CYCLES   150
GEOM_OPT_DMAX         10
MAX_SCF_CYCLES        50
SCF_ALGORITHM         DIIS
SCF_PRINT             1
SCF_FINAL_PRINT       1
XC_GRID               000099000590
MEM_TOTAL             20000
MEM_STATIC            4000
BLAS3_DFT             True
New_DFT               True
$End

$Molecule
Read
$End

--------------------------------------------------------------

             Standard Nuclear Orientation (Angstroms)
    I     Atom           X                Y                Z
 ----------------------------------------------------------------
    1      H       0.0000281932    -1.1345959579     0.0000000000
    2      F       0.0517125952     0.3942229512     0.0000000000
    3      H      -0.0517407884    -1.9030063349     0.0000000000
 ----------------------------------------------------------------

   15    -100.7037561334      1.09e-09  Convergence criterion met
 Total energy in the final basis set =     -100.7037561334

                    Orbital Energies (a.u.)
 --------------------------------------------------------------

 Alpha MOs
 -- Occupied --
-25.1531  -1.3211  -0.6383  -0.5142  -0.5142  -0.4772

 Beta MOs
 -- Occupied --
-25.1223  -1.2218  -0.5081  -0.4809  -0.4809

          Ground-State Mulliken Net Atomic Charges

     Atom                 Charge (a.u.)    Spin (a.u.)
  --------------------------------------------------------
      1 H                     0.043542      -0.091944
      2 F                    -0.090497       0.862284
      3 H                     0.046956       0.229661
  --------------------------------------------------------
  Sum of atomic charges =    -0.000000

                    Cartesian Multipole Moments
 -----------------------------------------------------------------
    Charge (ESU x 10^10)
                -0.0000
    Dipole Moment (Debye)
         X      -0.0320      Y      -0.7674      Z       0.0000
       Tot       0.7681
    Quadrupole Moments (Debye-Ang)
        XX      -6.6657     XY       0.0734     YY      -4.4921
        XZ       0.0000     YZ      -0.0000     ZZ      -6.6684

 Frequency:      -348.14                 281.06                3774.47
 Force Cnst:      0.0791                 0.0471                 8.4637
 Red. Mass:       1.1078                 1.0119                 1.0083
 IR Intens:      112.719                  0.000                496.040

 STANDARD THERMODYNAMIC QUANTITIES AT   298.15 K  AND     1.00 ATM

   This Molecule has  1 Imaginary Frequencies
   Zero point vibrational energy:        5.798 kcal/mol

   Atom    1 Element H  Has Mass    1.00783
   Atom    2 Element F  Has Mass   18.99840
   Atom    3 Element H  Has Mass    1.00783
   Molecular Mass:    21.014060 amu
   Principal axes and moments of inertia in amu*Bohr^2:
                             1           2           3
    Eigenvalues --        0.00073    24.92146    24.92219
          X               0.04166     0.99913     0.00000
          Y               0.99913    -0.04166     0.00000
          Z               0.00000    -0.00000     1.00000
   Rotational Symmetry Number is   1
   The Molecule is an Asymmetric Top
   Translational Enthalpy:        0.889 kcal/mol
   Rotational Enthalpy:           0.889 kcal/mol
   Vibrational Enthalpy:          6.077 kcal/mol
   gas constant (RT):             0.592 kcal/mol
   Translational Entropy:        35.068  cal/mol.K
   Rotational Entropy:            7.018  cal/mol.K
   Vibrational Entropy:           1.527  cal/mol.K

   Total Enthalpy:                8.446 kcal/mol
   Total Entropy:                43.613  cal/mol.K

 Total job time:  9.68s(wall), 69.40s(cpu)
        *  Thank you very much for using Q-Chem.  Have a nice day.  *
