 Q-Chem 5.3 (devel), Q-Chem, Inc., Pleasanton, CA (2020)
 Q-Chem 5.3.1 for Intel X86 EM64T Linux

User input:
--------------------------------------------------------------
$Comment
Geometry optimizations for CLB18.
$End

$Rem
SYMMETRY              False
SYM_IGNORE            True
JOBTYPE               TS
METHOD                PBEh-3c
BASIS                 def2-mSVP
GEOM_OPT_MAX_CYCLES   150
GEOM_OPT_DMAX         10
MAX_SCF_CYCLES        50
SCF_ALGORITHM         DIIS
SCF_PRINT             1
SCF_FINAL_PRINT       1
XC_GRID               000099000590
MEM_TOTAL             20000
MEM_STATIC            4000
BLAS3_DFT             True
New_DFT               True
$End

$Molecule
0 2
C 0.0000000000 0.2648129765 0.0000000000
H 1.0534277818 0.5166679907 0.0000000000
H -0.5266271058 0.5170251853 0.9122485937
H -0.5266271058 0.5170251853 -0.9122485937
H -0.0002600001 -1.1177704388 0.0000000000
H 0.0000850001 -2.0218273693 0.0000000000
$End

--------------------------------------------------------------

   12     -40.9033577696      3.75e-09  Convergence criterion met
 Total energy in the final basis set =      -40.9033577696
    9     -40.9033319331      3.31e-09  Convergence criterion met
 Total energy in the final basis set =      -40.9033319331
    9     -40.9033002546      4.14e-09  Convergence criterion met
 Total energy in the final basis set =      -40.9033002546
    9     -40.9032724355      3.90e-09  Convergence criterion met
 Total energy in the final basis set =      -40.9032724355
    9     -40.9032489094      2.75e-09  Convergence criterion met
 Total energy in the final basis set =      -40.9032489094
    9     -40.9032296497      3.33e-09  Convergence criterion met
 Total energy in the final basis set =      -40.9032296497
    9     -40.9032146130      3.34e-09  Convergence criterion met
 Total energy in the final basis set =      -40.9032146130
    9     -40.9032037512      3.22e-09  Convergence criterion met
 Total energy in the final basis set =      -40.9032037512
    9     -40.9031970086      3.00e-09  Convergence criterion met
 Total energy in the final basis set =      -40.9031970086
    9     -40.9031943197      2.57e-09  Convergence criterion met
 Total energy in the final basis set =      -40.9031943197
    7     -40.9031942614      8.23e-09  Convergence criterion met
 Total energy in the final basis set =      -40.9031942614
 Final energy is   -40.903194261402774
 **  OPTIMIZATION CONVERGED  **
 Total job time:  54.07s(wall), 384.34s(cpu)
        *  Thank you very much for using Q-Chem.  Have a nice day.  *

User input: 2 of 2

                  Welcome to Q-Chem
     A Quantum Leap Into The Future Of Chemistry

 Q-Chem 5.3 (devel), Q-Chem, Inc., Pleasanton, CA (2020)

 Yihan Shao,  Zhengting Gan,  E. Epifanovsky,  A. T. B. Gilbert,  M. Wormit,
 J. Kussmann,  A. W. Lange,  A. Behn,  Jia Deng,  Xintian Feng,  D. Ghosh,
 M. Goldey,  P. R. Horn,  L. D. Jacobson,  I. Kaliman,  T. Kus,  A. Landau,
 Jie Liu,  E. I. Proynov,  R. M. Richard,  R. P. Steele,  E. J. Sundstrom,
 H. L. Woodcock III,  P. M. Zimmerman,  D. Zuev,  B. Alam,  B. Albrecht,
 A. Aldossary,  E. Alguire,  S. A. Baeppler,  D. Barton,  Z. Benda,
 Y. A. Bernard,  E. J. Berquist,  K. B. Bravaya,  H. Burton,  K. Carter-Fenk,
 D. Casanova,  Chun-Min Chang,  Yunqing Chen,  A. Chien,  K. D. Closser,
 M. P. Coons,  S. Coriani,  S. Dasgupta,  A. L. Dempwolff,  M. Diedenhofen,
 Hainam Do,  R. G. Edgar,  Po-Tung Fang,  S. Faraji,  S. Fatehi,
 Qingguo Feng,  J. Fosso-Tande,  J. Gayvert,  Qinghui Ge,  A. Ghysels,
 G. Gidofalvi,  J. Gomes,  J. Gonthier,  S. Gulania,  A. Gunina,  D. Hait,
 M. W. D. Hanson-Heine,  S. Hammes-Schiffer,  P. H. P. Harbach,
 A. W. Hauser,  M. F. Herbst,  J. E. Herr,  E. G. Hohenstein,  Z. C. Holden,
 S. Houck,  Kerwin Hui,  B. C. Huynh,  M. Ivanov,  T.-C. Jagau,  Hyunjun Ji,
 B. Kaduk,  K. Khistyaev,  Jaehoon Kim,  P. Klunzinger,  K. Koh,
 D. Kosenkov,  L. Koulias,  T. Kowalczyk,  C. M. Krauter,  A. Kunitsa,
 Ka Un Lao,  A. Laurent,  K. V. Lawler,  Joonho Lee,  D. Lefrancois,
 S. Lehtola,  D. S. Levine,  Yi-Pei Li,  You-Sheng Lin,  Fenglai Liu,
 Kuan-Yu Liu,  E. Livshits,  M. Loipersberger,  A. Luenser,  P. Manohar,
 E. Mansoor,  S. F. Manzer,  Shan-Ping Mao,  Yuezhi Mao,  N. Mardirossian,
 A. V. Marenich,  T. Markovich,  L. A. Martinez-Martinez,  S. A. Maurer,
 N. J. Mayhall,  S. C. McKenzie,  J.-M. Mewes,  P. Morgante,  A. F. Morrison,
 J. W. Mullinax,  K. Nanda,  T. S. Nguyen-Beck,  R. Olivares-Amaya,
 K. J. Oosterbaan,  J. A. Parkhill,  S. K. Paul,  F. Pavosevic,  Zheng Pei,
 T. M. Perrine,  F. Plasser,  P. Pokhilko,  S. Prager,  A. Prociuk,
 E. Ramos,  B. Rana,  D. R. Rehn,  F. Rob,  E. Rossomme,  M. Scheurer,
 M. Schneider,  N. Sergueev,  S. M. Sharada,  S. Sharma,  W. Skomorowski,
 D. W. Small,  T. Stauch,  C. J. Stein,  T. Stein,  Yu-Chuan Su,
 S. P. Veccham,  Zhen Tao,  A. J. W. Thom,  A. Tkatchenko,  T. Tsuchimochi,
 N. M. Tubman,  L. Vogt,  M. L. Vidal,  O. Vydrov,  M. A. Watson,  J. Wenzel,
 M. de Wergifosse,  T. A. Wesolowski,  A. White,  J. Witte,  A. Yamada,
 Jun Yang,  K. Yao,  S. Yeganeh,  S. R. Yost,  Zhi-Qiang You,  A. Zech,
 Igor Ying Zhang,  Xing Zhang,  Yan Zhao,  Ying Zhu,  B. R. Brooks,
 G. K. L. Chan,  C. J. Cramer,  M. S. Gordon,  W. J. Hehre,  A. Klamt,
 M. W. Schmidt,  C. D. Sherrill,  D. G. Truhlar,  A. Aspuru-Guzik,  R. Baer,
 A. T. Bell,  N. A. Besley,  Jeng-Da Chai,  A. E. DePrince, III,
 R. A. DiStasio Jr.,  A. Dreuw,  B. D. Dunietz,  T. R. Furlani,
 Chao-Ping Hsu,  Yousung Jung,  Jing Kong,  D. S. Lambrecht,  WanZhen Liang,
 C. Ochsenfeld,  V. A. Rassolov,  L. V. Slipchenko,  J. E. Subotnik,
 T. Van Voorhis,  J. M. Herbert,  A. I. Krylov,  P. M. W. Gill,  M. Head-Gordon

 Contributors to earlier versions of Q-Chem not listed above:
 R. D. Adamson,  B. Austin,  J. Baker,  G. J. O. Beran,  K. Brandhorst,
 S. T. Brown,  E. F. C. Byrd,  A. K. Chakraborty,  C.-L. Cheng,
 Siu Hung Chien,  D. M. Chipman,  D. L. Crittenden,  H. Dachsel,
 R. J. Doerksen,  A. D. Dutoi,  L. Fusti-Molnar,  W. A. Goddard III,
 A. Golubeva-Zadorozhnaya,  S. R. Gwaltney,  G. Hawkins,  A. Heyden,
 S. Hirata,  G. Kedziora,  F. J. Keil,  C. Kelley,  Jihan Kim,  R. A. King,
 R. Z. Khaliullin,  P. P. Korambath,  W. Kurlancheek,  A. M. Lee,  M. S. Lee,
 S. V. Levchenko,  Ching Yeh Lin,  D. Liotard,  R. C. Lochan,  I. Lotan,
 P. E. Maslen,  N. Nair,  D. P. O'Neill,  D. Neuhauser,  E. Neuscamman,
 C. M. Oana,  R. Olson,  B. Peters,  R. Peverati,  P. A. Pieniazek,
 Y. M. Rhee,  J. Ritchie,  M. A. Rohrdanz,  E. Rosta,  N. J. Russ,
 H. F. Schaefer III,  N. E. Schultz,  N. Shenvi,  A. C. Simmonett,  A. Sodt,
 D. Stuck,  K. S. Thanthiriwatte,  V. Vanovschi,  Tao Wang,  A. Warshel,
 C. F. Williams,  Q. Wu,  X. Xu,  W. Zhang

 Please cite Q-Chem as follows:
 Y. Shao et al., Mol. Phys. 113, 184-215 (2015)
 DOI: 10.1080/00268976.2014.952696

 Q-Chem 5.3.1 for Intel X86 EM64T Linux

 Parts of Q-Chem use Armadillo 9.800.1 (Horizon Scraper).
 http://arma.sourceforge.net/

 Q-Chem begins on Fri Oct 30 09:25:35 2020

Host:
0

     Scratch files written to /data/scratch/MN_80_RKT03_BH76_PBEh_3c//
Processing $rem in /home/pierpa/qchem53/config/preferences:
Processing $rem in /home/pierpa/.qchemrc:
The previous job contains 0 fragments, simply inherited here

Checking the input file for inconsistencies... 	...done.

--------------------------------------------------------------
User input:
--------------------------------------------------------------

$Comment
Geometry optimizations for CLB18.
$End

$Rem
SYMMETRY              False
SYM_IGNORE            True
JOBTYPE               Freq
METHOD                PBEh-3c
BASIS                 def2-mSVP
GEOM_OPT_MAX_CYCLES   150
GEOM_OPT_DMAX         10
MAX_SCF_CYCLES        50
SCF_ALGORITHM         DIIS
SCF_PRINT             1
SCF_FINAL_PRINT       1
XC_GRID               000099000590
MEM_TOTAL             20000
MEM_STATIC            4000
BLAS3_DFT             True
New_DFT               True
$End

$Molecule
Read
$End

--------------------------------------------------------------

             Standard Nuclear Orientation (Angstroms)
    I     Atom           X                Y                Z
 ----------------------------------------------------------------
    1      C       0.0000171606     0.2812954159     0.0000000000
    2      H       1.0550097906     0.5218585750     0.0000000000
    3      H      -0.5274163381     0.5221282931     0.9136166970
    4      H      -0.5274163377     0.5221282940    -0.9136166970
    5      H      -0.0002026104    -1.1433285861     0.0000000000
    6      H       0.0000069053    -2.0281484623     0.0000000000
 ----------------------------------------------------------------

   12     -40.9031942626      4.01e-09  Convergence criterion met
 Total energy in the final basis set =      -40.9031942626

                    Orbital Energies (a.u.)
 --------------------------------------------------------------

 Alpha MOs
 -- Occupied --
-10.4478  -0.7885  -0.5078  -0.4742  -0.4742  -0.2590

 Beta MOs
 -- Occupied --
-10.4345  -0.7518  -0.4647  -0.4647  -0.4525

          Ground-State Mulliken Net Atomic Charges

     Atom                 Charge (a.u.)    Spin (a.u.)
  --------------------------------------------------------
      1 C                    -0.742586       0.776895
      2 H                     0.239732      -0.029802
      3 H                     0.239733      -0.029798
      4 H                     0.239733      -0.029798
      5 H                     0.026976      -0.185789
      6 H                    -0.003587       0.498293
  --------------------------------------------------------
  Sum of atomic charges =    -0.000000

                    Cartesian Multipole Moments
 -----------------------------------------------------------------
    Charge (ESU x 10^10)
                 0.0000
    Dipole Moment (Debye)
         X       0.0001      Y       0.6146      Z       0.0000
       Tot       0.6146
    Quadrupole Moments (Debye-Ang)
        XX      -9.1843     XY      -0.0003     YY     -11.0334
        XZ      -0.0000     YZ      -0.0000     ZZ      -9.1843

 Frequency:     -1223.53                 569.37                 570.62
 Force Cnst:      1.0343                 0.1998                 0.2007
 Red. Mass:       1.1726                 1.0461                 1.0460
 IR Intens:        7.157                  2.390                  2.383
 Frequency:      1089.63                1182.46                1183.03
 Force Cnst:      0.7516                 0.8624                 0.8632
 Red. Mass:       1.0744                 1.0469                 1.0468
 IR Intens:       16.525                  1.577                  1.576
 Frequency:      1474.40                1475.00                1987.17
 Force Cnst:      1.3768                 1.3778                 2.4931
 Red. Mass:       1.0749                 1.0749                 1.0716
 IR Intens:        6.369                  6.370                 21.336
 Frequency:      3173.86                3332.73                3333.04
 Force Cnst:      6.0353                 7.2854                 7.2871
 Red. Mass:       1.0169                 1.1133                 1.1133
 IR Intens:        0.149                  4.746                  4.743

 STANDARD THERMODYNAMIC QUANTITIES AT   298.15 K  AND     1.00 ATM

   This Molecule has  1 Imaginary Frequencies
   Zero point vibrational energy:       27.693 kcal/mol

   Atom    1 Element C  Has Mass   12.00000
   Atom    2 Element H  Has Mass    1.00783
   Atom    3 Element H  Has Mass    1.00783
   Atom    4 Element H  Has Mass    1.00783
   Atom    5 Element H  Has Mass    1.00783
   Atom    6 Element H  Has Mass    1.00783
   Molecular Mass:    17.039150 amu
   Principal axes and moments of inertia in amu*Bohr^2:
                             1           2           3
    Eigenvalues --       12.01633    31.20283    31.20286
          X               0.00001    -0.00004     1.00000
          Y               1.00000     0.00000    -0.00001
          Z              -0.00000     1.00000     0.00004
   Rotational Symmetry Number is   1
   The Molecule is an Asymmetric Top
   Translational Enthalpy:        0.889 kcal/mol
   Rotational Enthalpy:           0.889 kcal/mol
   Vibrational Enthalpy:         27.961 kcal/mol
   gas constant (RT):             0.592 kcal/mol
   Translational Entropy:        34.443  cal/mol.K
   Rotational Entropy:           17.110  cal/mol.K
   Vibrational Entropy:           1.190  cal/mol.K

   Total Enthalpy:               30.331 kcal/mol
   Total Entropy:                52.743  cal/mol.K

 Total job time:  28.86s(wall), 222.50s(cpu)
        *  Thank you very much for using Q-Chem.  Have a nice day.  *
