 Q-Chem 5.3 (devel), Q-Chem, Inc., Pleasanton, CA (2020)
 Q-Chem 5.3.1 for Intel X86 EM64T Linux

User input:
--------------------------------------------------------------
$Comment
Geometry optimizations for CLB18.
$End

$Rem
SYMMETRY              False
SYM_IGNORE            True
JOBTYPE               TS
METHOD                PBEh-3c
BASIS                 def2-mSVP
GEOM_OPT_MAX_CYCLES   150
GEOM_OPT_DMAX         10
MAX_SCF_CYCLES        50
SCF_ALGORITHM         DIIS
SCF_PRINT             1
SCF_FINAL_PRINT       1
XC_GRID               000099000590
MEM_TOTAL             20000
MEM_STATIC            4000
BLAS3_DFT             True
New_DFT               True
$End

$Molecule
0 3
C 0.0002900002 -1.1422872190 0.0000000000
H -1.0559572488 -1.3847350499 0.0000000000
H 0.5201674396 -1.4073891263 0.9124496810
H 0.5201674396 -1.4073891263 -0.9124496810
H 0.0115599820 0.1600988609 0.0000000000
O 0.0002900002 1.3616417564 0.0000000000
$End

--------------------------------------------------------------

   13    -115.3164911294      3.64e-09  Convergence criterion met
 Total energy in the final basis set =     -115.3164911294
   10    -115.3164573165      1.34e-09  Convergence criterion met
 Total energy in the final basis set =     -115.3164573165
    9    -115.3164070469      7.89e-09  Convergence criterion met
 Total energy in the final basis set =     -115.3164070469
    9    -115.3163373474      7.55e-09  Convergence criterion met
 Total energy in the final basis set =     -115.3163373474
    9    -115.3162634221      9.42e-09  Convergence criterion met
 Total energy in the final basis set =     -115.3162634221
    9    -115.3162045324      7.64e-09  Convergence criterion met
 Total energy in the final basis set =     -115.3162045324
    9    -115.3161635432      7.73e-09  Convergence criterion met
 Total energy in the final basis set =     -115.3161635432
    9    -115.3161347018      8.91e-09  Convergence criterion met
    9    -115.3160659594      9.14e-09  Convergence criterion met
 Total energy in the final basis set =     -115.3160659594
    9    -115.3160554577      9.23e-09  Convergence criterion met
 Total energy in the final basis set =     -115.3160554577
    9    -115.3160473123      9.37e-09  Convergence criterion met
 Total energy in the final basis set =     -115.3160473123
    9    -115.3160415285      9.45e-09  Convergence criterion met
 Total energy in the final basis set =     -115.3160415285
    9    -115.3160381261      8.23e-09  Convergence criterion met
 Total energy in the final basis set =     -115.3160381261
    9    -115.3160371249      6.67e-09  Convergence criterion met
 Total energy in the final basis set =     -115.3160371249
 Final energy is   -115.31603712491000
 **  OPTIMIZATION CONVERGED  **
 Total job time:  103.90s(wall), 738.18s(cpu)
        *  Thank you very much for using Q-Chem.  Have a nice day.  *

User input: 2 of 2

                  Welcome to Q-Chem
     A Quantum Leap Into The Future Of Chemistry

 Q-Chem 5.3 (devel), Q-Chem, Inc., Pleasanton, CA (2020)

 Yihan Shao,  Zhengting Gan,  E. Epifanovsky,  A. T. B. Gilbert,  M. Wormit,
 J. Kussmann,  A. W. Lange,  A. Behn,  Jia Deng,  Xintian Feng,  D. Ghosh,
 M. Goldey,  P. R. Horn,  L. D. Jacobson,  I. Kaliman,  T. Kus,  A. Landau,
 Jie Liu,  E. I. Proynov,  R. M. Richard,  R. P. Steele,  E. J. Sundstrom,
 H. L. Woodcock III,  P. M. Zimmerman,  D. Zuev,  B. Alam,  B. Albrecht,
 A. Aldossary,  E. Alguire,  S. A. Baeppler,  D. Barton,  Z. Benda,
 Y. A. Bernard,  E. J. Berquist,  K. B. Bravaya,  H. Burton,  K. Carter-Fenk,
 D. Casanova,  Chun-Min Chang,  Yunqing Chen,  A. Chien,  K. D. Closser,
 M. P. Coons,  S. Coriani,  S. Dasgupta,  A. L. Dempwolff,  M. Diedenhofen,
 Hainam Do,  R. G. Edgar,  Po-Tung Fang,  S. Faraji,  S. Fatehi,
 Qingguo Feng,  J. Fosso-Tande,  J. Gayvert,  Qinghui Ge,  A. Ghysels,
 G. Gidofalvi,  J. Gomes,  J. Gonthier,  S. Gulania,  A. Gunina,  D. Hait,
 M. W. D. Hanson-Heine,  S. Hammes-Schiffer,  P. H. P. Harbach,
 A. W. Hauser,  M. F. Herbst,  J. E. Herr,  E. G. Hohenstein,  Z. C. Holden,
 S. Houck,  Kerwin Hui,  B. C. Huynh,  M. Ivanov,  T.-C. Jagau,  Hyunjun Ji,
 B. Kaduk,  K. Khistyaev,  Jaehoon Kim,  P. Klunzinger,  K. Koh,
 D. Kosenkov,  L. Koulias,  T. Kowalczyk,  C. M. Krauter,  A. Kunitsa,
 Ka Un Lao,  A. Laurent,  K. V. Lawler,  Joonho Lee,  D. Lefrancois,
 S. Lehtola,  D. S. Levine,  Yi-Pei Li,  You-Sheng Lin,  Fenglai Liu,
 Kuan-Yu Liu,  E. Livshits,  M. Loipersberger,  A. Luenser,  P. Manohar,
 E. Mansoor,  S. F. Manzer,  Shan-Ping Mao,  Yuezhi Mao,  N. Mardirossian,
 A. V. Marenich,  T. Markovich,  L. A. Martinez-Martinez,  S. A. Maurer,
 N. J. Mayhall,  S. C. McKenzie,  J.-M. Mewes,  P. Morgante,  A. F. Morrison,
 J. W. Mullinax,  K. Nanda,  T. S. Nguyen-Beck,  R. Olivares-Amaya,
 K. J. Oosterbaan,  J. A. Parkhill,  S. K. Paul,  F. Pavosevic,  Zheng Pei,
 T. M. Perrine,  F. Plasser,  P. Pokhilko,  S. Prager,  A. Prociuk,
 E. Ramos,  B. Rana,  D. R. Rehn,  F. Rob,  E. Rossomme,  M. Scheurer,
 M. Schneider,  N. Sergueev,  S. M. Sharada,  S. Sharma,  W. Skomorowski,
 D. W. Small,  T. Stauch,  C. J. Stein,  T. Stein,  Yu-Chuan Su,
 S. P. Veccham,  Zhen Tao,  A. J. W. Thom,  A. Tkatchenko,  T. Tsuchimochi,
 N. M. Tubman,  L. Vogt,  M. L. Vidal,  O. Vydrov,  M. A. Watson,  J. Wenzel,
 M. de Wergifosse,  T. A. Wesolowski,  A. White,  J. Witte,  A. Yamada,
 Jun Yang,  K. Yao,  S. Yeganeh,  S. R. Yost,  Zhi-Qiang You,  A. Zech,
 Igor Ying Zhang,  Xing Zhang,  Yan Zhao,  Ying Zhu,  B. R. Brooks,
 G. K. L. Chan,  C. J. Cramer,  M. S. Gordon,  W. J. Hehre,  A. Klamt,
 M. W. Schmidt,  C. D. Sherrill,  D. G. Truhlar,  A. Aspuru-Guzik,  R. Baer,
 A. T. Bell,  N. A. Besley,  Jeng-Da Chai,  A. E. DePrince, III,
 R. A. DiStasio Jr.,  A. Dreuw,  B. D. Dunietz,  T. R. Furlani,
 Chao-Ping Hsu,  Yousung Jung,  Jing Kong,  D. S. Lambrecht,  WanZhen Liang,
 C. Ochsenfeld,  V. A. Rassolov,  L. V. Slipchenko,  J. E. Subotnik,
 T. Van Voorhis,  J. M. Herbert,  A. I. Krylov,  P. M. W. Gill,  M. Head-Gordon

 Contributors to earlier versions of Q-Chem not listed above:
 R. D. Adamson,  B. Austin,  J. Baker,  G. J. O. Beran,  K. Brandhorst,
 S. T. Brown,  E. F. C. Byrd,  A. K. Chakraborty,  C.-L. Cheng,
 Siu Hung Chien,  D. M. Chipman,  D. L. Crittenden,  H. Dachsel,
 R. J. Doerksen,  A. D. Dutoi,  L. Fusti-Molnar,  W. A. Goddard III,
 A. Golubeva-Zadorozhnaya,  S. R. Gwaltney,  G. Hawkins,  A. Heyden,
 S. Hirata,  G. Kedziora,  F. J. Keil,  C. Kelley,  Jihan Kim,  R. A. King,
 R. Z. Khaliullin,  P. P. Korambath,  W. Kurlancheek,  A. M. Lee,  M. S. Lee,
 S. V. Levchenko,  Ching Yeh Lin,  D. Liotard,  R. C. Lochan,  I. Lotan,
 P. E. Maslen,  N. Nair,  D. P. O'Neill,  D. Neuhauser,  E. Neuscamman,
 C. M. Oana,  R. Olson,  B. Peters,  R. Peverati,  P. A. Pieniazek,
 Y. M. Rhee,  J. Ritchie,  M. A. Rohrdanz,  E. Rosta,  N. J. Russ,
 H. F. Schaefer III,  N. E. Schultz,  N. Shenvi,  A. C. Simmonett,  A. Sodt,
 D. Stuck,  K. S. Thanthiriwatte,  V. Vanovschi,  Tao Wang,  A. Warshel,
 C. F. Williams,  Q. Wu,  X. Xu,  W. Zhang

 Please cite Q-Chem as follows:
 Y. Shao et al., Mol. Phys. 113, 184-215 (2015)
 DOI: 10.1080/00268976.2014.952696

 Q-Chem 5.3.1 for Intel X86 EM64T Linux

 Parts of Q-Chem use Armadillo 9.800.1 (Horizon Scraper).
 http://arma.sourceforge.net/

 Q-Chem begins on Fri Oct 30 09:42:47 2020

Host:
0

     Scratch files written to /data/scratch/MN_87_RKT11_BH76_PBEh_3c//
Processing $rem in /home/pierpa/qchem53/config/preferences:
Processing $rem in /home/pierpa/.qchemrc:
The previous job contains 0 fragments, simply inherited here

Checking the input file for inconsistencies... 	...done.

--------------------------------------------------------------
User input:
--------------------------------------------------------------

$Comment
Geometry optimizations for CLB18.
$End

$Rem
SYMMETRY              False
SYM_IGNORE            True
JOBTYPE               Freq
METHOD                PBEh-3c
BASIS                 def2-mSVP
GEOM_OPT_MAX_CYCLES   150
GEOM_OPT_DMAX         10
MAX_SCF_CYCLES        50
SCF_ALGORITHM         DIIS
SCF_PRINT             1
SCF_FINAL_PRINT       1
XC_GRID               000099000590
MEM_TOTAL             20000
MEM_STATIC            4000
BLAS3_DFT             True
New_DFT               True
$End

$Molecule
Read
$End

--------------------------------------------------------------

             Standard Nuclear Orientation (Angstroms)
    I     Atom           X                Y                Z
 ----------------------------------------------------------------
    1      C       0.0019927154    -1.1507014205    -0.0000000402
    2      H      -1.0555961476    -1.3873027978    -0.0000000214
    3      H       0.5203363122    -1.4164539218     0.9129572115
    4      H       0.5203363200    -1.4164536022    -0.9129573708
    5      H       0.0117573769     0.1997108061     0.0000006976
    6      O      -0.0023089641     1.3511410320    -0.0000004768
 ----------------------------------------------------------------

   13    -115.3160371247      3.38e-09  Convergence criterion met
 Total energy in the final basis set =     -115.3160371247

                    Orbital Energies (a.u.)
 --------------------------------------------------------------

 Alpha MOs
 -- Occupied --
-19.5585 -10.4686  -1.0967  -0.8100  -0.5539  -0.4969  -0.4947  -0.4713
 -0.3935  -0.3334

 Beta MOs
 -- Occupied --
-19.5160 -10.4563  -0.9600  -0.7696  -0.4853  -0.4843  -0.4521  -0.3476

          Ground-State Mulliken Net Atomic Charges

     Atom                 Charge (a.u.)    Spin (a.u.)
  --------------------------------------------------------
      1 C                    -0.839516       0.719790
      2 H                     0.253315      -0.024563
      3 H                     0.253429      -0.025702
      4 H                     0.253429      -0.025702
      5 H                     0.387504      -0.112302
      6 O                    -0.308162       1.468478
  --------------------------------------------------------
  Sum of atomic charges =     0.000000

                    Cartesian Multipole Moments
 -----------------------------------------------------------------
    Charge (ESU x 10^10)
                 0.0000
    Dipole Moment (Debye)
         X       0.0019      Y      -2.0769      Z       0.0000
       Tot       2.0769
    Quadrupole Moments (Debye-Ang)
        XX     -12.3647     XY       0.0086     YY     -15.1920
        XZ      -0.0000     YZ       0.0000     ZZ     -13.4961

 Frequency:     -1724.71                -263.17                 419.50
 Force Cnst:      1.8950                 0.0441                 0.1115
 Red. Mass:       1.0813                 1.0809                 1.0758
 IR Intens:      730.205                  0.278                  3.071
 Frequency:       574.15                1011.77                1188.64
 Force Cnst:      0.8668                 0.6531                 0.8917
 Red. Mass:       4.4628                 1.0828                 1.0712
 IR Intens:        0.731                 60.779                 49.139
 Frequency:      1253.01                1380.96                1472.58
 Force Cnst:      1.1405                 1.1830                 1.3685
 Red. Mass:       1.2329                 1.0528                 1.0711
 IR Intens:       26.898                  5.990                  5.027
 Frequency:      3165.11                3307.55                3316.13
 Force Cnst:      6.0124                 7.1298                 7.2019
 Red. Mass:       1.0186                 1.1061                 1.1116
 IR Intens:        0.033                  0.687                  1.850

 STANDARD THERMODYNAMIC QUANTITIES AT   298.15 K  AND     1.00 ATM

   This Molecule has  2 Imaginary Frequencies
   Zero point vibrational energy:       24.431 kcal/mol

   Atom    1 Element C  Has Mass   12.00000
   Atom    2 Element H  Has Mass    1.00783
   Atom    3 Element H  Has Mass    1.00783
   Atom    4 Element H  Has Mass    1.00783
   Atom    5 Element H  Has Mass    1.00783
   Atom    6 Element O  Has Mass   15.99491
   Molecular Mass:    32.026230 amu
   Principal axes and moments of inertia in amu*Bohr^2:
                             1           2           3
    Eigenvalues --       11.95916   186.92043   186.96030
          X              -0.00169    -0.00001     1.00000
          Y               1.00000     0.00000     0.00169
          Z              -0.00000     1.00000     0.00001
   Rotational Symmetry Number is   1
   The Molecule is an Asymmetric Top
   Translational Enthalpy:        0.889 kcal/mol
   Rotational Enthalpy:           0.889 kcal/mol
   Vibrational Enthalpy:         24.773 kcal/mol
   gas constant (RT):             0.592 kcal/mol
   Translational Entropy:        36.324  cal/mol.K
   Rotational Entropy:           20.663  cal/mol.K
   Vibrational Entropy:           1.588  cal/mol.K

   Total Enthalpy:               27.143 kcal/mol
   Total Entropy:                58.575  cal/mol.K

 Total job time:  51.39s(wall), 401.58s(cpu)
        *  Thank you very much for using Q-Chem.  Have a nice day.  *
