 Q-Chem 5.3 (devel), Q-Chem, Inc., Pleasanton, CA (2020)
 Q-Chem 5.3.1 for Intel X86 EM64T Linux

User input:
--------------------------------------------------------------
$Comment
Geometry optimizations for CLB18.
$End

$Rem
SYMMETRY              False
SYM_IGNORE            True
JOBTYPE               TS
METHOD                PBEh-3c
BASIS                 def2-mSVP
GEOM_OPT_MAX_CYCLES   150
GEOM_OPT_DMAX         10
MAX_SCF_CYCLES        50
SCF_ALGORITHM         DIIS
SCF_PRINT             1
SCF_FINAL_PRINT       1
XC_GRID               000099000590
MEM_TOTAL             20000
MEM_STATIC            4000
BLAS3_DFT             True
New_DFT               True
$End

$Molecule
0 1
C -1.2996221873 -0.9048559881 -0.0201549841
C -1.2059472375 0.5058172120 -0.0134140073
C 0.0000000000 1.1833619541 0.1533010504
C 1.2059472375 0.5058140369 -0.0134219979
C 1.2996274791 -0.9048506963 -0.0201469935
H 2.1687957561 -1.3275521605 -0.5156969505
H 1.0320437307 -1.4543853544 0.8731688567
H 2.0371311742 1.0855858809 -0.3985043071
H 0.0000010000 2.2629152148 0.0859050409
H -2.0371311742 1.0855858809 -0.3984810233
H -2.1687957561 -1.3275415770 -0.5157160009
H -0.0000110000 -1.1819437592 -0.5208082732
H -1.0320596060 -1.4543959379 0.8731582731
$End

--------------------------------------------------------------

   13    -194.8025640381      1.62e-09  Convergence criterion met
 Total energy in the final basis set =     -194.8025640381
    8    -194.8025500999      2.20e-09  Convergence criterion met
 Total energy in the final basis set =     -194.8025500999
    7    -194.8025356880      7.18e-09  Convergence criterion met
 Total energy in the final basis set =     -194.8025356880
    7    -194.8025200952      7.16e-09  Convergence criterion met
 Total energy in the final basis set =     -194.8025200952
    7    -194.8025033135      7.15e-09  Convergence criterion met
 Total energy in the final basis set =     -194.8025033135
    7    -194.8024856729      6.71e-09  Convergence criterion met
 Total energy in the final basis set =     -194.8024856729
    7    -194.8024668419      6.76e-09  Convergence criterion met
 Total energy in the final basis set =     -194.8024668419
    7    -194.8024470225      6.67e-09  Convergence criterion met
    8    -194.8027366374      6.72e-09  Convergence criterion met
 Total energy in the final basis set =     -194.8027366374
    8    -194.8027418085      6.70e-09  Convergence criterion met
 Total energy in the final basis set =     -194.8027418085
    8    -194.8027458312      6.60e-09  Convergence criterion met
 Total energy in the final basis set =     -194.8027458312
    8    -194.8027487204      6.58e-09  Convergence criterion met
 Total energy in the final basis set =     -194.8027487204
    8    -194.8027504850      6.48e-09  Convergence criterion met
 Total energy in the final basis set =     -194.8027504850
    8    -194.8027511387      6.46e-09  Convergence criterion met
 Total energy in the final basis set =     -194.8027511387
 Final energy is   -194.80275113872170
 **  OPTIMIZATION CONVERGED  **
 Total job time:  1452.70s(wall), 11094.62s(cpu)
        *  Thank you very much for using Q-Chem.  Have a nice day.  *

User input: 2 of 2

                  Welcome to Q-Chem
     A Quantum Leap Into The Future Of Chemistry

 Q-Chem 5.3 (devel), Q-Chem, Inc., Pleasanton, CA (2020)

 Yihan Shao,  Zhengting Gan,  E. Epifanovsky,  A. T. B. Gilbert,  M. Wormit,
 J. Kussmann,  A. W. Lange,  A. Behn,  Jia Deng,  Xintian Feng,  D. Ghosh,
 M. Goldey,  P. R. Horn,  L. D. Jacobson,  I. Kaliman,  T. Kus,  A. Landau,
 Jie Liu,  E. I. Proynov,  R. M. Richard,  R. P. Steele,  E. J. Sundstrom,
 H. L. Woodcock III,  P. M. Zimmerman,  D. Zuev,  B. Alam,  B. Albrecht,
 A. Aldossary,  E. Alguire,  S. A. Baeppler,  D. Barton,  Z. Benda,
 Y. A. Bernard,  E. J. Berquist,  K. B. Bravaya,  H. Burton,  K. Carter-Fenk,
 D. Casanova,  Chun-Min Chang,  Yunqing Chen,  A. Chien,  K. D. Closser,
 M. P. Coons,  S. Coriani,  S. Dasgupta,  A. L. Dempwolff,  M. Diedenhofen,
 Hainam Do,  R. G. Edgar,  Po-Tung Fang,  S. Faraji,  S. Fatehi,
 Qingguo Feng,  J. Fosso-Tande,  J. Gayvert,  Qinghui Ge,  A. Ghysels,
 G. Gidofalvi,  J. Gomes,  J. Gonthier,  S. Gulania,  A. Gunina,  D. Hait,
 M. W. D. Hanson-Heine,  S. Hammes-Schiffer,  P. H. P. Harbach,
 A. W. Hauser,  M. F. Herbst,  J. E. Herr,  E. G. Hohenstein,  Z. C. Holden,
 S. Houck,  Kerwin Hui,  B. C. Huynh,  M. Ivanov,  T.-C. Jagau,  Hyunjun Ji,
 B. Kaduk,  K. Khistyaev,  Jaehoon Kim,  P. Klunzinger,  K. Koh,
 D. Kosenkov,  L. Koulias,  T. Kowalczyk,  C. M. Krauter,  A. Kunitsa,
 Ka Un Lao,  A. Laurent,  K. V. Lawler,  Joonho Lee,  D. Lefrancois,
 S. Lehtola,  D. S. Levine,  Yi-Pei Li,  You-Sheng Lin,  Fenglai Liu,
 Kuan-Yu Liu,  E. Livshits,  M. Loipersberger,  A. Luenser,  P. Manohar,
 E. Mansoor,  S. F. Manzer,  Shan-Ping Mao,  Yuezhi Mao,  N. Mardirossian,
 A. V. Marenich,  T. Markovich,  L. A. Martinez-Martinez,  S. A. Maurer,
 N. J. Mayhall,  S. C. McKenzie,  J.-M. Mewes,  P. Morgante,  A. F. Morrison,
 J. W. Mullinax,  K. Nanda,  T. S. Nguyen-Beck,  R. Olivares-Amaya,
 K. J. Oosterbaan,  J. A. Parkhill,  S. K. Paul,  F. Pavosevic,  Zheng Pei,
 T. M. Perrine,  F. Plasser,  P. Pokhilko,  S. Prager,  A. Prociuk,
 E. Ramos,  B. Rana,  D. R. Rehn,  F. Rob,  E. Rossomme,  M. Scheurer,
 M. Schneider,  N. Sergueev,  S. M. Sharada,  S. Sharma,  W. Skomorowski,
 D. W. Small,  T. Stauch,  C. J. Stein,  T. Stein,  Yu-Chuan Su,
 S. P. Veccham,  Zhen Tao,  A. J. W. Thom,  A. Tkatchenko,  T. Tsuchimochi,
 N. M. Tubman,  L. Vogt,  M. L. Vidal,  O. Vydrov,  M. A. Watson,  J. Wenzel,
 M. de Wergifosse,  T. A. Wesolowski,  A. White,  J. Witte,  A. Yamada,
 Jun Yang,  K. Yao,  S. Yeganeh,  S. R. Yost,  Zhi-Qiang You,  A. Zech,
 Igor Ying Zhang,  Xing Zhang,  Yan Zhao,  Ying Zhu,  B. R. Brooks,
 G. K. L. Chan,  C. J. Cramer,  M. S. Gordon,  W. J. Hehre,  A. Klamt,
 M. W. Schmidt,  C. D. Sherrill,  D. G. Truhlar,  A. Aspuru-Guzik,  R. Baer,
 A. T. Bell,  N. A. Besley,  Jeng-Da Chai,  A. E. DePrince, III,
 R. A. DiStasio Jr.,  A. Dreuw,  B. D. Dunietz,  T. R. Furlani,
 Chao-Ping Hsu,  Yousung Jung,  Jing Kong,  D. S. Lambrecht,  WanZhen Liang,
 C. Ochsenfeld,  V. A. Rassolov,  L. V. Slipchenko,  J. E. Subotnik,
 T. Van Voorhis,  J. M. Herbert,  A. I. Krylov,  P. M. W. Gill,  M. Head-Gordon

 Contributors to earlier versions of Q-Chem not listed above:
 R. D. Adamson,  B. Austin,  J. Baker,  G. J. O. Beran,  K. Brandhorst,
 S. T. Brown,  E. F. C. Byrd,  A. K. Chakraborty,  C.-L. Cheng,
 Siu Hung Chien,  D. M. Chipman,  D. L. Crittenden,  H. Dachsel,
 R. J. Doerksen,  A. D. Dutoi,  L. Fusti-Molnar,  W. A. Goddard III,
 A. Golubeva-Zadorozhnaya,  S. R. Gwaltney,  G. Hawkins,  A. Heyden,
 S. Hirata,  G. Kedziora,  F. J. Keil,  C. Kelley,  Jihan Kim,  R. A. King,
 R. Z. Khaliullin,  P. P. Korambath,  W. Kurlancheek,  A. M. Lee,  M. S. Lee,
 S. V. Levchenko,  Ching Yeh Lin,  D. Liotard,  R. C. Lochan,  I. Lotan,
 P. E. Maslen,  N. Nair,  D. P. O'Neill,  D. Neuhauser,  E. Neuscamman,
 C. M. Oana,  R. Olson,  B. Peters,  R. Peverati,  P. A. Pieniazek,
 Y. M. Rhee,  J. Ritchie,  M. A. Rohrdanz,  E. Rosta,  N. J. Russ,
 H. F. Schaefer III,  N. E. Schultz,  N. Shenvi,  A. C. Simmonett,  A. Sodt,
 D. Stuck,  K. S. Thanthiriwatte,  V. Vanovschi,  Tao Wang,  A. Warshel,
 C. F. Williams,  Q. Wu,  X. Xu,  W. Zhang

 Please cite Q-Chem as follows:
 Y. Shao et al., Mol. Phys. 113, 184-215 (2015)
 DOI: 10.1080/00268976.2014.952696

 Q-Chem 5.3.1 for Intel X86 EM64T Linux

 Parts of Q-Chem use Armadillo 9.800.1 (Horizon Scraper).
 http://arma.sourceforge.net/

 Q-Chem begins on Fri Oct 30 10:38:46 2020

Host:
0

     Scratch files written to /data/scratch/MN_96_RKT22_BH76_PBEh_3c//
Processing $rem in /home/pierpa/qchem53/config/preferences:
Processing $rem in /home/pierpa/.qchemrc:
The previous job contains 0 fragments, simply inherited here

Checking the input file for inconsistencies... 	...done.

--------------------------------------------------------------
User input:
--------------------------------------------------------------

$Comment
Geometry optimizations for CLB18.
$End

$Rem
SYMMETRY              False
SYM_IGNORE            True
JOBTYPE               Freq
METHOD                PBEh-3c
BASIS                 def2-mSVP
GEOM_OPT_MAX_CYCLES   150
GEOM_OPT_DMAX         10
MAX_SCF_CYCLES        50
SCF_ALGORITHM         DIIS
SCF_PRINT             1
SCF_FINAL_PRINT       1
XC_GRID               000099000590
MEM_TOTAL             20000
MEM_STATIC            4000
BLAS3_DFT             True
New_DFT               True
$End

$Molecule
Read
$End

--------------------------------------------------------------

             Standard Nuclear Orientation (Angstroms)
    I     Atom           X                Y                Z
 ----------------------------------------------------------------
    1      C      -1.2992984633    -0.9006095817    -0.0231230496
    2      C      -1.2019238519     0.5044584521    -0.0156189870
    3      C      -0.0000258176     1.1793446876     0.1561166566
    4      C       1.2019098215     0.5045040858    -0.0155591924
    5      C       1.2993291197    -0.9005552526    -0.0230095379
    6      H       2.1643062134    -1.3246916761    -0.5249540590
    7      H       1.0532313607    -1.4498573934     0.8791272872
    8      H       2.0319318273     1.0875167541    -0.4004915489
    9      H      -0.0000475451     2.2600983545     0.0928349347
   10      H      -2.0319595113     1.0874531974    -0.4005494648
   11      H      -2.1642287446    -1.3247445048    -0.5251503221
   12      H       0.0000333508    -1.1994306609    -0.5094572855
   13      H      -1.0532783402    -1.4499317558     0.8790232520
 ----------------------------------------------------------------

   13    -194.8027511457      2.18e-09  Convergence criterion met
 Total energy in the final basis set =     -194.8027511457

                    Orbital Energies (a.u.)
 --------------------------------------------------------------

 Alpha MOs
 -- Occupied --
-10.4508 -10.4508 -10.4412 -10.4393 -10.4393  -0.9255  -0.8306  -0.7781
 -0.6652  -0.6005  -0.5632  -0.4868  -0.4757  -0.4682  -0.4455  -0.4208
 -0.4040  -0.3024  -0.2611

          Ground-State Mulliken Net Atomic Charges

     Atom                 Charge (a.u.)
  ----------------------------------------
      1 C                    -0.677435
      2 C                    -0.154621
      3 C                    -0.228322
      4 C                    -0.154618
      5 C                    -0.677431
      6 H                     0.225743
      7 H                     0.262214
      8 H                     0.227802
      9 H                     0.217176
     10 H                     0.227802
     11 H                     0.225742
     12 H                     0.243735
     13 H                     0.262212
  ----------------------------------------
  Sum of atomic charges =     0.000000

                    Cartesian Multipole Moments
 -----------------------------------------------------------------
    Charge (ESU x 10^10)
                 0.0000
    Dipole Moment (Debye)
         X       0.0000      Y      -0.0350      Z      -0.2597
       Tot       0.2621
    Quadrupole Moments (Debye-Ang)
        XX     -30.1447     XY      -0.0000     YY     -29.5312
        XZ       0.0001     YZ      -1.5518     ZZ     -34.3050

 Frequency:     -1624.04                 277.75                 476.58
 Force Cnst:      1.8679                 0.0961                 0.3046
 Red. Mass:       1.2020                 2.1141                 2.2764
 IR Intens:       20.993                  0.077                  0.988
 Frequency:       520.19                 573.26                 635.64
 Force Cnst:      0.3967                 0.6848                 0.3103
 Red. Mass:       2.4881                 3.5370                 1.3037
 IR Intens:        3.936                  3.942                 36.609
 Frequency:       765.07                 827.63                 845.54
 Force Cnst:      0.6821                 0.5000                 0.5287
 Red. Mass:       1.9778                 1.2389                 1.2551
 IR Intens:       11.680                  6.135                 64.146
 Frequency:      1007.95                1023.25                1041.80
 Force Cnst:      0.8308                 0.7999                 0.8798
 Red. Mass:       1.3880                 1.2967                 1.3759
 IR Intens:       16.327                  0.194                  1.677
 Frequency:      1043.30                1052.61                1136.72
 Force Cnst:      1.2954                 0.9962                 0.9951
 Red. Mass:       2.0200                 1.5260                 1.3070
 IR Intens:        0.674                 17.564                  4.073
 Frequency:      1171.59                1227.62                1294.52
 Force Cnst:      1.3095                 1.0432                 1.4592
 Red. Mass:       1.6192                 1.1749                 1.4779
 IR Intens:        1.399                  3.982                  9.416
 Frequency:      1312.37                1454.45                1480.65
 Force Cnst:      1.2492                 1.3820                 1.7087
 Red. Mass:       1.2311                 1.1088                 1.3229
 IR Intens:       13.660                 17.792                  0.680
 Frequency:      1513.89                1571.95                1587.56
 Force Cnst:      1.4445                 2.1325                 1.9521
 Red. Mass:       1.0697                 1.4647                 1.3146
 IR Intens:        9.916                  0.095                  0.943
 Frequency:      1623.79                1659.18                3188.45
 Force Cnst:      8.1613                 3.4901                 6.3396
 Red. Mass:       5.2536                 2.1518                 1.0584
 IR Intens:       16.914                  6.070                 10.624
 Frequency:      3188.94                3232.55                3236.58
 Force Cnst:      6.3413                 6.7048                 6.7433
 Red. Mass:       1.0584                 1.0890                 1.0926
 IR Intens:       10.583                  0.540                  4.612
 Frequency:      3259.06                3263.40                3270.25
 Force Cnst:      6.9648                 6.9523                 6.9108
 Red. Mass:       1.1129                 1.1080                 1.0968
 IR Intens:       15.884                  7.058                 13.224

 STANDARD THERMODYNAMIC QUANTITIES AT   298.15 K  AND     1.00 ATM

   This Molecule has  1 Imaginary Frequencies
   Zero point vibrational energy:       71.141 kcal/mol

   Atom    1 Element C  Has Mass   12.00000
   Atom    2 Element C  Has Mass   12.00000
   Atom    3 Element C  Has Mass   12.00000
   Atom    4 Element C  Has Mass   12.00000
   Atom    5 Element C  Has Mass   12.00000
   Atom    6 Element H  Has Mass    1.00783
   Atom    7 Element H  Has Mass    1.00783
   Atom    8 Element H  Has Mass    1.00783
   Atom    9 Element H  Has Mass    1.00783
   Atom   10 Element H  Has Mass    1.00783
   Atom   11 Element H  Has Mass    1.00783
   Atom   12 Element H  Has Mass    1.00783
   Atom   13 Element H  Has Mass    1.00783
   Molecular Mass:    68.062640 amu
   Principal axes and moments of inertia in amu*Bohr^2:
                             1           2           3
    Eigenvalues --      221.24993   350.58268   550.50855
          X               1.00000    -0.00003    -0.00003
          Y               0.00002     0.99974    -0.02299
          Z               0.00003     0.02299     0.99974
   Rotational Symmetry Number is   1
   The Molecule is an Asymmetric Top
   Translational Enthalpy:        0.889 kcal/mol
   Rotational Enthalpy:           0.889 kcal/mol
   Vibrational Enthalpy:         72.215 kcal/mol
   gas constant (RT):             0.592 kcal/mol
   Translational Entropy:        38.571  cal/mol.K
   Rotational Entropy:           25.260  cal/mol.K
   Vibrational Entropy:           5.031  cal/mol.K

   Total Enthalpy:               74.585 kcal/mol
   Total Entropy:                68.862  cal/mol.K

 Total job time:  313.04s(wall), 2472.57s(cpu)
        *  Thank you very much for using Q-Chem.  Have a nice day.  *
