 Q-Chem 5.3 (devel), Q-Chem, Inc., Pleasanton, CA (2020)
 Q-Chem 5.3.1 for Intel X86 EM64T Linux

User input:
--------------------------------------------------------------
$Comment
Geometry optimizations for CLB18.
$End

$Rem
SYMMETRY              False
SYM_IGNORE            True
JOBTYPE               TS
METHOD                PBEh-3c
BASIS                 def2-mSVP
GEOM_OPT_MAX_CYCLES   150
GEOM_OPT_DMAX         10
MAX_SCF_CYCLES        50
SCF_ALGORITHM         DIIS
SCF_PRINT             1
SCF_FINAL_PRINT       1
XC_GRID               000099000590
MEM_TOTAL             20000
MEM_STATIC            4000
BLAS3_DFT             True
New_DFT               True
$End

$Molecule
0 3
C -1.3949852125 -0.4496609264 0.0007030013
C -0.4357462116 0.7140611447 0.0020270027
N 1.9275703245 -0.3783521805 0.0030360008
H -1.2000892457 -1.1209507939 -0.8356872348
H -1.3220963435 -1.0278843978 0.9217737835
H -2.4287117267 -0.1053523034 -0.0893341092
H -0.4176880393 1.3084806138 -0.9072002431
H -0.4411274147 1.3290973580 0.8974686742
H 0.8285010083 0.1805928359 -0.0285610170
H 2.4725911010 0.4980732327 0.0039100005
$End

--------------------------------------------------------------

   14    -134.7205265106      6.81e-09  Convergence criterion met
 Total energy in the final basis set =     -134.7205265106
   10    -134.7205252650      4.51e-09  Convergence criterion met
 Total energy in the final basis set =     -134.7205252650
   10    -134.7205316440      4.53e-09  Convergence criterion met
 Total energy in the final basis set =     -134.7205316440
   10    -134.7205383741      4.38e-09  Convergence criterion met
 Total energy in the final basis set =     -134.7205383741
   10    -134.7205452326      4.59e-09  Convergence criterion met
 Total energy in the final basis set =     -134.7205452326
   10    -134.7205521219      4.49e-09  Convergence criterion met
 Total energy in the final basis set =     -134.7205521219
   10    -134.7205582963      5.03e-09  Convergence criterion met
 Total energy in the final basis set =     -134.7205582963
   10    -134.7205696081      5.25e-09  Convergence criterion met
   10    -134.7214625011      7.77e-09  Convergence criterion met
 Total energy in the final basis set =     -134.7214625011
   10    -134.7214635254      7.86e-09  Convergence criterion met
 Total energy in the final basis set =     -134.7214635254
   10    -134.7214644267      7.98e-09  Convergence criterion met
 Total energy in the final basis set =     -134.7214644267
   10    -134.7214652106      8.11e-09  Convergence criterion met
 Total energy in the final basis set =     -134.7214652106
   10    -134.7214658845      8.26e-09  Convergence criterion met
 Total energy in the final basis set =     -134.7214658845
   10    -134.7214666154      8.07e-09  Convergence criterion met
 Total energy in the final basis set =     -134.7214666154
 Final energy is   -134.72146661535317
 **  OPTIMIZATION CONVERGED  **
 Total job time:  1449.13s(wall), 10927.82s(cpu)
        *  Thank you very much for using Q-Chem.  Have a nice day.  *

User input: 2 of 2

                  Welcome to Q-Chem
     A Quantum Leap Into The Future Of Chemistry

 Q-Chem 5.3 (devel), Q-Chem, Inc., Pleasanton, CA (2020)

 Yihan Shao,  Zhengting Gan,  E. Epifanovsky,  A. T. B. Gilbert,  M. Wormit,
 J. Kussmann,  A. W. Lange,  A. Behn,  Jia Deng,  Xintian Feng,  D. Ghosh,
 M. Goldey,  P. R. Horn,  L. D. Jacobson,  I. Kaliman,  T. Kus,  A. Landau,
 Jie Liu,  E. I. Proynov,  R. M. Richard,  R. P. Steele,  E. J. Sundstrom,
 H. L. Woodcock III,  P. M. Zimmerman,  D. Zuev,  B. Alam,  B. Albrecht,
 A. Aldossary,  E. Alguire,  S. A. Baeppler,  D. Barton,  Z. Benda,
 Y. A. Bernard,  E. J. Berquist,  K. B. Bravaya,  H. Burton,  K. Carter-Fenk,
 D. Casanova,  Chun-Min Chang,  Yunqing Chen,  A. Chien,  K. D. Closser,
 M. P. Coons,  S. Coriani,  S. Dasgupta,  A. L. Dempwolff,  M. Diedenhofen,
 Hainam Do,  R. G. Edgar,  Po-Tung Fang,  S. Faraji,  S. Fatehi,
 Qingguo Feng,  J. Fosso-Tande,  J. Gayvert,  Qinghui Ge,  A. Ghysels,
 G. Gidofalvi,  J. Gomes,  J. Gonthier,  S. Gulania,  A. Gunina,  D. Hait,
 M. W. D. Hanson-Heine,  S. Hammes-Schiffer,  P. H. P. Harbach,
 A. W. Hauser,  M. F. Herbst,  J. E. Herr,  E. G. Hohenstein,  Z. C. Holden,
 S. Houck,  Kerwin Hui,  B. C. Huynh,  M. Ivanov,  T.-C. Jagau,  Hyunjun Ji,
 B. Kaduk,  K. Khistyaev,  Jaehoon Kim,  P. Klunzinger,  K. Koh,
 D. Kosenkov,  L. Koulias,  T. Kowalczyk,  C. M. Krauter,  A. Kunitsa,
 Ka Un Lao,  A. Laurent,  K. V. Lawler,  Joonho Lee,  D. Lefrancois,
 S. Lehtola,  D. S. Levine,  Yi-Pei Li,  You-Sheng Lin,  Fenglai Liu,
 Kuan-Yu Liu,  E. Livshits,  M. Loipersberger,  A. Luenser,  P. Manohar,
 E. Mansoor,  S. F. Manzer,  Shan-Ping Mao,  Yuezhi Mao,  N. Mardirossian,
 A. V. Marenich,  T. Markovich,  L. A. Martinez-Martinez,  S. A. Maurer,
 N. J. Mayhall,  S. C. McKenzie,  J.-M. Mewes,  P. Morgante,  A. F. Morrison,
 J. W. Mullinax,  K. Nanda,  T. S. Nguyen-Beck,  R. Olivares-Amaya,
 K. J. Oosterbaan,  J. A. Parkhill,  S. K. Paul,  F. Pavosevic,  Zheng Pei,
 T. M. Perrine,  F. Plasser,  P. Pokhilko,  S. Prager,  A. Prociuk,
 E. Ramos,  B. Rana,  D. R. Rehn,  F. Rob,  E. Rossomme,  M. Scheurer,
 M. Schneider,  N. Sergueev,  S. M. Sharada,  S. Sharma,  W. Skomorowski,
 D. W. Small,  T. Stauch,  C. J. Stein,  T. Stein,  Yu-Chuan Su,
 S. P. Veccham,  Zhen Tao,  A. J. W. Thom,  A. Tkatchenko,  T. Tsuchimochi,
 N. M. Tubman,  L. Vogt,  M. L. Vidal,  O. Vydrov,  M. A. Watson,  J. Wenzel,
 M. de Wergifosse,  T. A. Wesolowski,  A. White,  J. Witte,  A. Yamada,
 Jun Yang,  K. Yao,  S. Yeganeh,  S. R. Yost,  Zhi-Qiang You,  A. Zech,
 Igor Ying Zhang,  Xing Zhang,  Yan Zhao,  Ying Zhu,  B. R. Brooks,
 G. K. L. Chan,  C. J. Cramer,  M. S. Gordon,  W. J. Hehre,  A. Klamt,
 M. W. Schmidt,  C. D. Sherrill,  D. G. Truhlar,  A. Aspuru-Guzik,  R. Baer,
 A. T. Bell,  N. A. Besley,  Jeng-Da Chai,  A. E. DePrince, III,
 R. A. DiStasio Jr.,  A. Dreuw,  B. D. Dunietz,  T. R. Furlani,
 Chao-Ping Hsu,  Yousung Jung,  Jing Kong,  D. S. Lambrecht,  WanZhen Liang,
 C. Ochsenfeld,  V. A. Rassolov,  L. V. Slipchenko,  J. E. Subotnik,
 T. Van Voorhis,  J. M. Herbert,  A. I. Krylov,  P. M. W. Gill,  M. Head-Gordon

 Contributors to earlier versions of Q-Chem not listed above:
 R. D. Adamson,  B. Austin,  J. Baker,  G. J. O. Beran,  K. Brandhorst,
 S. T. Brown,  E. F. C. Byrd,  A. K. Chakraborty,  C.-L. Cheng,
 Siu Hung Chien,  D. M. Chipman,  D. L. Crittenden,  H. Dachsel,
 R. J. Doerksen,  A. D. Dutoi,  L. Fusti-Molnar,  W. A. Goddard III,
 A. Golubeva-Zadorozhnaya,  S. R. Gwaltney,  G. Hawkins,  A. Heyden,
 S. Hirata,  G. Kedziora,  F. J. Keil,  C. Kelley,  Jihan Kim,  R. A. King,
 R. Z. Khaliullin,  P. P. Korambath,  W. Kurlancheek,  A. M. Lee,  M. S. Lee,
 S. V. Levchenko,  Ching Yeh Lin,  D. Liotard,  R. C. Lochan,  I. Lotan,
 P. E. Maslen,  N. Nair,  D. P. O'Neill,  D. Neuhauser,  E. Neuscamman,
 C. M. Oana,  R. Olson,  B. Peters,  R. Peverati,  P. A. Pieniazek,
 Y. M. Rhee,  J. Ritchie,  M. A. Rohrdanz,  E. Rosta,  N. J. Russ,
 H. F. Schaefer III,  N. E. Schultz,  N. Shenvi,  A. C. Simmonett,  A. Sodt,
 D. Stuck,  K. S. Thanthiriwatte,  V. Vanovschi,  Tao Wang,  A. Warshel,
 C. F. Williams,  Q. Wu,  X. Xu,  W. Zhang

 Please cite Q-Chem as follows:
 Y. Shao et al., Mol. Phys. 113, 184-215 (2015)
 DOI: 10.1080/00268976.2014.952696

 Q-Chem 5.3.1 for Intel X86 EM64T Linux

 Parts of Q-Chem use Armadillo 9.800.1 (Horizon Scraper).
 http://arma.sourceforge.net/

 Q-Chem begins on Fri Oct 30 10:11:15 2020

Host:
0

     Scratch files written to /data/scratch/MN_93_RKT19_BH76_PBEh_3c//
Processing $rem in /home/pierpa/qchem53/config/preferences:
Processing $rem in /home/pierpa/.qchemrc:
The previous job contains 0 fragments, simply inherited here

Checking the input file for inconsistencies... 	...done.

--------------------------------------------------------------
User input:
--------------------------------------------------------------

$Comment
Geometry optimizations for CLB18.
$End

$Rem
SYMMETRY              False
SYM_IGNORE            True
JOBTYPE               Freq
METHOD                PBEh-3c
BASIS                 def2-mSVP
GEOM_OPT_MAX_CYCLES   150
GEOM_OPT_DMAX         10
MAX_SCF_CYCLES        50
SCF_ALGORITHM         DIIS
SCF_PRINT             1
SCF_FINAL_PRINT       1
XC_GRID               000099000590
MEM_TOTAL             20000
MEM_STATIC            4000
BLAS3_DFT             True
New_DFT               True
$End

$Molecule
Read
$End

--------------------------------------------------------------

             Standard Nuclear Orientation (Angstroms)
    I     Atom           X                Y                Z
 ----------------------------------------------------------------
    1      C      -1.3892505207    -0.4443630398     0.0096293220
    2      C      -0.4415152465     0.7179922611    -0.0508898101
    3      N       1.9349420289    -0.3319058443    -0.1027438657
    4      H      -1.2800861470    -1.0929880138    -0.8589533676
    5      H      -1.2240169548    -1.0501980040     0.9001352396
    6      H      -2.4294539314    -0.1066187978     0.0352042134
    7      H      -0.4651419215     1.3004429895    -0.9684300450
    8      H      -0.4092362507     1.3498121112     0.8329670821
    9      H       0.8205332160     0.1412463909    -0.1010961760
   10      H       2.4714439673     0.4646845302     0.2723132662
 ----------------------------------------------------------------

   14    -134.7214666166      6.44e-09  Convergence criterion met
 Total energy in the final basis set =     -134.7214666166

                    Orbital Energies (a.u.)
 --------------------------------------------------------------

 Alpha MOs
 -- Occupied --
-14.6647 -10.4511 -10.4319  -0.9396  -0.8523  -0.6981  -0.5349  -0.5123
 -0.4617  -0.4426  -0.4100  -0.4040  -0.3726  -0.2668

 Beta MOs
 -- Occupied --
-14.6311 -10.4389 -10.4324  -0.8531  -0.8176  -0.6768  -0.5065  -0.4939
 -0.4401  -0.4335  -0.4055  -0.3372

          Ground-State Mulliken Net Atomic Charges

     Atom                 Charge (a.u.)    Spin (a.u.)
  --------------------------------------------------------
      1 C                    -0.631673      -0.044690
      2 C                    -0.610060       0.682900
      3 N                    -0.504582       1.558955
      4 H                     0.230493       0.006391
      5 H                     0.226344       0.006848
      6 H                     0.225682       0.036669
      7 H                     0.234202      -0.024412
      8 H                     0.227927      -0.026653
      9 H                     0.300407      -0.139765
     10 H                     0.301259      -0.056242
  --------------------------------------------------------
  Sum of atomic charges =     0.000000

                    Cartesian Multipole Moments
 -----------------------------------------------------------------
    Charge (ESU x 10^10)
                 0.0000
    Dipole Moment (Debye)
         X      -0.7409      Y       1.5909      Z       0.5566
       Tot       1.8411
    Quadrupole Moments (Debye-Ang)
        XX     -21.0652     XY       3.7116     YY     -21.6233
        XZ       1.4634     YZ      -0.1926     ZZ     -20.4973

 Frequency:     -1800.34                -128.22                 138.86
 Force Cnst:      2.0802                 0.0105                 0.0280
 Red. Mass:       1.0893                 1.0823                 2.4621
 IR Intens:      894.276                 82.436                  6.655
 Frequency:       159.56                 454.65                 519.69
 Force Cnst:      0.0176                 0.1371                 0.3382
 Red. Mass:       1.1742                 1.1260                 2.1253
 IR Intens:        1.504                  7.362                  3.147
 Frequency:       736.87                 849.48                 948.58
 Force Cnst:      0.4205                 0.4463                 0.6173
 Red. Mass:       1.3143                 1.0497                 1.1644
 IR Intens:       14.602                  9.664                 46.331
 Frequency:      1088.72                1201.95                1235.06
 Force Cnst:      1.9604                 1.0863                 1.2321
 Red. Mass:       2.8072                 1.2762                 1.3710
 IR Intens:        2.268                 13.045                  5.024
 Frequency:      1270.57                1454.87                1507.00
 Force Cnst:      1.1810                 1.5065                 1.4473
 Red. Mass:       1.2416                 1.2080                 1.0816
 IR Intens:        9.589                  7.605                 19.816
 Frequency:      1518.85                1539.78                1542.36
 Force Cnst:      1.5275                 1.4473                 1.4671
 Red. Mass:       1.1238                 1.0361                 1.0467
 IR Intens:       44.789                  8.379                 12.729
 Frequency:      3098.31                3170.08                3177.89
 Force Cnst:      5.8991                 6.3269                 6.4210
 Red. Mass:       1.0430                 1.0686                 1.0791
 IR Intens:       17.771                  3.544                 21.865
 Frequency:      3206.23                3259.40                3430.62
 Force Cnst:      6.6862                 6.9607                 7.4419
 Red. Mass:       1.1039                 1.1121                 1.0732
 IR Intens:        8.488                 17.809                 11.170

 STANDARD THERMODYNAMIC QUANTITIES AT   298.15 K  AND     1.00 ATM

   This Molecule has  2 Imaginary Frequencies
   Zero point vibrational energy:       50.763 kcal/mol

   Atom    1 Element C  Has Mass   12.00000
   Atom    2 Element C  Has Mass   12.00000
   Atom    3 Element N  Has Mass   14.00307
   Atom    4 Element H  Has Mass    1.00783
   Atom    5 Element H  Has Mass    1.00783
   Atom    6 Element H  Has Mass    1.00783
   Atom    7 Element H  Has Mass    1.00783
   Atom    8 Element H  Has Mass    1.00783
   Atom    9 Element H  Has Mass    1.00783
   Atom   10 Element H  Has Mass    1.00783
   Molecular Mass:    45.057880 amu
   Principal axes and moments of inertia in amu*Bohr^2:
                             1           2           3
    Eigenvalues --       69.59589   348.43922   394.07777
          X               0.99934     0.02918     0.02173
          Y              -0.02937     0.99953     0.00853
          Z              -0.02148    -0.00916     0.99973
   Rotational Symmetry Number is   1
   The Molecule is an Asymmetric Top
   Translational Enthalpy:        0.889 kcal/mol
   Rotational Enthalpy:           0.889 kcal/mol
   Vibrational Enthalpy:         52.057 kcal/mol
   gas constant (RT):             0.592 kcal/mol
   Translational Entropy:        37.342  cal/mol.K
   Rotational Entropy:           23.773  cal/mol.K
   Vibrational Entropy:           7.547  cal/mol.K

   Total Enthalpy:               54.427 kcal/mol
   Total Entropy:                68.661  cal/mol.K

 Total job time:  197.90s(wall), 1561.77s(cpu)
        *  Thank you very much for using Q-Chem.  Have a nice day.  *
