 Gaussian 16, Revision A.03,
 Gaussian 16:  ES64L-G16RevA.03 25-Dec-2016

 ----------------------------------------------------------------------
 #P Opt(MaxCyc=100) TPSSh/6-31G* 5D 7F Integral=UltraFineGrid SCF=(NoSy
 mm,XQC,MaxCyc=120) IOp(1/33=1,3/174=1000000,3/175=2238200,3/177=045290
 0,3/178=4655000) EmpiricalDispersion=GD3BJ
 ----------------------------------------------------------------------

 TstMul:  Mul=     2
 TstMul:  ICh=     0
 TstMul:  Mul=     2
 Symbolic Z-matrix:
 Charge =  0 Multiplicity = 2

 SCF Done:  E(UTPSSh) =  -79.1669089205     A.U. after   13 cycles
 SCF Done:  E(UTPSSh) =  -79.1670627006     A.U. after   10 cycles
 SCF Done:  E(UTPSSh) =  -79.1670648999     A.U. after    8 cycles
 SCF Done:  E(UTPSSh) =  -79.1670651357     A.U. after    8 cycles
 Optimization completed.
    -- Stationary point found.

                         Standard orientation:
 ---------------------------------------------------------------------
 Center     Atomic      Atomic             Coordinates (Angstroms)
 Number     Number       Type             X           Y           Z
 ---------------------------------------------------------------------
      1          6           0       -0.011859   -0.695930    0.000000
      2          6           0       -0.011859    0.796619   -0.000000
      3          1           0        1.012327   -1.109702    0.000000
      4          1           0       -0.512576   -1.100135    0.887988
      5          1           0       -0.512576   -1.100135   -0.887988
      6          1           0        0.077568    1.352919   -0.928361
      7          1           0        0.077568    1.352919    0.928361
 ---------------------------------------------------------------------

 The electronic state is 2-A'.
 Alpha  occ. eigenvalues --  -10.11896 -10.11169  -0.73047  -0.58729  -0.42793
 Alpha  occ. eigenvalues --   -0.39271  -0.36569  -0.33790  -0.18451
 Alpha virt. eigenvalues --    0.11709   0.13842   0.14644   0.17638   0.22018
 Alpha virt. eigenvalues --    0.25345   0.51526   0.54418   0.55183   0.61631
 Alpha virt. eigenvalues --    0.61937   0.74385   0.79926   0.87912   0.88271

  Beta  occ. eigenvalues --  -10.11294 -10.10296  -0.71407  -0.56301  -0.42209
  Beta  occ. eigenvalues --   -0.37775  -0.35860  -0.33464
  Beta virt. eigenvalues --   -0.03583   0.12301   0.15108   0.15718   0.18453
  Beta virt. eigenvalues --    0.22771   0.26722   0.52338   0.54887   0.60526
  Beta virt. eigenvalues --    0.64001   0.65928   0.75498   0.82886   0.88868

 Mulliken charges and spin densities:
               1          2
     1  C   -0.494979  -0.096251
     2  C   -0.326874   1.113529
     3  H    0.168457   0.065301
     4  H    0.168214   0.014662
     5  H    0.168214   0.014662
     6  H    0.158484  -0.055951
     7  H    0.158484  -0.055951
 Sum of Mulliken charges =   0.00000   1.00000

 Dipole moment (field-independent basis, Debye):
    X=              0.1378    Y=             -0.2016    Z=              0.0000  Tot=              0.2442
 Quadrupole moment (field-independent basis, Debye-Ang):
   XX=            -14.8802   YY=            -13.9258   ZZ=            -13.3804
   XY=              0.2003   XZ=             -0.0000   YZ=             -0.0000

 1\1\GINC-NODE34\FOpt\UTPSSh\6-31G(d)\C2H5(2)\RPEVERATI\07-Oct-2020\0\\
 #P Opt(MaxCyc=100) TPSSh/6-31G* 5D 7F Integral=UltraFineGrid SCF=(NoSy
 mm,XQC,MaxCyc=120) IOp(1/33=1,3/174=1000000,3/175=2238200,3/177=045290
 0,3/178=4655000) EmpiricalDispersion=GD3BJ\\TS search on BH76.\\0,2\C,
 -0.0113344735,-0.6950614144,0.\C,-0.0169777823,0.7974774552,0.\H,1.014
 4088693,-1.1049574279,0.\H,-0.5105190997,-1.1011568428,0.8879878588\H,
 -0.5105190997,-1.1011568428,-0.8879878588\H,0.0703457035,1.3541111302,
 -0.9283608589\H,0.0703457035,1.3541111302,0.9283608589\\Version=ES64L-

 Normal termination of Gaussian 16 at Wed Oct  7 14:40:04 2020.
