 Gaussian 16, Revision A.03,
 Gaussian 16:  ES64L-G16RevA.03 25-Dec-2016

 ----------------------------------------------------------------------
 #P Opt(MaxCyc=100) TPSSh/6-31G* 5D 7F Integral=UltraFineGrid SCF=(NoSy
 mm,XQC,MaxCyc=120) IOp(1/33=1,3/174=1000000,3/175=2238200,3/177=045290
 0,3/178=4655000) EmpiricalDispersion=GD3BJ
 ----------------------------------------------------------------------

 TstMul:  Mul=     1
 TstMul:  ICh=     0
 TstMul:  Mul=     1
 Symbolic Z-matrix:
 Charge =  0 Multiplicity = 1

 SCF Done:  E(RTPSSh) =  -500.111097408     A.U. after   11 cycles
 SCF Done:  E(RTPSSh) =  -500.111252308     A.U. after   10 cycles
 SCF Done:  E(RTPSSh) =  -500.111259895     A.U. after    7 cycles
 SCF Done:  E(RTPSSh) =  -500.111261418     A.U. after    7 cycles
 Optimization completed.
    -- Stationary point found.

                         Standard orientation:
 ---------------------------------------------------------------------
 Center     Atomic      Atomic             Coordinates (Angstroms)
 Number     Number       Type             X           Y           Z
 ---------------------------------------------------------------------
      1          6           0        0.000000    0.000000   -1.136652
      2         17           0        0.000000    0.000000    0.662234
      3          1           0        0.000000    1.034640   -1.479357
      4          1           0        0.896024   -0.517320   -1.479357
      5          1           0       -0.896024   -0.517320   -1.479357
 ---------------------------------------------------------------------

 The electronic state is 1-A1.
 Alpha  occ. eigenvalues -- -101.35661 -10.17762  -9.36244  -7.11227  -7.10108
 Alpha  occ. eigenvalues --   -7.10108  -0.82598  -0.66129  -0.43594  -0.43594
 Alpha  occ. eigenvalues --   -0.39625  -0.28007  -0.28007
 Alpha virt. eigenvalues --    0.01872   0.10827   0.14233   0.14233   0.41277
 Alpha virt. eigenvalues --    0.44527   0.46670   0.46670   0.52794   0.52794
 Alpha virt. eigenvalues --    0.55905   0.83862   0.83862   0.88662   0.89002

 Mulliken charges:
               1
     1  C   -0.560771
     2  Cl  -0.088466
     3  H    0.216412
     4  H    0.216412
     5  H    0.216412
 Sum of Mulliken charges =  -0.00000

 Dipole moment (field-independent basis, Debye):
    X=              0.0000    Y=             -0.0000    Z=             -2.1108  Tot=              2.1108
 Quadrupole moment (field-independent basis, Debye-Ang):
   XX=            -19.7170   YY=            -19.7170   ZZ=            -17.9033
   XY=             -0.0000   XZ=             -0.0000   YZ=              0.0000

 1\1\GINC-NODE42\FOpt\RTPSSh\6-31G(d)\C1H3Cl1\RPEVERATI\07-Oct-2020\0\\
 #P Opt(MaxCyc=100) TPSSh/6-31G* 5D 7F Integral=UltraFineGrid SCF=(NoSy
 mm,XQC,MaxCyc=120) IOp(1/33=1,3/174=1000000,3/175=2238200,3/177=045290
 0,3/178=4655000) EmpiricalDispersion=GD3BJ\\TS search on BH76.\\0,1\C,
 0.,0.,-0.154165467\Cl,0.,0.,1.6447206583\H,-0.5173198043,-0.8960241848
 ,-0.4968708433\H,-0.5173198043,0.8960241848,-0.4968708433\H,1.03463960
 86,0.,-0.4968708433\\Version=ES64L-G16RevA.03\State=1-A1\HF=-500.11126
 14\RMSD=3.251e-09\RMSF=9.611e-06\Dipole=0.,0.,-0.8304594\Quadrupole=-0

 Normal termination of Gaussian 16 at Wed Oct  7 14:40:27 2020.
