 Gaussian 16, Revision A.03,
 Gaussian 16:  ES64L-G16RevA.03 25-Dec-2016

 ----------------------------------------------------------------------
 #P Opt(MaxCyc=100) TPSSh/6-31G* 5D 7F Integral=UltraFineGrid SCF=(NoSy
 mm,XQC,MaxCyc=120) IOp(1/33=1,3/174=1000000,3/175=2238200,3/177=045290
 0,3/178=4655000) EmpiricalDispersion=GD3BJ
 ----------------------------------------------------------------------

 TstMul:  Mul=     1
 TstMul:  ICh=     0
 TstMul:  Mul=     1
 Symbolic Z-matrix:
 Charge =  0 Multiplicity = 1

 SCF Done:  E(RTPSSh) =  -79.8380774342     A.U. after    9 cycles
 SCF Done:  E(RTPSSh) =  -79.8382191387     A.U. after    6 cycles
 Optimization completed.
    -- Stationary point found.

                         Standard orientation:
 ---------------------------------------------------------------------
 Center     Atomic      Atomic             Coordinates (Angstroms)
 Number     Number       Type             X           Y           Z
 ---------------------------------------------------------------------
      1          6           0       -0.765815    0.000000   -0.000000
      2          6           0        0.765815    0.000000    0.000000
      3          1           0        1.162841   -0.068389   -1.019434
      4          1           0       -1.162846   -0.916666   -0.451266
      5          1           0        1.162838   -0.848665    0.568940
      6          1           0        1.162846    0.917047    0.450492
      7          1           0       -1.162841    0.067526    1.019491
      8          1           0       -1.162838    0.849145   -0.568222
 ---------------------------------------------------------------------

 The electronic state is 1-A.
 Alpha  occ. eigenvalues --  -10.10435 -10.10423  -0.72738  -0.59393  -0.41265
 Alpha  occ. eigenvalues --   -0.41265  -0.34314  -0.32417  -0.32417
 Alpha virt. eigenvalues --    0.10769   0.15861   0.16204   0.16204   0.19075
 Alpha virt. eigenvalues --    0.19075   0.23648   0.51599   0.55001   0.55001
 Alpha virt. eigenvalues --    0.64114   0.64114   0.66983   0.89343   0.89343

 Mulliken charges:
               1
     1  C   -0.474823
     2  C   -0.474823
     3  H    0.158274
     4  H    0.158275
     5  H    0.158274
     6  H    0.158275
     7  H    0.158274
     8  H    0.158275
 Sum of Mulliken charges =   0.00000

 Dipole moment (field-independent basis, Debye):
    X=             -0.0000    Y=             -0.0000    Z=              0.0000  Tot=              0.0000
 Quadrupole moment (field-independent basis, Debye-Ang):
   XX=            -15.1941   YY=            -14.6658   ZZ=            -14.6658
   XY=              0.0000   XZ=             -0.0000   YZ=             -0.0000

 Normal termination of Gaussian 16 at Wed Oct  7 14:39:38 2020.
