 Gaussian 16, Revision A.03,

 ----------------------------------------------------------------------
 #P Opt(TS,MaxCyc=50,NoEigenTest,MaxStep=10,AddRedundant) TPSSh/6-31G*
 5D 7F Integral=UltraFineGrid SCF=(NoSymm,XQC,MaxCyc=120) IOp(1/33=1,3/
 174=1000000,3/175=2238200,3/177=0452900,3/178=4655000) EmpiricalDisper
 sion=GD3BJ
 ----------------------------------------------------------------------

 TstMul:  Mul=     2
 TstMul:  ICh=     0
 TstMul:  Mul=     2
 Symbolic Z-matrix:
 Charge =  0 Multiplicity = 2

 SCF Done:  E(UTPSSh) =  -118.434688836     A.U. after   17 cycles
 SCF Done:  E(UTPSSh) =  -118.435897296     A.U. after   15 cycles
 SCF Done:  E(UTPSSh) =  -118.434860401     A.U. after   15 cycles
 SCF Done:  E(UTPSSh) =  -118.434181211     A.U. after   16 cycles
 SCF Done:  E(UTPSSh) =  -118.433829853     A.U. after   16 cycles
 SCF Done:  E(UTPSSh) =  -118.433737812     A.U. after   16 cycles
 SCF Done:  E(UTPSSh) =  -118.433734807     A.U. after   11 cycles
 SCF Done:  E(UTPSSh) =  -118.433735601     A.U. after   10 cycles
 SCF Done:  E(UTPSSh) =  -118.433740979     A.U. after   12 cycles
 SCF Done:  E(UTPSSh) =  -118.433743788     A.U. after   11 cycles
 SCF Done:  E(UTPSSh) =  -118.433749620     A.U. after   12 cycles
 SCF Done:  E(UTPSSh) =  -118.433751821     A.U. after   11 cycles
 SCF Done:  E(UTPSSh) =  -118.433752921     A.U. after   11 cycles
 SCF Done:  E(UTPSSh) =  -118.433753184     A.U. after   10 cycles
 SCF Done:  E(UTPSSh) =  -118.433753288     A.U. after   10 cycles
 Optimization completed.
    -- Stationary point found.
 Normal termination of Gaussian 16 at Wed Oct  7 14:43:22 2020.
 Gaussian 16:  ES64L-G16RevA.03 25-Dec-2016

 ----------------------------------------------------------------------
 #P Freq TPSSh/6-31G* 5D 7F Integral=UltraFineGrid SCF=(NoSymm,XQC,MaxC
 yc=120) IOp(1/33=1,3/174=1000000,3/175=2238200,3/177=0452900,3/178=465
 5000) EmpiricalDispersion=GD3BJ Geom=Check Guess=Read
 ----------------------------------------------------------------------

 TstMul:  Mul=     2
 TstMul:  ICh=     0
 TstMul:  Mul=     2
 Structure from the checkpoint file:  "MN_17_c3h7ts_BH76_TPSShDBJ_631Gs.chk"
 Charge =  0 Multiplicity = 2

                         Standard orientation:
 ---------------------------------------------------------------------
 Center     Atomic      Atomic             Coordinates (Angstroms)
 Number     Number       Type             X           Y           Z
 ---------------------------------------------------------------------
      1          6           0       -0.537768    0.647768    0.000033
      2          6           0       -1.422917   -0.376425   -0.000022
      3          1           0       -0.264941    1.154003   -0.921272
      4          1           0       -0.264741    1.153738    0.921426
      5          1           0       -1.771594   -0.828366    0.924588
      6          1           0       -1.771784   -0.828068   -0.924705
      7          6           0        1.709037   -0.233524   -0.000029
      8          1           0        2.248232    0.708770   -0.011962
      9          1           0        1.663839   -0.803228   -0.921372
     10          1           0        1.670875   -0.783762    0.933404
 ---------------------------------------------------------------------

 SCF Done:  E(UTPSSh) =  -118.433753288     A.U. after    1 cycles

 The electronic state is 2-A.
 Alpha  occ. eigenvalues --  -10.11796 -10.11729 -10.11100  -0.73101  -0.65537
 Alpha  occ. eigenvalues --   -0.55826  -0.44294  -0.39630  -0.38638  -0.38114
 Alpha  occ. eigenvalues --   -0.33469  -0.27336  -0.17405
 Alpha virt. eigenvalues --    0.02603   0.10301   0.13947   0.14310   0.16975
 Alpha virt. eigenvalues --    0.18346   0.18396   0.24730   0.32700   0.46344
 Alpha virt. eigenvalues --    0.53736   0.54062   0.55968   0.60550   0.60705

  Beta  occ. eigenvalues --  -10.12098 -10.10497 -10.10271  -0.72612  -0.62262
  Beta  occ. eigenvalues --   -0.55383  -0.44128  -0.39209  -0.37944  -0.37606
  Beta  occ. eigenvalues --   -0.33347  -0.24884
  Beta virt. eigenvalues --   -0.05229   0.04725   0.11185   0.14434   0.15005
  Beta virt. eigenvalues --    0.17368   0.19465   0.19526   0.24885   0.33018
  Beta virt. eigenvalues --    0.47050   0.54395   0.56207   0.58528   0.61373

 Mulliken charges and spin densities:
               1          2
     1  C   -0.310888  -0.226941
     2  C   -0.325240   0.411033
     3  H    0.169200   0.012543
     4  H    0.169219   0.012541
     5  H    0.155986  -0.020415
     6  H    0.155981  -0.020416
     7  C   -0.522248   0.956125
     8  H    0.165180  -0.039661
     9  H    0.171466  -0.042404
    10  H    0.171343  -0.042406
 Sum of Mulliken charges =  -0.00000   1.00000

 Dipole moment (field-independent basis, Debye):
    X=              0.1882    Y=              0.0581    Z=              0.0001  Tot=              0.1970
 Quadrupole moment (field-independent basis, Debye-Ang):
   XX=            -21.9478   YY=            -20.2945   ZZ=            -19.2052
   XY=              1.4882   XZ=              0.0003   YZ=             -0.0000

  Exact polarizability:  49.764   7.591  31.972  -0.000  -0.003  31.088
 Approx polarizability:  72.649  15.461  45.974   0.001  -0.002  40.729

 ******    1 imaginary frequencies (negative Signs) ******

                      1                      2                      3
                      A                      A                      A
 Frequencies --   -302.2099                84.6455               204.1603
 Red. masses --      9.2266                 1.0904                 2.4939
 Frc consts  --      0.4965                 0.0046                 0.0612
 IR Inten    --      0.6989                 0.0059                 0.7176

                      4                      5                      6
                      A                      A                      A
 Frequencies --    330.9630               438.9361               461.7420
 Red. masses --      1.0582                 1.1090                 1.0920
 Frc consts  --      0.0683                 0.1259                 0.1372
 IR Inten    --      0.1630                 1.7381                 0.8713

                      7                      8                      9
                      A                      A                      A
 Frequencies --    734.2585               822.3299               869.2432
 Red. masses --      1.0744                 1.0427                 1.4358
 Frc consts  --      0.3413                 0.4154                 0.6392
 IR Inten    --      8.9935                 0.6622                24.3465

                     10                     11                     12
                      A                      A                      A
 Frequencies --    940.1735              1034.3678              1252.7330
 Red. masses --      1.1469                 1.0171                 1.4976
 Frc consts  --      0.5973                 0.6411                 1.3847
 IR Inten    --     60.3064                 0.0598                 0.0503

                     13                     14                     15
                      A                      A                      A
 Frequencies --   1340.3463              1457.5826              1462.8363
 Red. masses --      1.5985                 1.0966                 1.0959
 Frc consts  --      1.6919                 1.3726                 1.3817
 IR Inten    --      0.6513                 1.2083                 1.0402

                     16                     17                     18
                      A                      A                      A
 Frequencies --   1499.1609              1631.0031              3128.2917
 Red. masses --      1.1133                 1.9336                 1.0116
 Frc consts  --      1.4742                 3.0305                 5.8326
 IR Inten    --      3.1995                 0.1494                 0.1523

                     19                     20                     21
                      A                      A                      A
 Frequencies --   3160.0368              3173.2308              3234.3123
 Red. masses --      1.0483                 1.0654                 1.1151
 Frc consts  --      6.1676                 6.3205                 6.8726
 IR Inten    --     19.5922                 1.1255                 0.9896

                     22                     23                     24
                      A                      A                      A
 Frequencies --   3260.9870              3286.1831              3297.3890
 Red. masses --      1.1180                 1.1157                 1.1161
 Frc consts  --      7.0047                 7.0990                 7.1498
 IR Inten    --     29.9987                13.1485                14.1812

 - Thermochemistry -
 -------------------
 Temperature   298.150 Kelvin.  Pressure   1.00000 Atm.
 Atom     1 has atomic number  6 and mass  12.00000

 Molecular mass:    43.05478 amu.
 Principal axes and moments of inertia in atomic units:
                           1         2         3
     Eigenvalues --    65.61948 303.97600 332.68390
           X            0.99982   0.01878   0.00000
           Y           -0.01878   0.99982  -0.00003
           Z           -0.00000   0.00003   1.00000
 This molecule is an asymmetric top.
 Rotational symmetry number  1.
 Rotational temperatures (Kelvin)      1.31994     0.28494     0.26035
 Rotational constants (GHZ):          27.50313     5.93712     5.42479
    1 imaginary frequencies ignored.
 Zero-point vibrational energy     221936.7 (Joules/Mol)
                                   53.04414 (Kcal/Mol)
 Warning -- explicit consideration of   5 degrees of freedom as
           vibrations may cause significant error
 Vibrational temperatures:    121.79   293.74   476.18   631.53   664.34
          (Kelvin)           1056.43  1183.15  1250.65  1352.70  1488.22
                             1802.40  1928.46  2097.14  2104.70  2156.96
                             2346.65  4500.91  4546.59  4565.57  4653.45
                             4691.83  4728.08  4744.21

 Zero-point correction=                           0.084531 (Hartree/Particle)
 Thermal correction to Energy=                    0.089946
 Thermal correction to Enthalpy=                  0.090890
 Thermal correction to Gibbs Free Energy=         0.056854
 Sum of electronic and zero-point Energies=           -118.349222
 Sum of electronic and thermal Energies=              -118.343807
 Sum of electronic and thermal Enthalpies=            -118.342863
 Sum of electronic and thermal Free Energies=         -118.376899

                     E (Thermal)             CV                S
                      KCal/Mol        Cal/Mol-Kelvin    Cal/Mol-Kelvin
 Total                   56.442             17.398             71.635
 Electronic               0.000              0.000              1.377
 Translational            0.889              2.981             37.206
 Rotational               0.889              2.981             23.410
 Vibrational             54.665             11.436              9.641
 Vibration     1          0.601              1.960              3.780
 Vibration     2          0.640              1.834              2.095
 Vibration     3          0.713              1.614              1.255
 Vibration     4          0.799              1.385              0.830
 Vibration     5          0.819              1.335              0.761

                           ! Non-Optimized Parameters !

 1\1\GINC-NODE59\Freq\UTPSSh\6-31G(d)\C3H7(2)\RPEVERATI\07-Oct-2020\0\\
 #P Freq TPSSh/6-31G* 5D 7F Integral=UltraFineGrid SCF=(NoSymm,XQC,MaxC
 yc=120) IOp(1/33=1,3/174=1000000,3/175=2238200,3/177=0452900,3/178=465
 5000) EmpiricalDispersion=GD3BJ Geom=Check Guess=Read\\TS search on BH
 76.\\0,2\C,-0.533087102,0.6557190992,0.0018508359\C,-1.4320981818,-0.3
 56322983,-0.0015059686\H,-0.253111623,1.1609465952,-0.9178613283\H,-0.
 2534776939,1.1551656713,0.9248271207\H,-1.787177837,-0.8062380506,0.92
 16530019\H,-1.7867994406,-0.8004055096,-0.9276307376\C,1.7015108579,-0

 Normal termination of Gaussian 16 at Wed Oct  7 14:44:18 2020.
