 Gaussian 16, Revision A.03,
 Gaussian 16:  ES64L-G16RevA.03 25-Dec-2016

 ----------------------------------------------------------------------
 #P Opt(MaxCyc=100) TPSSh/6-31G* 5D 7F Integral=UltraFineGrid SCF=(NoSy
 mm,XQC,MaxCyc=120) IOp(1/33=1,3/174=1000000,3/175=2238200,3/177=045290
 0,3/178=4655000) EmpiricalDispersion=GD3BJ
 ----------------------------------------------------------------------

 TstMul:  Mul=     2
 TstMul:  ICh=     0
 TstMul:  Mul=     2
 Symbolic Z-matrix:
 Charge =  0 Multiplicity = 2

 SCF Done:  E(UTPSSh) =  -118.486221361     A.U. after   14 cycles
 SCF Done:  E(UTPSSh) =  -118.486425813     A.U. after   10 cycles
 SCF Done:  E(UTPSSh) =  -118.486429004     A.U. after    9 cycles
 SCF Done:  E(UTPSSh) =  -118.486429359     A.U. after    8 cycles
 Optimization completed.
    -- Stationary point found.

                         Standard orientation:
 ---------------------------------------------------------------------
 Center     Atomic      Atomic             Coordinates (Angstroms)
 Number     Number       Type             X           Y           Z
 ---------------------------------------------------------------------
      1          6           0        1.213661   -0.288520    0.000062
      2          6           0       -0.068464    0.578431   -0.000061
      3          6           0       -1.321516   -0.236983   -0.000014
      4          1           0        1.247488   -0.932328    0.885878
      5          1           0        1.247519   -0.932531   -0.885606
      6          1           0        2.110472    0.342801    0.000003
      7          1           0       -0.046899    1.232834   -0.881754
      8          1           0       -0.046956    1.233027    0.881486
      9          1           0       -1.727028   -0.630388    0.928274
     10          1           0       -1.726686   -0.630980   -0.928202
 ---------------------------------------------------------------------

 The electronic state is 2-A.
 Alpha  occ. eigenvalues --  -10.11734 -10.11642 -10.10759  -0.75653  -0.65222
 Alpha  occ. eigenvalues --   -0.56055  -0.44279  -0.40767  -0.37454  -0.35721
 Alpha  occ. eigenvalues --   -0.32989  -0.31623  -0.18481
 Alpha virt. eigenvalues --    0.10690   0.13894   0.14139   0.15939   0.17783
 Alpha virt. eigenvalues --    0.17917   0.22240   0.22532   0.26813   0.52004
 Alpha virt. eigenvalues --    0.53793   0.54370   0.55761   0.59217   0.61347

  Beta  occ. eigenvalues --  -10.11760 -10.10595 -10.10146  -0.74664  -0.63348
  Beta  occ. eigenvalues --   -0.54700  -0.43868  -0.40274  -0.37063  -0.34546
  Beta  occ. eigenvalues --   -0.32484  -0.31451
  Beta virt. eigenvalues --   -0.03922   0.11213   0.14513   0.15634   0.16215
  Beta virt. eigenvalues --    0.18151   0.18331   0.22940   0.23154   0.28173
  Beta virt. eigenvalues --    0.52804   0.54686   0.56311   0.57689   0.61885

 Mulliken charges and spin densities:
               1          2
     1  C   -0.473425   0.053045
     2  C   -0.305303  -0.088708
     3  C   -0.328353   1.109707
     4  H    0.159640  -0.001364
     5  H    0.159638  -0.001366
     6  H    0.156063   0.013664
     7  H    0.159514   0.012854
     8  H    0.159511   0.012830
     9  H    0.156359  -0.055331
    10  H    0.156355  -0.055331
 Sum of Mulliken charges =  -0.00000   1.00000

 Dipole moment (field-independent basis, Debye):
    X=              0.2402    Y=             -0.0275    Z=              0.0001  Tot=              0.2418
 Quadrupole moment (field-independent basis, Debye-Ang):
   XX=            -21.5197   YY=            -21.0071   ZZ=            -19.8306
   XY=              0.7693   XZ=             -0.0004   YZ=              0.0004

 1\1\GINC-NODE59\FOpt\UTPSSh\6-31G(d)\C3H7(2)\RPEVERATI\07-Oct-2020\0\\
 #P Opt(MaxCyc=100) TPSSh/6-31G* 5D 7F Integral=UltraFineGrid SCF=(NoSy
 mm,XQC,MaxCyc=120) IOp(1/33=1,3/174=1000000,3/175=2238200,3/177=045290
 0,3/178=4655000) EmpiricalDispersion=GD3BJ\\TS search on BH76.\\0,2\C,
 1.2107303091,-0.2894374424,0.000061162\C,-0.0693348891,0.5805512065,-0
 .000061794\C,-1.3243173143,-0.2318889315,-0.0000148236\H,1.2430309369,
 -0.9333240254,0.8858776947\H,1.2430609004,-0.9335274518,-0.8856069398\
 H,2.109036185,0.3397549823,0.0000022295\H,-0.0462182991,1.2349011894,-

 Normal termination of Gaussian 16 at Wed Oct  7 14:40:21 2020.
