 Gaussian 16, Revision A.03,
 Gaussian 16:  ES64L-G16RevA.03 25-Dec-2016

 ----------------------------------------------------------------------
 #P Opt(MaxCyc=100) TPSSh/6-31G* 5D 7F Integral=UltraFineGrid SCF=(NoSy
 mm,XQC,MaxCyc=120) IOp(1/33=1,3/174=1000000,3/175=2238200,3/177=045290
 0,3/178=4655000) EmpiricalDispersion=GD3BJ
 ----------------------------------------------------------------------

 TstMul:  Mul=     2
 TstMul:  ICh=     0
 TstMul:  Mul=     2
 Symbolic Z-matrix:
 Charge =  0 Multiplicity = 2

 SCF Done:  E(UTPSSh) =  -79.1669196349     A.U. after   13 cycles
 SCF Done:  E(UTPSSh) =  -79.1670633899     A.U. after   10 cycles
 SCF Done:  E(UTPSSh) =  -79.1670647833     A.U. after    9 cycles
 SCF Done:  E(UTPSSh) =  -79.1670649528     A.U. after    8 cycles
 Optimization completed.
    -- Stationary point found.

                         Standard orientation:
 ---------------------------------------------------------------------
 Center     Atomic      Atomic             Coordinates (Angstroms)
 Number     Number       Type             X           Y           Z
 ---------------------------------------------------------------------
      1          6           0        0.796303   -0.000001   -0.025081
      2          6           0       -0.696027    0.000158   -0.000295
      3          1           0       -1.108255    0.893515   -0.484451
      4          1           0        1.353615   -0.928628    0.054983
      5          1           0       -1.092730   -0.011546    1.030554
      6          1           0       -1.108716   -0.882355   -0.503950
      7          1           0        1.354428    0.928075    0.055124
 ---------------------------------------------------------------------

 The electronic state is 2-A.
 Alpha  occ. eigenvalues --  -10.11895 -10.11169  -0.73047  -0.58729  -0.42794
 Alpha  occ. eigenvalues --   -0.39272  -0.36570  -0.33790  -0.18451
 Alpha virt. eigenvalues --    0.11709   0.13841   0.14645   0.17638   0.22019
 Alpha virt. eigenvalues --    0.25346   0.51526   0.54418   0.55183   0.61632
 Alpha virt. eigenvalues --    0.61937   0.74386   0.79926   0.87912   0.88271

  Beta  occ. eigenvalues --  -10.11294 -10.10295  -0.71408  -0.56301  -0.42209
  Beta  occ. eigenvalues --   -0.37775  -0.35860  -0.33464
  Beta virt. eigenvalues --   -0.03583   0.12301   0.15107   0.15720   0.18453
  Beta virt. eigenvalues --    0.22772   0.26723   0.52337   0.54887   0.60526
  Beta virt. eigenvalues --    0.64001   0.65928   0.75499   0.82886   0.88867

 Mulliken charges and spin densities:
               1          2
     1  C   -0.326877   1.113529
     2  C   -0.494978  -0.096253
     3  H    0.168173   0.014116
     4  H    0.158410  -0.055935
     5  H    0.168457   0.065295
     6  H    0.168256   0.015217
     7  H    0.158559  -0.055968
 Sum of Mulliken charges =  -0.00000   1.00000

 Dipole moment (field-independent basis, Debye):
    X=             -0.1993    Y=             -0.0003    Z=              0.1410  Tot=              0.2441
 Quadrupole moment (field-independent basis, Debye-Ang):
   XX=            -13.9194   YY=            -13.3804   ZZ=            -14.8866
   XY=              0.0010   XZ=              0.1843   YZ=              0.0002

 1\1\GINC-NODE38\FOpt\UTPSSh\6-31G(d)\C2H5(2)\RPEVERATI\07-Oct-2020\0\\
 #P Opt(MaxCyc=100) TPSSh/6-31G* 5D 7F Integral=UltraFineGrid SCF=(NoSy
 mm,XQC,MaxCyc=120) IOp(1/33=1,3/174=1000000,3/175=2238200,3/177=045290
 0,3/178=4655000) EmpiricalDispersion=GD3BJ\\TS search on BH76.\\0,2\C,
 0.7969800464,0.0000383957,-0.0282318978\C,-0.6953100646,0.0001624129,-
 0.0011241829\H,-1.1082927831,0.8940750113,-0.4836097207\H,1.3544171819
 ,-0.9286780453,0.0498965776\H,-1.0904090491,-0.0127290046,1.0303267708
 \H,-1.108779593,-0.8817722242,-0.5051510485\H,1.3552271251,0.928024063

 Normal termination of Gaussian 16 at Wed Oct  7 14:40:10 2020.
