 Gaussian 16, Revision A.03,
 Gaussian 16:  ES64L-G16RevA.03 25-Dec-2016

 ----------------------------------------------------------------------
 #P Opt(MaxCyc=100) TPSSh/6-31G* 5D 7F Integral=UltraFineGrid SCF=(NoSy
 mm,XQC,MaxCyc=120) IOp(1/33=1,3/174=1000000,3/175=2238200,3/177=045290
 0,3/178=4655000) EmpiricalDispersion=GD3BJ
 ----------------------------------------------------------------------

 TstMul:  Mul=     1
 TstMul:  ICh=     0
 TstMul:  Mul=     1
 Symbolic Z-matrix:
 Charge =  0 Multiplicity = 1

 SCF Done:  E(RTPSSh) =  -78.5930869710     A.U. after    9 cycles
 SCF Done:  E(RTPSSh) =  -78.5931886966     A.U. after    6 cycles
 SCF Done:  E(RTPSSh) =  -78.5931905827     A.U. after    6 cycles
 Optimization completed.
    -- Stationary point found.

                         Standard orientation:
 ---------------------------------------------------------------------
 Center     Atomic      Atomic             Coordinates (Angstroms)
 Number     Number       Type             X           Y           Z
 ---------------------------------------------------------------------
      1          6           0        0.000000    0.000000    0.666765
      2          6           0        0.000000    0.000000   -0.666765
      3          1           0       -0.000000    0.924073    1.239483
      4          1           0       -0.000000   -0.924073    1.239483
      5          1           0        0.000000    0.924073   -1.239483
      6          1           0       -0.000000   -0.924073   -1.239483
 ---------------------------------------------------------------------

 The electronic state is 1-AG.
 Alpha  occ. eigenvalues --  -10.11562 -10.11491  -0.73318  -0.56038  -0.44633
 Alpha  occ. eigenvalues --   -0.39461  -0.33751  -0.25118
 Alpha virt. eigenvalues --    0.00806   0.12445   0.13992   0.15872   0.24735
 Alpha virt. eigenvalues --    0.32975   0.48413   0.55211   0.57521   0.64088
 Alpha virt. eigenvalues --    0.66637   0.70310   0.85756   0.88247   0.94900

 Mulliken charges:
               1
     1  C   -0.320999
     2  C   -0.320999
     3  H    0.160499
     4  H    0.160499
     5  H    0.160499
     6  H    0.160499
 Sum of Mulliken charges =  -0.00000

 Dipole moment (field-independent basis, Debye):
    X=             -0.0000    Y=              0.0000    Z=             -0.0000  Tot=              0.0000
 Quadrupole moment (field-independent basis, Debye-Ang):
   XX=            -15.0475   YY=            -12.0416   ZZ=            -11.8869
   XY=              0.0000   XZ=             -0.0000   YZ=              0.0000

 Normal termination of Gaussian 16 at Wed Oct  7 14:39:18 2020.
