 Gaussian 16, Revision A.03,
 Gaussian 16:  ES64L-G16RevA.03 25-Dec-2016

 ----------------------------------------------------------------------
 #P Opt(MaxCyc=100) TPSSh/6-31G* 5D 7F Integral=UltraFineGrid SCF=(NoSy
 mm,XQC,MaxCyc=120) IOp(1/33=1,3/174=1000000,3/175=2238200,3/177=045290
 0,3/178=4655000) EmpiricalDispersion=GD3BJ
 ----------------------------------------------------------------------

 TstMul:  Mul=     1
 TstMul:  ICh=     0
 TstMul:  Mul=     1
 Symbolic Z-matrix:
 Charge =  0 Multiplicity = 1

 SCF Done:  E(RTPSSh) =  -195.331152127     A.U. after   13 cycles
 SCF Done:  E(RTPSSh) =  -195.331496851     A.U. after   11 cycles
 SCF Done:  E(RTPSSh) =  -195.331504837     A.U. after    8 cycles
 SCF Done:  E(RTPSSh) =  -195.331505436     A.U. after    8 cycles
 Optimization completed.
    -- Stationary point found.

                         Standard orientation:
 ---------------------------------------------------------------------
 Center     Atomic      Atomic             Coordinates (Angstroms)
 Number     Number       Type             X           Y           Z
 ---------------------------------------------------------------------
      1          6           0       -2.064396   -0.611425    0.000001
      2          6           0       -1.235997    0.640557    0.000050
      3          6           0        0.109878    0.733117    0.000034
      4          6           0        1.059322   -0.369801   -0.000035
      5          6           0        2.393478   -0.202055   -0.000044
      6          1           0       -2.720167   -0.641257    0.880679
      7          1           0       -2.720199   -0.641167   -0.880657
      8          1           0       -1.459440   -1.521723   -0.000057
      9          1           0       -1.803320    1.570845    0.000104
     10          1           0        0.552421    1.729185    0.000076
     11          1           0        0.659494   -1.382046   -0.000080
     12          1           0        3.076703   -1.045770   -0.000096
     13          1           0        2.840799    0.789569   -0.000000
 ---------------------------------------------------------------------

 The electronic state is 1-A.
 Alpha  occ. eigenvalues --  -10.12101 -10.11992 -10.11553 -10.11526 -10.11078
 Alpha  occ. eigenvalues --   -0.78252  -0.73005  -0.66045  -0.57086  -0.51073
 Alpha  occ. eigenvalues --   -0.45537  -0.42490  -0.39477  -0.38195  -0.36151
 Alpha  occ. eigenvalues --   -0.34798  -0.31361  -0.29347  -0.20479
 Alpha virt. eigenvalues --   -0.02723   0.07985   0.10554   0.11181   0.13597
 Alpha virt. eigenvalues --    0.16435   0.17314   0.17607   0.19554   0.22955
 Alpha virt. eigenvalues --    0.25165   0.33034   0.37777   0.43553   0.47903

 Mulliken charges:
               1
     1  C   -0.526477
     2  C   -0.138051
     3  C   -0.138758
     4  C   -0.085106
     5  C   -0.390927
     6  H    0.173745
     7  H    0.173745
     8  H    0.169376
     9  H    0.150550
    10  H    0.145456
    11  H    0.148349
    12  H    0.160152
    13  H    0.157947
 Sum of Mulliken charges =  -0.00000

 Dipole moment (field-independent basis, Debye):
    X=             -0.4902    Y=             -0.1265    Z=              0.0000  Tot=              0.5063
 Quadrupole moment (field-independent basis, Debye-Ang):
   XX=            -28.6333   YY=            -29.2668   ZZ=            -34.1981
   XY=              0.0647   XZ=             -0.0001   YZ=              0.0002

 Normal termination of Gaussian 16 at Wed Oct  7 14:41:22 2020.
