 Gaussian 16, Revision A.03,
 Gaussian 16:  ES64L-G16RevA.03 25-Dec-2016

 ----------------------------------------------------------------------
 #P Opt(MaxCyc=100) TPSSh/6-31G* 5D 7F Integral=UltraFineGrid SCF=(NoSy
 mm,XQC,MaxCyc=120) IOp(1/33=1,3/174=1000000,3/175=2238200,3/177=045290
 0,3/178=4655000) EmpiricalDispersion=GD3BJ
 ----------------------------------------------------------------------

 TstMul:  Mul=     1
 TstMul:  ICh=    -1
 TstMul:  Mul=     1
 Symbolic Z-matrix:
 Charge = -1 Multiplicity = 1

 SCF Done:  E(RTPSSh) =  -960.379039057     A.U. after   12 cycles
 SCF Done:  E(RTPSSh) =  -960.379531119     A.U. after   10 cycles
 SCF Done:  E(RTPSSh) =  -960.379845392     A.U. after   10 cycles
 SCF Done:  E(RTPSSh) =  -960.380050642     A.U. after   11 cycles
 SCF Done:  E(RTPSSh) =  -960.380104481     A.U. after   10 cycles
 SCF Done:  E(RTPSSh) =  -960.380107906     A.U. after    8 cycles
 SCF Done:  E(RTPSSh) =  -960.380108148     A.U. after    7 cycles
 SCF Done:  E(RTPSSh) =  -960.380108213     A.U. after    6 cycles
 Optimization completed.
    -- Stationary point found.

                         Standard orientation:
 ---------------------------------------------------------------------
 Center     Atomic      Atomic             Coordinates (Angstroms)
 Number     Number       Type             X           Y           Z
 ---------------------------------------------------------------------
      1         17           0        0.000000    0.000000   -2.340832
      2          6           0        0.000000    0.000000   -0.461839
      3          1           0       -0.000000    1.035210   -0.139535
      4          1           0       -0.896518   -0.517605   -0.139535
      5          1           0        0.896518   -0.517605   -0.139535
      6         17           0        0.000000    0.000000    2.528458
 ---------------------------------------------------------------------

 The electronic state is 1-A1.
 Alpha  occ. eigenvalues -- -101.21029-101.05392 -10.01700  -9.21584  -9.05413
 Alpha  occ. eigenvalues --   -6.96427  -6.95530  -6.95530  -6.79777  -6.79683
 Alpha  occ. eigenvalues --   -6.79683  -0.66332  -0.50646  -0.45451  -0.27100
 Alpha  occ. eigenvalues --   -0.27100  -0.23409  -0.14109  -0.14109  -0.01264
 Alpha  occ. eigenvalues --   -0.00968  -0.00968
 Alpha virt. eigenvalues --    0.15746   0.27071   0.31089   0.31089   0.53663
 Alpha virt. eigenvalues --    0.57836   0.59584   0.59584   0.62601   0.66806
 Alpha virt. eigenvalues --    0.66806   0.72205   0.72716   0.72716   0.93660

 Mulliken charges:
               1
     1  Cl  -0.263253
     2  C   -0.500801
     3  H    0.223778
     4  H    0.223778
     5  H    0.223778
     6  Cl  -0.907281
 Sum of Mulliken charges =  -1.00000

 Dipole moment (field-independent basis, Debye):
    X=             -0.0000    Y=             -0.0000    Z=             -7.0855  Tot=              7.0855
 Quadrupole moment (field-independent basis, Debye-Ang):
   XX=            -35.4820   YY=            -35.4820   ZZ=            -73.3185
   XY=             -0.0000   XZ=             -0.0000   YZ=             -0.0000

 Normal termination of Gaussian 16 at Wed Oct  7 14:42:12 2020.
