 Gaussian 16, Revision A.03,
 Gaussian 16:  ES64L-G16RevA.03 25-Dec-2016

 ----------------------------------------------------------------------
 #P Opt(MaxCyc=100) TPSSh/6-31G* 5D 7F Integral=UltraFineGrid SCF=(NoSy
 mm,XQC,MaxCyc=120) IOp(1/33=1,3/174=1000000,3/175=2238200,3/177=045290
 0,3/178=4655000) EmpiricalDispersion=GD3BJ
 ----------------------------------------------------------------------

 TstMul:  Mul=     1
 TstMul:  ICh=     0
 TstMul:  Mul=     1
 Symbolic Z-matrix:
 Charge =  0 Multiplicity = 1

 SCF Done:  E(RTPSSh) =  -139.733011774     A.U. after   11 cycles
 SCF Done:  E(RTPSSh) =  -139.733190655     A.U. after   10 cycles
 SCF Done:  E(RTPSSh) =  -139.733194013     A.U. after    7 cycles
 Optimization completed.
    -- Stationary point found.

                         Standard orientation:
 ---------------------------------------------------------------------
 Center     Atomic      Atomic             Coordinates (Angstroms)
 Number     Number       Type             X           Y           Z
 ---------------------------------------------------------------------
      1          6           0        0.000000    0.000000   -0.632793
      2          9           0        0.000000    0.000000    0.753671
      3          1           0        0.000000    1.033888   -0.995427
      4          1           0        0.895373   -0.516944   -0.995427
      5          1           0       -0.895373   -0.516944   -0.995427
 ---------------------------------------------------------------------

 The electronic state is 1-A1.
 Alpha  occ. eigenvalues --  -24.57483 -10.18508  -1.14231  -0.67495  -0.44901
 Alpha  occ. eigenvalues --   -0.44865  -0.44865  -0.30668  -0.30668
 Alpha virt. eigenvalues --    0.10603   0.12780   0.16544   0.16544   0.51812
 Alpha virt. eigenvalues --    0.55638   0.55638   0.85671   0.85671   0.89411
 Alpha virt. eigenvalues --    0.98639   1.25061   1.25789   1.25789   1.51517

 Mulliken charges:
               1
     1  C   -0.116009
     2  F   -0.342255
     3  H    0.152755
     4  H    0.152755
     5  H    0.152755
 Sum of Mulliken charges =   0.00000

 Dipole moment (field-independent basis, Debye):
    X=             -0.0000    Y=              0.0000    Z=             -1.7227  Tot=              1.7227
 Quadrupole moment (field-independent basis, Debye-Ang):
   XX=            -11.6661   YY=            -11.6661   ZZ=            -11.9317
   XY=             -0.0000   XZ=              0.0000   YZ=             -0.0000

 Normal termination of Gaussian 16 at Wed Oct  7 14:40:44 2020.
