 Gaussian 16, Revision A.03,

 ----------------------------------------------------------------------
 #P Opt(TS,MaxCyc=50,NoEigenTest,MaxStep=10,AddRedundant) TPSSh/6-31G*
 5D 7F Integral=UltraFineGrid SCF=(NoSymm,XQC,MaxCyc=120) IOp(1/33=1,3/
 174=1000000,3/175=2238200,3/177=0452900,3/178=4655000) EmpiricalDisper
 sion=GD3BJ
 ----------------------------------------------------------------------

 TstMul:  Mul=     1
 TstMul:  ICh=    -1
 TstMul:  Mul=     1
 Symbolic Z-matrix:
 Charge = -1 Multiplicity = 1

 SCF Done:  E(RTPSSh) =  -960.371827428     A.U. after   12 cycles
 SCF Done:  E(RTPSSh) =  -960.371941835     A.U. after   10 cycles
 SCF Done:  E(RTPSSh) =  -960.371981551     A.U. after   10 cycles
 SCF Done:  E(RTPSSh) =  -960.371986421     A.U. after   10 cycles
 SCF Done:  E(RTPSSh) =  -960.371978719     A.U. after   10 cycles
 Optimization completed.
    -- Stationary point found.
 Normal termination of Gaussian 16 at Wed Oct  7 14:41:52 2020.
 Gaussian 16:  ES64L-G16RevA.03 25-Dec-2016

 ----------------------------------------------------------------------
 #P Freq TPSSh/6-31G* 5D 7F Integral=UltraFineGrid SCF=(NoSymm,XQC,MaxC
 yc=120) IOp(1/33=1,3/174=1000000,3/175=2238200,3/177=0452900,3/178=465
 5000) EmpiricalDispersion=GD3BJ Geom=Check Guess=Read
 ----------------------------------------------------------------------

 TstMul:  Mul=     1
 TstMul:  ICh=    -1
 TstMul:  Mul=     1
 Structure from the checkpoint file:  "MN_28_clch3clts_BH76_TPSShDBJ_631Gs.chk"
 Charge = -1 Multiplicity = 1

                         Standard orientation:
 ---------------------------------------------------------------------
 Center     Atomic      Atomic             Coordinates (Angstroms)
 Number     Number       Type             X           Y           Z
 ---------------------------------------------------------------------
      1         17           0        2.343236   -0.000001   -0.000007
      2          6           0        0.000079   -0.000002    0.000024
      3          1           0       -0.000036    0.756233   -0.763202
      4          1           0       -0.000149   -1.039095   -0.273268
      5          1           0       -0.000035    0.282869    1.036551
      6         17           0       -2.343250    0.000002   -0.000006
 ---------------------------------------------------------------------

 SCF Done:  E(RTPSSh) =  -960.371978719     A.U. after    1 cycles

 The electronic state is 1-A.
 Alpha  occ. eigenvalues -- -101.12410-101.12406 -10.02342  -9.12641  -9.12637
 Alpha  occ. eigenvalues --   -6.87226  -6.87222  -6.86767  -6.86767  -6.86763
 Alpha  occ. eigenvalues --   -6.86763  -0.56736  -0.53335  -0.48519  -0.27136
 Alpha  occ. eigenvalues --   -0.27136  -0.14459  -0.07650  -0.07650  -0.06937
 Alpha  occ. eigenvalues --   -0.06937  -0.06340
 Alpha virt. eigenvalues --    0.12981   0.25690   0.32339   0.32340   0.57934
 Alpha virt. eigenvalues --    0.58306   0.64091   0.64092   0.64771   0.64771
 Alpha virt. eigenvalues --    0.68856   0.72901   0.72901   0.74798   0.88424

 Mulliken charges:
               1
     1  Cl  -0.637748
     2  C   -0.417675
     3  H    0.231110
     4  H    0.231110
     5  H    0.231107
     6  Cl  -0.637903
 Sum of Mulliken charges =  -1.00000

 Dipole moment (field-independent basis, Debye):
    X=              0.0015    Y=              0.0000    Z=              0.0001  Tot=              0.0015
 Quadrupole moment (field-independent basis, Debye-Ang):
   XX=            -71.9808   YY=            -35.4327   ZZ=            -35.4327
   XY=              0.0002   XZ=              0.0001   YZ=             -0.0000

  Exact polarizability:  97.265   0.000  22.357   0.000   0.000  22.357
 Approx polarizability: 165.000   0.000  29.468   0.000  -0.000  29.468

 ******    1 imaginary frequencies (negative Signs) ******

                      1                      2                      3
                      A                      A                      A
 Frequencies --   -306.3302               200.7064               200.9890
 Red. masses --     13.2670                 4.3476                 4.3476
 Frc consts  --      0.7335                 0.1032                 0.1035
 IR Inten    --    921.0444                14.2893                14.2901

                      4                      5                      6
                      A                      A                      A
 Frequencies --    216.7430               939.8506               940.2587
 Red. masses --     34.9598                 1.0123                 1.0123
 Frc consts  --      0.9676                 0.5268                 0.5273
 IR Inten    --      0.0002                 0.0002                 0.0000

                      7                      8                      9
                      A                      A                      A
 Frequencies --   1029.0893              1440.3207              1440.3901
 Red. masses --      1.0437                 1.1044                 1.1044
 Frc consts  --      0.6512                 1.3499                 1.3500
 IR Inten    --     79.8721                 4.2665                 4.2635

                     10                     11                     12
                      A                      A                      A
 Frequencies --   3229.7940              3425.2809              3425.5823
 Red. masses --      1.0078                 1.1232                 1.1232
 Frc consts  --      6.1942                 7.7643                 7.7656
 IR Inten    --      0.0000                 0.0649                 0.0650

 - Thermochemistry -
 -------------------
 Temperature   298.150 Kelvin.  Pressure   1.00000 Atm.
 Atom     1 has atomic number 17 and mass  34.96885

 Molecular mass:    84.96118 amu.
 Principal axes and moments of inertia in atomic units:
                           1         2         3
     Eigenvalues --    12.464141377.567701377.56781
           X            1.00000   0.00000   0.00000
           Y           -0.00000   1.00000   0.00001
           Z           -0.00000  -0.00001   1.00000
 This molecule is an asymmetric top.
 Rotational symmetry number  1.
 Rotational temperatures (Kelvin)      6.94905     0.06287     0.06287
 Rotational constants (GHZ):         144.79474     1.31009     1.31009
    1 imaginary frequencies ignored.
 Zero-point vibrational energy      98626.2 (Joules/Mol)
                                   23.57222 (Kcal/Mol)
 Warning -- explicit consideration of   3 degrees of freedom as
           vibrations may cause significant error
 Vibrational temperatures:    288.77   289.18   311.84  1352.24  1352.82
          (Kelvin)           1480.63  2072.30  2072.40  4646.95  4928.22
                             4928.65

 Zero-point correction=                           0.037565 (Hartree/Particle)
 Thermal correction to Energy=                    0.042189
 Thermal correction to Enthalpy=                  0.043133
 Thermal correction to Gibbs Free Energy=         0.009640
 Sum of electronic and zero-point Energies=           -960.334414
 Sum of electronic and thermal Energies=              -960.329789
 Sum of electronic and thermal Enthalpies=            -960.328845
 Sum of electronic and thermal Free Energies=         -960.362339

                     E (Thermal)             CV                S
                      KCal/Mol        Cal/Mol-Kelvin    Cal/Mol-Kelvin
 Total                   26.474             12.881             70.494
 Electronic               0.000              0.000              0.000
 Translational            0.889              2.981             39.232
 Rotational               0.889              2.981             24.673
 Vibrational             24.697              6.919              6.588
 Vibration     1          0.638              1.839              2.127
 Vibration     2          0.638              1.838              2.124
 Vibration     3          0.646              1.816              1.986

 Optimization completed.
    -- Stationary point found.
 Normal termination of Gaussian 16 at Wed Oct  7 14:42:27 2020.
