 Gaussian 16, Revision A.03,
 Gaussian 16:  ES64L-G16RevA.03 25-Dec-2016

 ----------------------------------------------------------------------
 #P Opt(MaxCyc=100) TPSSh/6-31G* 5D 7F Integral=UltraFineGrid SCF=(NoSy
 mm,XQC,MaxCyc=120) IOp(1/33=1,3/174=1000000,3/175=2238200,3/177=045290
 0,3/178=4655000) EmpiricalDispersion=GD3BJ
 ----------------------------------------------------------------------

 TstMul:  Mul=     2
 TstMul:  ICh=     0
 TstMul:  Mul=     2
 Symbolic Z-matrix:
 Charge =  0 Multiplicity = 2

 SCF Done:  E(UTPSSh) =  -39.8426130964     A.U. after   11 cycles
 SCF Done:  E(UTPSSh) =  -39.8426861560     A.U. after    7 cycles
 Optimization completed.
    -- Stationary point found.

                         Standard orientation:
 ---------------------------------------------------------------------
 Center     Atomic      Atomic             Coordinates (Angstroms)
 Number     Number       Type             X           Y           Z
 ---------------------------------------------------------------------
      1          6           0        0.000000    0.000000    0.000000
      2          1           0        0.000000    1.083631    0.000000
      3          1           0        0.938452   -0.541815    0.000000
      4          1           0       -0.938452   -0.541815    0.000000
 ---------------------------------------------------------------------

 The electronic state is 2-A2".
 Alpha  occ. eigenvalues --  -10.12367  -0.66364  -0.39775  -0.39775  -0.21195
 Alpha virt. eigenvalues --    0.11279   0.18091   0.18091   0.53562   0.54975
 Alpha virt. eigenvalues --    0.54975   0.69083   0.92048   0.92048   0.96553
 Alpha virt. eigenvalues --    1.63952   1.63952   2.01642   2.20384   2.20384
  Beta  occ. eigenvalues --  -10.10732  -0.62231  -0.38978  -0.38978
  Beta virt. eigenvalues --   -0.04839   0.13675   0.19299   0.19299   0.56372
  Beta virt. eigenvalues --    0.56372   0.62809   0.73208   0.95830   0.95830
  Beta virt. eigenvalues --    1.02675   1.74373   1.74373   2.13755   2.28132

 Mulliken charges and spin densities:
               1          2
     1  C   -0.519163   1.174718
     2  H    0.173054  -0.058239
     3  H    0.173054  -0.058239
     4  H    0.173054  -0.058239
 Sum of Mulliken charges =   0.00000   1.00000

 Dipole moment (field-independent basis, Debye):
    X=              0.0000    Y=             -0.0000    Z=             -0.0000  Tot=              0.0000
 Quadrupole moment (field-independent basis, Debye-Ang):
   XX=             -6.9928   YY=             -6.9928   ZZ=             -8.6340
   XY=             -0.0000   XZ=              0.0000   YZ=             -0.0000

 1\1\GINC-NODE55\FOpt\UTPSSh\6-31G(d)\C1H3(2)\RPEVERATI\07-Oct-2020\0\\
 #P Opt(MaxCyc=100) TPSSh/6-31G* 5D 7F Integral=UltraFineGrid SCF=(NoSy
 mm,XQC,MaxCyc=120) IOp(1/33=1,3/174=1000000,3/175=2238200,3/177=045290
 0,3/178=4655000) EmpiricalDispersion=GD3BJ\\TS search on BH76.\\0,2\C,
 0.,0.,0.\H,0.5418153438,0.9384517038,0.\H,0.5418153438,-0.9384517038,0
 .\H,-1.0836306876,0.,0.\\Version=ES64L-G16RevA.03\State=2-A2"\HF=-39.8
 426862\S2=0.755266\S2-1=0.\S2A=0.750014\RMSD=2.691e-09\RMSF=1.133e-04\
 Dipole=0.,0.,0.\Quadrupole=0.4067319,0.4067319,-0.8134639,0.,0.,0.\PG=

 Normal termination of Gaussian 16 at Wed Oct  7 14:40:35 2020.
