 Gaussian 16, Revision A.03,
 Gaussian 16:  ES64L-G16RevA.03 25-Dec-2016

 ----------------------------------------------------------------------
 #P TPSSh/6-31G* 5D 7F Integral=UltraFineGrid SCF=(NoSymm,XQC,MaxCyc=12
 0) IOp(1/33=1,3/174=1000000,3/175=2238200,3/177=0452900,3/178=4655000)
  EmpiricalDispersion=GD3BJ Stable=Opt
 ----------------------------------------------------------------------

 TstMul:  Mul=     1
 TstMul:  ICh=    -1
 TstMul:  Mul=     1
 Symbolic Z-matrix:
 Charge = -1 Multiplicity = 1

                         Standard orientation:
 ---------------------------------------------------------------------
 Center     Atomic      Atomic             Coordinates (Angstroms)
 Number     Number       Type             X           Y           Z
 ---------------------------------------------------------------------
      1         17           0        0.000000    0.000000    0.000000
 ---------------------------------------------------------------------

 SCF Done:  E(RTPSSh) =  -460.246739545     A.U. after    8 cycles

 The electronic state is 1-A1G.
 Alpha  occ. eigenvalues -- -101.01368  -9.01332  -6.75640  -6.75640  -6.75640
 Alpha  occ. eigenvalues --   -0.41449   0.02885   0.02885   0.02885
 Alpha virt. eigenvalues --    0.65154   0.73870   0.73870   0.73870   1.20945
 Alpha virt. eigenvalues --    1.20945   1.20945   1.20945   1.20945

 Mulliken charges:
               1
     1  Cl  -1.000000
 Sum of Mulliken charges =  -1.00000

 Dipole moment (field-independent basis, Debye):
    X=             -0.0000    Y=             -0.0000    Z=              0.0000  Tot=              0.0000
 Quadrupole moment (field-independent basis, Debye-Ang):
   XX=            -15.6679   YY=            -15.6679   ZZ=            -15.6679
   XY=              0.0000   XZ=             -0.0000   YZ=              0.0000

 Normal termination of Gaussian 16 at Wed Oct  7 14:40:53 2020.
