 Gaussian 16, Revision A.03,
 Gaussian 16:  ES64L-G16RevA.03 25-Dec-2016

 ----------------------------------------------------------------------
 #P Opt(MaxCyc=100) TPSSh/6-31G* 5D 7F Integral=UltraFineGrid SCF=(NoSy
 mm,XQC,MaxCyc=120) IOp(1/33=1,3/174=1000000,3/175=2238200,3/177=045290
 0,3/178=4655000) EmpiricalDispersion=GD3BJ
 ----------------------------------------------------------------------

 TstMul:  Mul=     1
 TstMul:  ICh=     0
 TstMul:  Mul=     1
 Symbolic Z-matrix:
 Charge =  0 Multiplicity = 1

 SCF Done:  E(RTPSSh) =  -40.5206965124     A.U. after    9 cycles
 SCF Done:  E(RTPSSh) =  -40.5207845936     A.U. after    5 cycles
 Optimization completed.
    -- Stationary point found.

                         Standard orientation:
 ---------------------------------------------------------------------
 Center     Atomic      Atomic             Coordinates (Angstroms)
 Number     Number       Type             X           Y           Z
 ---------------------------------------------------------------------
      1          6           0        0.000000    0.000000    0.000000
      2          1           0        0.631318    0.631318    0.631318
      3          1           0       -0.631318   -0.631318    0.631318
      4          1           0        0.631318   -0.631318   -0.631318
      5          1           0       -0.631318    0.631318   -0.631318
 ---------------------------------------------------------------------

 The electronic state is 1-A1.
 Alpha  occ. eigenvalues --  -10.09869  -0.67206  -0.37207  -0.37207  -0.37207
 Alpha virt. eigenvalues --    0.12125   0.17616   0.17616   0.17616   0.53950
 Alpha virt. eigenvalues --    0.53950   0.53950   0.91131   0.91131   0.91131
 Alpha virt. eigenvalues --    0.97307   1.11726   1.65556   1.65556   2.27860

 Mulliken charges:
               1
     1  C   -0.670840
     2  H    0.167710
     3  H    0.167710
     4  H    0.167710
     5  H    0.167710
 Sum of Mulliken charges =  -0.00000

 Dipole moment (field-independent basis, Debye):
    X=              0.0000    Y=              0.0000    Z=              0.0000  Tot=              0.0000
 Quadrupole moment (field-independent basis, Debye-Ang):
   XX=             -8.2346   YY=             -8.2346   ZZ=             -8.2346
   XY=              0.0000   XZ=              0.0000   YZ=              0.0000

 Normal termination of Gaussian 16 at Wed Oct  7 14:40:54 2020.
