 Gaussian 16, Revision A.03,
 Gaussian 16:  ES64L-G16RevA.03 25-Dec-2016

 ----------------------------------------------------------------------
 #P Opt(MaxCyc=100) TPSSh/6-31G* 5D 7F Integral=UltraFineGrid SCF=(NoSy
 mm,XQC,MaxCyc=120) IOp(1/33=1,3/174=1000000,3/175=2238200,3/177=045290
 0,3/178=4655000) EmpiricalDispersion=GD3BJ
 ----------------------------------------------------------------------

 TstMul:  Mul=     1
 TstMul:  ICh=     0
 TstMul:  Mul=     1
 Symbolic Z-matrix:
 Charge =  0 Multiplicity = 1

 SCF Done:  E(RTPSSh) =  -559.936951836     A.U. after   12 cycles
 SCF Done:  E(RTPSSh) =  -559.937478723     A.U. after   11 cycles
 SCF Done:  E(RTPSSh) =  -559.937535335     A.U. after    8 cycles
 Optimization completed.
    -- Stationary point found.

                         Standard orientation:
 ---------------------------------------------------------------------
 Center     Atomic      Atomic             Coordinates (Angstroms)
 Number     Number       Type             X           Y           Z
 ---------------------------------------------------------------------
      1          9           0        0.000000    0.000000   -1.087437
      2         17           0        0.000000    0.000000    0.575702
 ---------------------------------------------------------------------

 The electronic state is 1-SG.
 Alpha  occ. eigenvalues -- -101.44996 -24.65607  -9.44912  -7.20548  -7.18517
 Alpha  occ. eigenvalues --   -7.18517  -1.19178  -0.80803  -0.50417  -0.44037
 Alpha  occ. eigenvalues --   -0.44037  -0.30760  -0.30760
 Alpha virt. eigenvalues --   -0.13436   0.33089   0.38998   0.42631   0.42631
 Alpha virt. eigenvalues --    0.72587   0.72587   0.80611   0.80613   0.88939
 Alpha virt. eigenvalues --    1.23163   1.23906   1.23906   1.71855   1.81064

 Mulliken charges:
               1
     1  F   -0.293120
     2  Cl   0.293120
 Sum of Mulliken charges =   0.00000

 Dipole moment (field-independent basis, Debye):
    X=              0.0000    Y=             -0.0000    Z=              0.9241  Tot=              0.9241
 Quadrupole moment (field-independent basis, Debye-Ang):
   XX=            -17.1065   YY=            -17.1065   ZZ=            -15.4121
   XY=             -0.0000   XZ=              0.0000   YZ=             -0.0000

 Normal termination of Gaussian 16 at Wed Oct  7 14:41:09 2020.
