 Gaussian 16, Revision A.03,
 Gaussian 16:  ES64L-G16RevA.03 25-Dec-2016

 ----------------------------------------------------------------------
 #P Opt(MaxCyc=100) TPSSh/6-31G* 5D 7F Integral=UltraFineGrid SCF=(NoSy
 mm,XQC,MaxCyc=120) IOp(1/33=1,3/174=1000000,3/175=2238200,3/177=045290
 0,3/178=4655000) EmpiricalDispersion=GD3BJ
 ----------------------------------------------------------------------

 TstMul:  Mul=     1
 TstMul:  ICh=     0
 TstMul:  Mul=     1
 Symbolic Z-matrix:
 Charge =  0 Multiplicity = 1

 SCF Done:  E(RTPSSh) =  -115.714371004     A.U. after   11 cycles
 SCF Done:  E(RTPSSh) =  -115.714750566     A.U. after    8 cycles
 SCF Done:  E(RTPSSh) =  -115.714755079     A.U. after    7 cycles
 Optimization completed.
    -- Stationary point found.

                         Standard orientation:
 ---------------------------------------------------------------------
 Center     Atomic      Atomic             Coordinates (Angstroms)
 Number     Number       Type             X           Y           Z
 ---------------------------------------------------------------------
      1          6           0       -0.047140    0.662788    0.000000
      2          8           0       -0.047140   -0.758416    0.000000
      3          1           0       -1.095341    0.971585    0.000000
      4          1           0        0.879636   -1.049767    0.000000
      5          1           0        0.437835    1.084391    0.893977
      6          1           0        0.437835    1.084391   -0.893977
 ---------------------------------------------------------------------

 The electronic state is 1-A'.
 Alpha  occ. eigenvalues --  -19.05756 -10.15571  -0.98399  -0.65823  -0.47990
 Alpha  occ. eigenvalues --   -0.41438  -0.39829  -0.30934  -0.24081
 Alpha virt. eigenvalues --    0.07722   0.13342   0.16567   0.17506   0.19965
 Alpha virt. eigenvalues --    0.53424   0.57491   0.58418   0.79028   0.86043
 Alpha virt. eigenvalues --    0.87876   0.92722   0.97662   1.00211   1.03380

 Mulliken charges:
               1
     1  C   -0.225603
     2  O   -0.630959
     3  H    0.173198
     4  H    0.402044
     5  H    0.140660
     6  H    0.140660
 Sum of Mulliken charges =   0.00000

 Dipole moment (field-independent basis, Debye):
    X=              1.4304    Y=              0.9063    Z=              0.0000  Tot=              1.6934
 Quadrupole moment (field-independent basis, Debye-Ang):
   XX=            -11.4948   YY=            -12.9764   ZZ=            -13.5696
   XY=             -2.1177   XZ=              0.0000   YZ=              0.0000

 Normal termination of Gaussian 16 at Wed Oct  7 14:40:45 2020.
