 Gaussian 16, Revision A.03,
 Gaussian 16:  ES64L-G16RevA.03 25-Dec-2016

 ----------------------------------------------------------------------
 #P TPSSh/6-31G* 5D 7F Integral=UltraFineGrid SCF=(NoSymm,XQC,MaxCyc=12
 0) IOp(1/33=1,3/174=1000000,3/175=2238200,3/177=0452900,3/178=4655000)
  EmpiricalDispersion=GD3BJ Stable=Opt
 ----------------------------------------------------------------------

 TstMul:  Mul=     2
 TstMul:  ICh=     0
 TstMul:  Mul=     2
 Symbolic Z-matrix:
 Charge =  0 Multiplicity = 2

                         Standard orientation:
 ---------------------------------------------------------------------
 Center     Atomic      Atomic             Coordinates (Angstroms)
 Number     Number       Type             X           Y           Z
 ---------------------------------------------------------------------
      1         17           0        0.000000    0.000000    0.000000
 ---------------------------------------------------------------------

 SCF Done:  E(UTPSSh) =  -460.131330416     A.U. after   10 cycles

 Unable to determine electronic state:  an orbital has unidentified symmetry.
 Alpha  occ. eigenvalues -- -101.41917  -9.42147  -7.18184  -7.15767  -7.15767
 Alpha  occ. eigenvalues --   -0.82223  -0.39396  -0.33488  -0.33488
 Alpha virt. eigenvalues --    0.33186   0.39922   0.43078   0.43078   0.76115
 Alpha virt. eigenvalues --    0.77552   0.77552   0.82553   0.82553
  Beta  occ. eigenvalues -- -101.41246  -9.41548  -7.16162  -7.15409  -7.15409
  Beta  occ. eigenvalues --   -0.76791  -0.31892  -0.31892
  Beta virt. eigenvalues --   -0.25596   0.35287   0.44002   0.44002   0.44508
  Beta virt. eigenvalues --    0.83874   0.83874   0.84508   0.84508   0.85594

 Mulliken charges and spin densities:
               1          2
     1  Cl  -0.000000   1.000000
 Sum of Mulliken charges =  -0.00000   1.00000

 Dipole moment (field-independent basis, Debye):
    X=             -0.0000    Y=             -0.0000    Z=              0.0000  Tot=              0.0000
 Quadrupole moment (field-independent basis, Debye-Ang):
   XX=            -12.9229   YY=            -12.9229   ZZ=            -10.7110
   XY=              0.0000   XZ=             -0.0000   YZ=             -0.0030

 Normal termination of Gaussian 16 at Wed Oct  7 14:40:53 2020.
