 Gaussian 16, Revision A.03,
 Gaussian 16:  ES64L-G16RevA.03 25-Dec-2016

 ----------------------------------------------------------------------
 #P Opt(MaxCyc=100) TPSSh/6-31G* 5D 7F Integral=UltraFineGrid SCF=(NoSy
 mm,XQC,MaxCyc=120) IOp(1/33=1,3/174=1000000,3/175=2238200,3/177=045290
 0,3/178=4655000) EmpiricalDispersion=GD3BJ
 ----------------------------------------------------------------------

 TstMul:  Mul=     1
 TstMul:  ICh=     0
 TstMul:  Mul=     1
 Symbolic Z-matrix:
 Charge =  0 Multiplicity = 1

 SCF Done:  E(RTPSSh) =  -113.308070467     A.U. after   11 cycles
 SCF Done:  E(RTPSSh) =  -113.308388652     A.U. after    7 cycles
 SCF Done:  E(RTPSSh) =  -113.308394944     A.U. after    6 cycles
 Optimization completed.
    -- Stationary point found.

                         Standard orientation:
 ---------------------------------------------------------------------
 Center     Atomic      Atomic             Coordinates (Angstroms)
 Number     Number       Type             X           Y           Z
 ---------------------------------------------------------------------
      1          8           0        0.000000    0.000000    0.489243
      2          6           0        0.000000    0.000000   -0.652324
 ---------------------------------------------------------------------

 The electronic state is 1-SG.
 Alpha  occ. eigenvalues --  -19.17475 -10.23493  -1.12714  -0.54575  -0.44399
 Alpha  occ. eigenvalues --   -0.44399  -0.35140
 Alpha virt. eigenvalues --   -0.03511  -0.03511   0.26370   0.52062   0.52062
 Alpha virt. eigenvalues --    0.59273   0.74037   0.83241   0.91687   0.91687
 Alpha virt. eigenvalues --    1.46841   1.46841   1.50341   1.52740   1.52740

 Mulliken charges:
               1
     1  O   -0.170218
     2  C    0.170218
 Sum of Mulliken charges =   0.00000

 Dipole moment (field-independent basis, Debye):
    X=              0.0000    Y=              0.0000    Z=              0.0988  Tot=              0.0988
 Quadrupole moment (field-independent basis, Debye-Ang):
   XX=             -9.8554   YY=             -9.8554   ZZ=            -11.9251
   XY=             -0.0000   XZ=              0.0000   YZ=             -0.0000

 Normal termination of Gaussian 16 at Wed Oct  7 14:41:12 2020.
