 Gaussian 16, Revision A.03,

 ----------------------------------------------------------------------
 #P Opt(TS,MaxCyc=150,NoEigenTest,MaxStep=10,AddRedundant) TPSSh/6-31G*
  5D 7F Integral=UltraFineGrid SCF=(NoSymm,XQC,MaxCyc=120) IOp(1/33=1,3
 /174=1000000,3/175=2238200,3/177=0452900,3/178=4655000) EmpiricalDispe
 rsion=GD3BJ
 ----------------------------------------------------------------------

 TstMul:  Mul=     1
 TstMul:  ICh=    -1
 TstMul:  Mul=     1
 Symbolic Z-matrix:
 Charge = -1 Multiplicity = 1

 SCF Done:  E(RTPSSh) =  -599.933984459     A.U. after   14 cycles
 SCF Done:  E(RTPSSh) =  -599.934012114     A.U. after    8 cycles
 SCF Done:  E(RTPSSh) =  -599.933998124     A.U. after    9 cycles
 SCF Done:  E(RTPSSh) =  -599.932915184     A.U. after   12 cycles
 SCF Done:  E(RTPSSh) =  -599.931724477     A.U. after   11 cycles
 SCF Done:  E(RTPSSh) =  -599.930473191     A.U. after   11 cycles
 SCF Done:  E(RTPSSh) =  -599.929210010     A.U. after   12 cycles
 SCF Done:  E(RTPSSh) =  -599.927964748     A.U. after   12 cycles
 SCF Done:  E(RTPSSh) =  -599.926750387     A.U. after   12 cycles
 SCF Done:  E(RTPSSh) =  -599.925563064     A.U. after   12 cycles
 SCF Done:  E(RTPSSh) =  -599.923783176     A.U. after   11 cycles
 SCF Done:  E(RTPSSh) =  -599.923694583     A.U. after   11 cycles
 SCF Done:  E(RTPSSh) =  -599.923635927     A.U. after   11 cycles
 SCF Done:  E(RTPSSh) =  -599.923607848     A.U. after   11 cycles
 SCF Done:  E(RTPSSh) =  -599.923605399     A.U. after   11 cycles
 SCF Done:  E(RTPSSh) =  -599.923606050     A.U. after    7 cycles
 SCF Done:  E(RTPSSh) =  -599.923606668     A.U. after    9 cycles
 SCF Done:  E(RTPSSh) =  -599.923606114     A.U. after    9 cycles
 SCF Done:  E(RTPSSh) =  -599.923606616     A.U. after    8 cycles
 Optimization completed.
    -- Stationary point found.
 Normal termination of Gaussian 16 at Wed Oct  7 14:49:27 2020.
 Gaussian 16:  ES64L-G16RevA.03 25-Dec-2016

 ----------------------------------------------------------------------
 #P Freq TPSSh/6-31G* 5D 7F Integral=UltraFineGrid SCF=(NoSymm,XQC,MaxC
 yc=120) IOp(1/33=1,3/174=1000000,3/175=2238200,3/177=0452900,3/178=465
 5000) EmpiricalDispersion=GD3BJ Geom=Check Guess=Read
 ----------------------------------------------------------------------

 TstMul:  Mul=     1
 TstMul:  ICh=    -1
 TstMul:  Mul=     1
 Structure from the checkpoint file:  "MN_37_fch3clts_BH76_TPSShDBJ_631Gs.chk"
 Charge = -1 Multiplicity = 1

                         Standard orientation:
 ---------------------------------------------------------------------
 Center     Atomic      Atomic             Coordinates (Angstroms)
 Number     Number       Type             X           Y           Z
 ---------------------------------------------------------------------
      1          6           0        0.303005   -0.362736    0.000002
      2          9           0        2.625318    0.178474    0.000003
      3         17           0       -1.604013    0.120939    0.000002
      4          1           0        1.055553    0.461090    0.000301
      5          1           0        0.383506   -0.973176   -0.898004
      6          1           0        0.383271   -0.973732    0.897637
 ---------------------------------------------------------------------

 SCF Done:  E(RTPSSh) =  -599.923606616     A.U. after    1 cycles

 The electronic state is 1-A.
 Alpha  occ. eigenvalues -- -101.16023 -24.17757  -9.96332  -9.16459  -6.91226
 Alpha  occ. eigenvalues --   -6.90465  -6.90461  -0.69590  -0.59913  -0.45664
 Alpha  occ. eigenvalues --   -0.22505  -0.20649  -0.17482  -0.09712  -0.09648
 Alpha  occ. eigenvalues --    0.02726   0.03305   0.03375
 Alpha virt. eigenvalues --    0.18580   0.29634   0.33589   0.41787   0.57247
 Alpha virt. eigenvalues --    0.62981   0.63665   0.65767   0.72905   0.73611
 Alpha virt. eigenvalues --    0.84932   1.03783   1.04435   1.05570   1.09447

 Mulliken charges:
               1
     1  C   -0.520792
     2  F   -0.694282
     3  Cl  -0.385257
     4  H    0.285947
     5  H    0.157201
     6  H    0.157183
 Sum of Mulliken charges =  -1.00000

 Dipole moment (field-independent basis, Debye):
    X=             -4.5353    Y=             -1.1646    Z=             -0.0001  Tot=              4.6825
 Quadrupole moment (field-independent basis, Debye-Ang):
   XX=            -55.5177   YY=            -26.8137   ZZ=            -26.5301
   XY=             -1.1763   XZ=             -0.0001   YZ=             -0.0000

  Exact polarizability:  61.197  -1.202  19.181  -0.001  -0.000  19.122
 Approx polarizability: 115.679  -1.272  25.135  -0.002  -0.000  25.069

 ******    1 imaginary frequencies (negative Signs) ******

                      1                      2                      3
                      A                      A                      A
 Frequencies --   -163.4583               226.6778               290.2370
 Red. masses --      2.8728                 1.6225                16.7835
 Frc consts  --      0.0452                 0.0491                 0.8330
 IR Inten    --     40.6994                 1.5307                12.0646

                      4                      5                      6
                      A                      A                      A
 Frequencies --    418.4765               713.6728               980.9822
 Red. masses --      8.3023                 1.2458                 1.0962
 Frc consts  --      0.8566                 0.3739                 0.6215
 IR Inten    --    268.9002               227.2300                 0.2613

                      7                      8                      9
                      A                      A                      A
 Frequencies --   1219.6605              1469.7407              1475.4506
 Red. masses --      1.0874                 1.0650                 1.0757
 Frc consts  --      0.9530                 1.3555                 1.3798
 IR Inten    --     10.2073                 6.4742                10.2718

                     10                     11                     12
                      A                      A                      A
 Frequencies --   2868.8530              3158.5415              3221.7526
 Red. masses --      1.0562                 1.0744                 1.1107
 Frc consts  --      5.1216                 6.3150                 6.7924
 IR Inten    --    150.6128                36.9037                43.4466

 - Thermochemistry -
 -------------------
 Temperature   298.150 Kelvin.  Pressure   1.00000 Atm.
 Atom     1 has atomic number  6 and mass  12.00000

 Molecular mass:    68.99073 amu.
 Principal axes and moments of inertia in atomic units:
                           1         2         3
     Eigenvalues --    22.84712 803.67418 814.91691
           X            1.00000  -0.00255  -0.00000
           Y            0.00255   1.00000  -0.00000
           Z            0.00000   0.00000   1.00000
 This molecule is an asymmetric top.
 Rotational symmetry number  1.
 Rotational temperatures (Kelvin)      3.79102     0.10777     0.10629
 Rotational constants (GHZ):          78.99208     2.24561     2.21463
    1 imaginary frequencies ignored.
 Zero-point vibrational energy      95964.7 (Joules/Mol)
                                   22.93611 (Kcal/Mol)
 Warning -- explicit consideration of   3 degrees of freedom as
           vibrations may cause significant error
 Vibrational temperatures:    326.14   417.59   602.09  1026.82  1411.41
          (Kelvin)           1754.82  2114.63  2122.84  4127.64  4544.44
                             4635.38

 Zero-point correction=                           0.036551 (Hartree/Particle)
 Thermal correction to Energy=                    0.040801
 Thermal correction to Enthalpy=                  0.041746
 Thermal correction to Gibbs Free Energy=         0.009645
 Sum of electronic and zero-point Energies=           -599.887056
 Sum of electronic and thermal Energies=              -599.882805
 Sum of electronic and thermal Enthalpies=            -599.881861
 Sum of electronic and thermal Free Energies=         -599.913961

                     E (Thermal)             CV                S
                      KCal/Mol        Cal/Mol-Kelvin    Cal/Mol-Kelvin
 Total                   25.603             12.444             67.561
 Electronic               0.000              0.000              0.000
 Translational            0.889              2.981             38.612
 Rotational               0.889              2.981             24.218
 Vibrational             23.826              6.482              4.731
 Vibration     1          0.650              1.800              1.905
 Vibration     2          0.686              1.692              1.473
 Vibration     3          0.781              1.430              0.897

 Optimization completed.
    -- Stationary point found.
 Normal termination of Gaussian 16 at Wed Oct  7 14:50:02 2020.
