 Gaussian 16, Revision A.03,

 ----------------------------------------------------------------------
 #P Opt(TS,MaxCyc=50,NoEigenTest,MaxStep=10,AddRedundant) TPSSh/6-31G*
 5D 7F Integral=UltraFineGrid SCF=(NoSymm,XQC,MaxCyc=120) IOp(1/33=1,3/
 174=1000000,3/175=2238200,3/177=0452900,3/178=4655000) EmpiricalDisper
 sion=GD3BJ
 ----------------------------------------------------------------------

 TstMul:  Mul=     1
 TstMul:  ICh=    -1
 TstMul:  Mul=     1
 Symbolic Z-matrix:
 Charge = -1 Multiplicity = 1

 SCF Done:  E(RTPSSh) =  -239.518479638     A.U. after   12 cycles
 SCF Done:  E(RTPSSh) =  -239.518642285     A.U. after   11 cycles
 SCF Done:  E(RTPSSh) =  -239.518678499     A.U. after   10 cycles
 SCF Done:  E(RTPSSh) =  -239.518684209     A.U. after    8 cycles
 Optimization completed.
    -- Stationary point found.
 Normal termination of Gaussian 16 at Wed Oct  7 14:41:57 2020.
 Gaussian 16:  ES64L-G16RevA.03 25-Dec-2016

 ----------------------------------------------------------------------
 #P Freq TPSSh/6-31G* 5D 7F Integral=UltraFineGrid SCF=(NoSymm,XQC,MaxC
 yc=120) IOp(1/33=1,3/174=1000000,3/175=2238200,3/177=0452900,3/178=465
 5000) EmpiricalDispersion=GD3BJ Geom=Check Guess=Read
 ----------------------------------------------------------------------

 TstMul:  Mul=     1
 TstMul:  ICh=    -1
 TstMul:  Mul=     1
 Structure from the checkpoint file:  "MN_39_fch3fts_BH76_TPSShDBJ_631Gs.chk"
 Charge = -1 Multiplicity = 1

                         Standard orientation:
 ---------------------------------------------------------------------
 Center     Atomic      Atomic             Coordinates (Angstroms)
 Number     Number       Type             X           Y           Z
 ---------------------------------------------------------------------
      1          9           0        1.810195   -0.000023    0.000001
      2          6           0       -0.006893    0.000043   -0.000003
      3          1           0        0.000884    0.299485    1.035125
      4          1           0        0.000914    0.746776   -0.776878
      5          1           0        0.000867   -1.046122   -0.258239
      6          9           0       -1.805896   -0.000021    0.000000
 ---------------------------------------------------------------------

 SCF Done:  E(RTPSSh) =  -239.518684209     A.U. after    1 cycles

 The electronic state is 1-A.
 Alpha  occ. eigenvalues --  -24.21460 -24.20845  -9.94694  -0.74358  -0.73448
 Alpha  occ. eigenvalues --   -0.42452  -0.19631  -0.19631  -0.09039  -0.00343
 Alpha  occ. eigenvalues --   -0.00343   0.01329   0.01329   0.01630
 Alpha virt. eigenvalues --    0.31291   0.32295   0.38018   0.38019   0.78727
 Alpha virt. eigenvalues --    0.78728   0.85543   1.04796   1.13374   1.13375
 Alpha virt. eigenvalues --    1.34220   1.42633   1.42633   1.56778   1.56986

 Mulliken charges:
               1
     1  F   -0.642171
     2  C   -0.105082
     3  H    0.127133
     4  H    0.127132
     5  H    0.127140
     6  F   -0.634153
 Sum of Mulliken charges =  -1.00000

 Dipole moment (field-independent basis, Debye):
    X=             -0.1093    Y=              0.0002    Z=             -0.0000  Tot=              0.1093
 Quadrupole moment (field-independent basis, Debye-Ang):
   XX=            -37.7113   YY=            -17.5853   ZZ=            -17.5853
   XY=              0.0001   XZ=             -0.0000   YZ=             -0.0000

  Exact polarizability:  30.030   0.000  14.793  -0.000   0.000  14.793
 Approx polarizability:  52.834   0.000  18.391  -0.000  -0.000  18.391

 ******    1 imaginary frequencies (negative Signs) ******

                      1                      2                      3
                      A                      A                      A
 Frequencies --   -451.8997               333.8568               333.9745
 Red. masses --     10.1893                 4.3537                 4.3544
 Frc consts  --      1.2260                 0.2859                 0.2862
 IR Inten    --    678.8682                16.4969                16.4984

                      4                      5                      6
                      A                      A                      A
 Frequencies --    367.5922              1015.7074              1015.8456
 Red. masses --     18.9661                 1.0215                 1.0215
 Frc consts  --      1.5099                 0.6209                 0.6211
 IR Inten    --      0.0313                 0.0049                 0.0049

                      7                      8                      9
                      A                      A                      A
 Frequencies --   1134.4082              1402.6959              1402.8359
 Red. masses --      1.0906                 1.1220                 1.1220
 Frc consts  --      0.8269                 1.3006                 1.3009
 IR Inten    --      0.0633                 0.9326                 0.9325

                     10                     11                     12
                      A                      A                      A
 Frequencies --   3137.6414              3321.1237              3321.2037
 Red. masses --      1.0079                 1.1281                 1.1281
 Frc consts  --      5.8463                 7.3308                 7.3312
 IR Inten    --      0.0078                62.7411                62.7569

 - Thermochemistry -
 -------------------
 Temperature   298.150 Kelvin.  Pressure   1.00000 Atm.
 Atom     1 has atomic number  9 and mass  18.99840

 Molecular mass:    53.02028 amu.
 Principal axes and moments of inertia in atomic units:
                           1         2         3
     Eigenvalues --    12.53695 449.84238 449.84247
           X            1.00000   0.00000  -0.00000
           Y           -0.00000   1.00000   0.00005
           Z            0.00000  -0.00005   1.00000
 This molecule is an asymmetric top.
 Rotational symmetry number  1.
 Rotational temperatures (Kelvin)      6.90869     0.19254     0.19254
 Rotational constants (GHZ):         143.95373     4.01194     4.01194
    1 imaginary frequencies ignored.
 Zero-point vibrational energy     100407.9 (Joules/Mol)
                                   23.99806 (Kcal/Mol)
 Warning -- explicit consideration of   3 degrees of freedom as
           vibrations may cause significant error
 Vibrational temperatures:    480.35   480.51   528.88  1461.38  1461.58
          (Kelvin)           1632.16  2018.17  2018.37  4514.37  4778.36
                             4778.47

 Zero-point correction=                           0.038243 (Hartree/Particle)
 Thermal correction to Energy=                    0.042283
 Thermal correction to Enthalpy=                  0.043227
 Thermal correction to Gibbs Free Energy=         0.012762
 Sum of electronic and zero-point Energies=           -239.480441
 Sum of electronic and thermal Energies=              -239.476401
 Sum of electronic and thermal Enthalpies=            -239.475457
 Sum of electronic and thermal Free Energies=         -239.505922

                     E (Thermal)             CV                S
                      KCal/Mol        Cal/Mol-Kelvin    Cal/Mol-Kelvin
 Total                   26.533             11.898             64.119
 Electronic               0.000              0.000              0.000
 Translational            0.889              2.981             37.827
 Rotational               0.889              2.981             22.455
 Vibrational             24.755              5.937              3.837
 Vibration     1          0.715              1.608              1.241
 Vibration     2          0.716              1.608              1.241
 Vibration     3          0.740              1.539              1.090

                           ! Non-Optimized Parameters !
 Normal termination of Gaussian 16 at Wed Oct  7 14:42:23 2020.
