 Gaussian 16, Revision A.03,
 Gaussian 16:  ES64L-G16RevA.03 25-Dec-2016

 ----------------------------------------------------------------------
 #P Opt(MaxCyc=100) TPSSh/6-31G* 5D 7F Integral=UltraFineGrid SCF=(NoSy
 mm,XQC,MaxCyc=120) IOp(1/33=1,3/174=1000000,3/175=2238200,3/177=045290
 0,3/178=4655000) EmpiricalDispersion=GD3BJ
 ----------------------------------------------------------------------

 TstMul:  Mul=     1
 TstMul:  ICh=    -1
 TstMul:  Mul=     1
 Symbolic Z-matrix:
 Charge = -1 Multiplicity = 1

 SCF Done:  E(RTPSSh) =  -599.996480183     A.U. after   11 cycles
 SCF Done:  E(RTPSSh) =  -599.996671096     A.U. after    8 cycles
 SCF Done:  E(RTPSSh) =  -599.996692900     A.U. after    9 cycles
 SCF Done:  E(RTPSSh) =  -599.996720585     A.U. after    9 cycles
 SCF Done:  E(RTPSSh) =  -599.996723453     A.U. after    7 cycles
 SCF Done:  E(RTPSSh) =  -599.996723905     A.U. after    6 cycles
 Optimization completed.
    -- Stationary point found.

                         Standard orientation:
 ---------------------------------------------------------------------
 Center     Atomic      Atomic             Coordinates (Angstroms)
 Number     Number       Type             X           Y           Z
 ---------------------------------------------------------------------
      1          9           0        0.000000    0.000000   -2.626014
      2          6           0        0.000000    0.000000   -1.209676
      3          1           0       -0.000000    1.027814   -0.843865
      4          1           0       -0.890113   -0.513907   -0.843865
      5          1           0        0.890113   -0.513907   -0.843865
      6         17           0        0.000000    0.000000    1.966104
 ---------------------------------------------------------------------

 The electronic state is 1-A1.
 Alpha  occ. eigenvalues -- -101.03754 -24.42408 -10.01710  -9.03746  -6.78078
 Alpha  occ. eigenvalues --   -6.78037  -6.78037  -0.98476  -0.51019  -0.43886
 Alpha  occ. eigenvalues --   -0.28941  -0.28475  -0.28475  -0.15525  -0.15525
 Alpha  occ. eigenvalues --    0.00342   0.00572   0.00572
 Alpha virt. eigenvalues --    0.26464   0.29751   0.33339   0.33339   0.61823
 Alpha virt. eigenvalues --    0.69689   0.69924   0.69924   0.73840   0.73840
 Alpha virt. eigenvalues --    0.82575   1.03238   1.03238   1.12182   1.13650

 Mulliken charges:
               1
     1  F   -0.400457
     2  C   -0.127389
     3  H    0.160342
     4  H    0.160342
     5  H    0.160342
     6  Cl  -0.953179
 Sum of Mulliken charges =  -1.00000

 Dipole moment (field-independent basis, Debye):
    X=              0.0000    Y=             -0.0000    Z=             -6.3668  Tot=              6.3668
 Quadrupole moment (field-independent basis, Debye-Ang):
   XX=            -27.2709   YY=            -27.2709   ZZ=            -54.0175
   XY=             -0.0000   XZ=             -0.0000   YZ=              0.0000

 Normal termination of Gaussian 16 at Wed Oct  7 14:42:20 2020.
