 Gaussian 16, Revision A.03,
 Gaussian 16:  ES64L-G16RevA.03 25-Dec-2016

 ----------------------------------------------------------------------
 #P Opt(MaxCyc=100) TPSSh/6-31G* 5D 7F Integral=UltraFineGrid SCF=(NoSy
 mm,XQC,MaxCyc=120) IOp(1/33=1,3/174=1000000,3/175=2238200,3/177=045290
 0,3/178=4655000) EmpiricalDispersion=GD3BJ
 ----------------------------------------------------------------------

 TstMul:  Mul=     1
 TstMul:  ICh=     0
 TstMul:  Mul=     1
 Symbolic Z-matrix:
 Charge =  0 Multiplicity = 1

 SCF Done:  E(RTPSSh) =  -199.493768920     A.U. after    9 cycles
 SCF Done:  E(RTPSSh) =  -199.493919930     A.U. after    6 cycles
 SCF Done:  E(RTPSSh) =  -199.493921818     A.U. after    6 cycles
 Optimization completed.
    -- Stationary point found.

                         Standard orientation:
 ---------------------------------------------------------------------
 Center     Atomic      Atomic             Coordinates (Angstroms)
 Number     Number       Type             X           Y           Z
 ---------------------------------------------------------------------
      1          9           0        0.000000    0.000000    0.704862
      2          9           0        0.000000    0.000000   -0.704862
 ---------------------------------------------------------------------

 The electronic state is 1-SGG.
 Alpha  occ. eigenvalues --  -24.70452 -24.70448  -1.30175  -1.06569  -0.56392
 Alpha  occ. eigenvalues --   -0.48933  -0.48933  -0.36098  -0.36098
 Alpha virt. eigenvalues --   -0.14985   1.05924   1.05924   1.08230   1.21537
 Alpha virt. eigenvalues --    1.23972   1.23972   1.25662   1.52529   1.52529
 Alpha virt. eigenvalues --    1.68202   1.68202   1.73373   1.91938   1.91938

 Mulliken charges:
               1
     1  F   -0.000000
     2  F   -0.000000
 Sum of Mulliken charges =  -0.00000

 Dipole moment (field-independent basis, Debye):
    X=             -0.0000    Y=             -0.0000    Z=              0.0000  Tot=              0.0000
 Quadrupole moment (field-independent basis, Debye-Ang):
   XX=             -9.2742   YY=             -9.2742   ZZ=             -8.2885
   XY=             -0.0000   XZ=              0.0000   YZ=              0.0000

 Normal termination of Gaussian 16 at Wed Oct  7 14:41:38 2020.
