 Gaussian 16, Revision A.03,
 Gaussian 16:  ES64L-G16RevA.03 25-Dec-2016

 ----------------------------------------------------------------------
 #P Opt(MaxCyc=100) TPSSh/6-31G* 5D 7F Integral=UltraFineGrid SCF=(NoSy
 mm,XQC,MaxCyc=120) IOp(1/33=1,3/174=1000000,3/175=2238200,3/177=045290
 0,3/178=4655000) EmpiricalDispersion=GD3BJ
 ----------------------------------------------------------------------

 TstMul:  Mul=     1
 TstMul:  ICh=    -1
 TstMul:  Mul=     1
 Symbolic Z-matrix:
 Charge = -1 Multiplicity = 1

 SCF Done:  E(RTPSSh) =  -599.917320545     A.U. after   15 cycles
 SCF Done:  E(RTPSSh) =  -599.920599711     A.U. after   12 cycles
 SCF Done:  E(RTPSSh) =  -599.927134372     A.U. after   13 cycles
 SCF Done:  E(RTPSSh) =  -599.923915027     A.U. after   14 cycles
 SCF Done:  E(RTPSSh) =  -599.937664616     A.U. after   12 cycles
 SCF Done:  E(RTPSSh) =  -599.958532918     A.U. after   13 cycles
 SCF Done:  E(RTPSSh) =  -599.984173461     A.U. after   13 cycles
 SCF Done:  E(RTPSSh) =  -599.989252354     A.U. after   12 cycles
 SCF Done:  E(RTPSSh) =  -599.994376590     A.U. after   11 cycles
 SCF Done:  E(RTPSSh) =  -599.995405075     A.U. after   10 cycles
 SCF Done:  E(RTPSSh) =  -599.996495958     A.U. after   10 cycles
 SCF Done:  E(RTPSSh) =  -599.996715852     A.U. after   10 cycles
 SCF Done:  E(RTPSSh) =  -599.996723567     A.U. after    8 cycles
 SCF Done:  E(RTPSSh) =  -599.996723972     A.U. after    7 cycles
 Optimization completed.
    -- Stationary point found.

                         Standard orientation:
 ---------------------------------------------------------------------
 Center     Atomic      Atomic             Coordinates (Angstroms)
 Number     Number       Type             X           Y           Z
 ---------------------------------------------------------------------
      1         17           0        0.000000    0.000000    1.966582
      2          6           0        0.000000    0.000000   -1.209835
      3          1           0        0.000000    1.027954   -0.844360
      4          1           0        0.890234   -0.513977   -0.844360
      5          1           0       -0.890234   -0.513977   -0.844360
      6          9           0        0.000000    0.000000   -2.626645
 ---------------------------------------------------------------------

 The electronic state is 1-A1.
 Alpha  occ. eigenvalues -- -101.03755 -24.42403 -10.01718  -9.03747  -6.78080
 Alpha  occ. eigenvalues --   -6.78038  -6.78038  -0.98459  -0.51023  -0.43887
 Alpha  occ. eigenvalues --   -0.28929  -0.28472  -0.28472  -0.15528  -0.15528
 Alpha  occ. eigenvalues --    0.00341   0.00571   0.00571
 Alpha virt. eigenvalues --    0.26448   0.29732   0.33331   0.33331   0.61812
 Alpha virt. eigenvalues --    0.69679   0.69921   0.69921   0.73838   0.73838
 Alpha virt. eigenvalues --    0.82574   1.03237   1.03237   1.12162   1.13650

 Mulliken charges:
               1
     1  Cl  -0.953201
     2  C   -0.127367
     3  H    0.160407
     4  H    0.160407
     5  H    0.160407
     6  F   -0.400654
 Sum of Mulliken charges =  -1.00000

 Dipole moment (field-independent basis, Debye):
    X=             -0.0000    Y=              0.0000    Z=             -6.3670  Tot=              6.3670
 Quadrupole moment (field-independent basis, Debye-Ang):
   XX=            -27.2700   YY=            -27.2700   ZZ=            -54.0353
   XY=             -0.0000   XZ=              0.0000   YZ=             -0.0000

 Normal termination of Gaussian 16 at Wed Oct  7 14:43:52 2020.
