 Gaussian 16, Revision A.03,
 Gaussian 16:  ES64L-G16RevA.03 25-Dec-2016

 ----------------------------------------------------------------------
 #P Opt(MaxCyc=100) TPSSh/6-31G* 5D 7F Integral=UltraFineGrid SCF=(NoSy
 mm,XQC,MaxCyc=120) IOp(1/33=1,3/174=1000000,3/175=2238200,3/177=045290
 0,3/178=4655000) EmpiricalDispersion=GD3BJ
 ----------------------------------------------------------------------

 TstMul:  Mul=     1
 TstMul:  ICh=    -1
 TstMul:  Mul=     1
 Symbolic Z-matrix:
 Charge = -1 Multiplicity = 1

 SCF Done:  E(RTPSSh) =  -239.525770770     A.U. after   13 cycles
 SCF Done:  E(RTPSSh) =  -239.527040494     A.U. after   11 cycles
 SCF Done:  E(RTPSSh) =  -239.528523022     A.U. after   11 cycles
 SCF Done:  E(RTPSSh) =  -239.528818040     A.U. after   11 cycles
 SCF Done:  E(RTPSSh) =  -239.528871111     A.U. after    9 cycles
 SCF Done:  E(RTPSSh) =  -239.528876191     A.U. after    8 cycles
 SCF Done:  E(RTPSSh) =  -239.528877168     A.U. after    7 cycles
 SCF Done:  E(RTPSSh) =  -239.528877704     A.U. after    8 cycles
 Optimization completed.
    -- Stationary point found.

                         Standard orientation:
 ---------------------------------------------------------------------
 Center     Atomic      Atomic             Coordinates (Angstroms)
 Number     Number       Type             X           Y           Z
 ---------------------------------------------------------------------
      1          9           0        0.000000    0.000000   -1.796467
      2          6           0        0.000000    0.000000   -0.329421
      3          1           0       -0.000000    1.025751    0.026847
      4          1           0       -0.888326   -0.512875    0.026847
      5          1           0        0.888326   -0.512875    0.026847
      6          9           0        0.000000    0.000000    2.007133
 ---------------------------------------------------------------------

 The electronic state is 1-A1.
 Alpha  occ. eigenvalues --  -24.35568 -24.10615  -9.95574  -0.90748  -0.62651
 Alpha  occ. eigenvalues --   -0.44643  -0.21866  -0.21866  -0.21682  -0.09853
 Alpha  occ. eigenvalues --   -0.09853   0.08958   0.09612   0.09612
 Alpha virt. eigenvalues --    0.31837   0.34749   0.38566   0.38566   0.76403
 Alpha virt. eigenvalues --    0.76403   0.77792   1.09030   1.09030   1.13626
 Alpha virt. eigenvalues --    1.24698   1.44464   1.44464   1.45041   1.59852

 Mulliken charges:
               1
     1  F   -0.447452
     2  C   -0.159393
     3  H    0.133182
     4  H    0.133182
     5  H    0.133182
     6  F   -0.792701
 Sum of Mulliken charges =  -1.00000

 Dipole moment (field-independent basis, Debye):
    X=             -0.0000    Y=             -0.0000    Z=             -4.7381  Tot=              4.7381
 Quadrupole moment (field-independent basis, Debye-Ang):
   XX=            -17.8017   YY=            -17.8017   ZZ=            -39.5514
   XY=             -0.0000   XZ=             -0.0000   YZ=             -0.0000

 Normal termination of Gaussian 16 at Wed Oct  7 14:42:48 2020.
