 Gaussian 16, Revision A.03,
 Gaussian 16:  ES64L-G16RevA.03 25-Dec-2016

 ----------------------------------------------------------------------
 #P Opt(MaxCyc=100) TPSSh/6-31G* 5D 7F Integral=UltraFineGrid SCF=(NoSy
 mm,XQC,MaxCyc=120) IOp(1/33=1,3/174=1000000,3/175=2238200,3/177=045290
 0,3/178=4655000) EmpiricalDispersion=GD3BJ
 ----------------------------------------------------------------------

 TstMul:  Mul=     1
 TstMul:  ICh=     0
 TstMul:  Mul=     1
 Symbolic Z-matrix:
 Charge =  0 Multiplicity = 1

 SCF Done:  E(RTPSSh) =  -399.382250925     A.U. after   10 cycles
 SCF Done:  E(RTPSSh) =  -399.382336185     A.U. after    7 cycles
 SCF Done:  E(RTPSSh) =  -399.382337041     A.U. after    6 cycles
 Optimization completed.
    -- Stationary point found.

                         Standard orientation:
 ---------------------------------------------------------------------
 Center     Atomic      Atomic             Coordinates (Angstroms)
 Number     Number       Type             X           Y           Z
 ---------------------------------------------------------------------
      1         16           0        0.000000   -0.000000    0.103147
      2          1           0       -0.000000    0.973675   -0.825179
      3          1           0       -0.000000   -0.973675   -0.825179
 ---------------------------------------------------------------------

 The electronic state is 1-A1.
 Alpha  occ. eigenvalues --  -88.71450  -7.86862  -5.81988  -5.81629  -5.80822
 Alpha  occ. eigenvalues --   -0.72803  -0.43931  -0.35426  -0.24767
 Alpha virt. eigenvalues --    0.01221   0.05452   0.32052   0.33271   0.35153
 Alpha virt. eigenvalues --    0.36964   0.67812   0.72061   0.74625   0.75404
 Alpha virt. eigenvalues --    0.75971   1.03112   1.21733

 Mulliken charges:
               1
     1  S   -0.247809
     2  H    0.123905
     3  H    0.123905
 Sum of Mulliken charges =  -0.00000

 Dipole moment (field-independent basis, Debye):
    X=             -0.0000    Y=              0.0000    Z=             -1.4475  Tot=              1.4475
 Quadrupole moment (field-independent basis, Debye-Ang):
   XX=            -16.5629   YY=            -12.1618   ZZ=            -13.5214
   XY=              0.0000   XZ=              0.0000   YZ=              0.0000

 Normal termination of Gaussian 16 at Wed Oct  7 14:42:14 2020.
