 Gaussian 16, Revision A.03,

 ----------------------------------------------------------------------
 #P Opt(TS,MaxCyc=50,NoEigenTest,MaxStep=10,AddRedundant) TPSSh/6-31G*
 5D 7F Integral=UltraFineGrid SCF=(NoSymm,XQC,MaxCyc=120) IOp(1/33=1,3/
 174=1000000,3/175=2238200,3/177=0452900,3/178=4655000) EmpiricalDisper
 sion=GD3BJ
 ----------------------------------------------------------------------

 TstMul:  Mul=     1
 TstMul:  ICh=     0
 TstMul:  Mul=     1
 Symbolic Z-matrix:
 Charge =  0 Multiplicity = 1

 SCF Done:  E(RTPSSh) =  -93.3435633099     A.U. after   12 cycles
 SCF Done:  E(RTPSSh) =  -93.3436264676     A.U. after    9 cycles
 SCF Done:  E(RTPSSh) =  -93.3436322672     A.U. after    9 cycles
 SCF Done:  E(RTPSSh) =  -93.3436315195     A.U. after    8 cycles
 Optimization completed.
    -- Stationary point found.
 Normal termination of Gaussian 16 at Wed Oct  7 14:42:25 2020.
 Gaussian 16:  ES64L-G16RevA.03 25-Dec-2016

 ----------------------------------------------------------------------
 #P Freq TPSSh/6-31G* 5D 7F Integral=UltraFineGrid SCF=(NoSymm,XQC,MaxC
 yc=120) IOp(1/33=1,3/174=1000000,3/175=2238200,3/177=0452900,3/178=465
 5000) EmpiricalDispersion=GD3BJ Geom=Check Guess=Read
 ----------------------------------------------------------------------

 TstMul:  Mul=     1
 TstMul:  ICh=     0
 TstMul:  Mul=     1
 Structure from the checkpoint file:  "MN_49_hcnts_BH76_TPSShDBJ_631Gs.chk"
 Charge =  0 Multiplicity = 1

                         Standard orientation:
 ---------------------------------------------------------------------
 Center     Atomic      Atomic             Coordinates (Angstroms)
 Number     Number       Type             X           Y           Z
 ---------------------------------------------------------------------
      1          6           0        0.080348    0.626508    0.000000
      2          7           0        0.080348   -0.570297    0.000000
      3          1           0       -1.044530    0.233031    0.000000
 ---------------------------------------------------------------------

 SCF Done:  E(RTPSSh) =  -93.3436315195     A.U. after    1 cycles

 The electronic state is 1-A'.
 Alpha  occ. eigenvalues --  -14.33680 -10.18277  -0.96068  -0.50797  -0.43352
 Alpha  occ. eigenvalues --   -0.36472  -0.31370
 Alpha virt. eigenvalues --   -0.07268  -0.00589   0.05735   0.31625   0.53118
 Alpha virt. eigenvalues --    0.53270   0.57293   0.66741   0.70785   0.74101
 Alpha virt. eigenvalues --    0.77310   0.82926   1.25188   1.46009   1.47761

 Mulliken charges:
               1
     1  C   -0.047271
     2  N   -0.230671
     3  H    0.277943
 Sum of Mulliken charges =  -0.00000

 Dipole moment (field-independent basis, Debye):
    X=             -1.2458    Y=              0.1078    Z=              0.0000  Tot=              1.2504
 Quadrupole moment (field-independent basis, Debye-Ang):
   XX=             -9.4433   YY=            -14.1139   ZZ=            -11.8031
   XY=             -0.2892   XZ=              0.0000   YZ=              0.0000

  Exact polarizability:  13.036   0.287  17.794  -0.000   0.000   8.633
 Approx polarizability:  20.376   1.310  38.348  -0.000  -0.000  12.317

 ******    1 imaginary frequencies (negative Signs) ******

                      1                      2                      3
                     A'                     A'                     A'
 Frequencies --  -1136.9442              2035.7096              2614.1240
 Red. masses --      1.1643                12.0449                 1.0586
 Frc consts  --      0.8867                29.4092                 4.2621
 IR Inten    --     67.1678                 9.6536               100.7399

 - Thermochemistry -
 -------------------
 Temperature   298.150 Kelvin.  Pressure   1.00000 Atm.
 Atom     1 has atomic number  6 and mass  12.00000

 Molecular mass:    27.01090 amu.
 Principal axes and moments of inertia in atomic units:
                           1         2         3
     Eigenvalues --     4.35100  33.30548  37.65647
           X           -0.03381   0.99943   0.00000
           Y            0.99943   0.03381   0.00000
           Z            0.00000   0.00000   1.00000
 This molecule is an asymmetric top.
 Rotational symmetry number  1.
 Rotational temperatures (Kelvin)     19.90669     2.60059     2.30011
 Rotational constants (GHZ):         414.78805    54.18752    47.92645
    1 imaginary frequencies ignored.
 Zero-point vibrational energy      27812.2 (Joules/Mol)
                                    6.64727 (Kcal/Mol)
 Vibrational temperatures:   2928.93  3761.14
          (Kelvin)

 Zero-point correction=                           0.010593 (Hartree/Particle)
 Thermal correction to Energy=                    0.013426
 Thermal correction to Enthalpy=                  0.014370
 Thermal correction to Gibbs Free Energy=        -0.010417
 Sum of electronic and zero-point Energies=            -93.333038
 Sum of electronic and thermal Energies=               -93.330205
 Sum of electronic and thermal Enthalpies=             -93.329261
 Sum of electronic and thermal Free Energies=          -93.354049

                     E (Thermal)             CV                S
                      KCal/Mol        Cal/Mol-Kelvin    Cal/Mol-Kelvin
 Total                    8.425              5.973             52.170
 Electronic               0.000              0.000              0.000
 Translational            0.889              2.981             35.816
 Rotational               0.889              2.981             16.352
 Vibrational              6.648              0.011              0.001

 Optimization completed.
    -- Stationary point found.
 Normal termination of Gaussian 16 at Wed Oct  7 14:42:44 2020.
