 Gaussian 16, Revision A.03,
 Gaussian 16:  ES64L-G16RevA.03 25-Dec-2016

 ----------------------------------------------------------------------
 #P Opt(MaxCyc=100) TPSSh/6-31G* 5D 7F Integral=UltraFineGrid SCF=(NoSy
 mm,XQC,MaxCyc=120) IOp(1/33=1,3/174=1000000,3/175=2238200,3/177=045290
 0,3/178=4655000) EmpiricalDispersion=GD3BJ
 ----------------------------------------------------------------------

 TstMul:  Mul=     1
 TstMul:  ICh=     0
 TstMul:  Mul=     1
 Symbolic Z-matrix:
 Charge =  0 Multiplicity = 1

 SCF Done:  E(RTPSSh) =  -76.4019446565     A.U. after    9 cycles
 SCF Done:  E(RTPSSh) =  -76.4023039253     A.U. after    7 cycles
 SCF Done:  E(RTPSSh) =  -76.4023132880     A.U. after    6 cycles
 Optimization completed.
    -- Stationary point found.

                         Standard orientation:
 ---------------------------------------------------------------------
 Center     Atomic      Atomic             Coordinates (Angstroms)
 Number     Number       Type             X           Y           Z
 ---------------------------------------------------------------------
      1          8           0        0.000000    0.000000    0.120222
      2          1           0       -0.000000    0.762801   -0.480888
      3          1           0       -0.000000   -0.762801   -0.480888
 ---------------------------------------------------------------------

 The electronic state is 1-A1.
 Alpha  occ. eigenvalues --  -19.05514  -0.97206  -0.49330  -0.34770  -0.26434
 Alpha virt. eigenvalues --    0.06671   0.14823   0.77493   0.85926   0.88918
 Alpha virt. eigenvalues --    0.93635   1.06438   1.37777   1.72304   1.74059
 Alpha virt. eigenvalues --    1.77296   2.29713   2.59322

 Mulliken charges:
               1
     1  O   -0.801352
     2  H    0.400676
     3  H    0.400676
 Sum of Mulliken charges =  -0.00000

 Dipole moment (field-independent basis, Debye):
    X=             -0.0000    Y=             -0.0000    Z=             -2.0911  Tot=              2.0911
 Quadrupole moment (field-independent basis, Debye-Ang):
   XX=             -7.2107   YY=             -4.2526   ZZ=             -5.9573
   XY=              0.0000   XZ=              0.0000   YZ=              0.0000

 Normal termination of Gaussian 16 at Wed Oct  7 14:41:41 2020.
