 Gaussian 16, Revision A.03,
 Gaussian 16:  ES64L-G16RevA.03 25-Dec-2016

 ----------------------------------------------------------------------
 #P Opt(MaxCyc=100) TPSSh/6-31G* 5D 7F Integral=UltraFineGrid SCF=(NoSy
 mm,XQC,MaxCyc=120) IOp(1/33=1,3/174=1000000,3/175=2238200,3/177=045290
 0,3/178=4655000) EmpiricalDispersion=GD3BJ
 ----------------------------------------------------------------------

 TstMul:  Mul=     1
 TstMul:  ICh=     0
 TstMul:  Mul=     1
 Symbolic Z-matrix:
 Charge =  0 Multiplicity = 1

 SCF Done:  E(RTPSSh) =  -460.791347865     A.U. after   10 cycles
 SCF Done:  E(RTPSSh) =  -460.791426863     A.U. after    7 cycles
 Optimization completed.
    -- Stationary point found.

                         Standard orientation:
 ---------------------------------------------------------------------
 Center     Atomic      Atomic             Coordinates (Angstroms)
 Number     Number       Type             X           Y           Z
 ---------------------------------------------------------------------
      1         17           0        0.000000    0.000000    0.071466
      2          1           0        0.000000    0.000000   -1.214923
 ---------------------------------------------------------------------

 The electronic state is 1-SG.
 Alpha  occ. eigenvalues -- -101.37665  -9.38432  -7.13412  -7.12271  -7.12271
 Alpha  occ. eigenvalues --   -0.82610  -0.46064  -0.31478  -0.31478
 Alpha virt. eigenvalues --    0.00646   0.37857   0.41218   0.44225   0.44225
 Alpha virt. eigenvalues --    0.68817   0.81743   0.81743   0.84979   0.84979
 Alpha virt. eigenvalues --    1.18470

 Mulliken charges:
               1
     1  Cl  -0.234649
     2  H    0.234649
 Sum of Mulliken charges =  -0.00000

 Dipole moment (field-independent basis, Debye):
    X=              0.0000    Y=              0.0000    Z=             -1.4807  Tot=              1.4807
 Quadrupole moment (field-independent basis, Debye-Ang):
   XX=            -13.8791   YY=            -13.8791   ZZ=            -10.3076
   XY=             -0.0000   XZ=              0.0000   YZ=              0.0000

 Normal termination of Gaussian 16 at Wed Oct  7 14:42:07 2020.
