 Gaussian 16, Revision A.03,
 Gaussian 16:  ES64L-G16RevA.03 25-Dec-2016

 ----------------------------------------------------------------------
 #P Opt(MaxCyc=100) TPSSh/6-31G* 5D 7F Integral=UltraFineGrid SCF=(NoSy
 mm,XQC,MaxCyc=120) IOp(1/33=1,3/174=1000000,3/175=2238200,3/177=045290
 0,3/178=4655000) EmpiricalDispersion=GD3BJ
 ----------------------------------------------------------------------

 TstMul:  Mul=     1
 TstMul:  ICh=     0
 TstMul:  Mul=     1
 Symbolic Z-matrix:
 Charge =  0 Multiplicity = 1

 SCF Done:  E(RTPSSh) =  -93.4234589146     A.U. after   11 cycles
 SCF Done:  E(RTPSSh) =  -93.4236057036     A.U. after    7 cycles
 Optimization completed.
    -- Stationary point found.

                         Standard orientation:
 ---------------------------------------------------------------------
 Center     Atomic      Atomic             Coordinates (Angstroms)
 Number     Number       Type             X           Y           Z
 ---------------------------------------------------------------------
      1          6           0        0.000000    0.000000   -0.503764
      2          7           0        0.000000    0.000000    0.656691
      3          1           0        0.000000    0.000000   -1.574253
 ---------------------------------------------------------------------

 The electronic state is 1-SG.
 Alpha  occ. eigenvalues --  -14.28873 -10.17490  -0.89179  -0.59125  -0.35783
 Alpha  occ. eigenvalues --   -0.33993  -0.33993
 Alpha virt. eigenvalues --    0.00836   0.00836   0.08195   0.28051   0.52597
 Alpha virt. eigenvalues --    0.52597   0.64823   0.69608   0.77422   0.77422
 Alpha virt. eigenvalues --    0.82349   1.11128   1.47908   1.49540   1.49540

 Mulliken charges:
               1
     1  C    0.033373
     2  N   -0.304362
     3  H    0.270988
 Sum of Mulliken charges =   0.00000

 Dipole moment (field-independent basis, Debye):
    X=              0.0000    Y=             -0.0000    Z=             -2.8976  Tot=              2.8976
 Quadrupole moment (field-independent basis, Debye-Ang):
   XX=            -11.3811   YY=            -11.3811   ZZ=             -9.4766
   XY=             -0.0000   XZ=              0.0000   YZ=              0.0000

 Normal termination of Gaussian 16 at Wed Oct  7 14:42:05 2020.
