 Gaussian 16, Revision A.03,

 ----------------------------------------------------------------------
 #P Opt(TS,MaxCyc=50,NoEigenTest,MaxStep=10,AddRedundant) TPSSh/6-31G*
 5D 7F Integral=UltraFineGrid SCF=(NoSymm,XQC,MaxCyc=120) IOp(1/33=1,3/
 174=1000000,3/175=2238200,3/177=0452900,3/178=4655000) EmpiricalDisper
 sion=GD3BJ
 ----------------------------------------------------------------------

 TstMul:  Mul=     2
 TstMul:  ICh=     0
 TstMul:  Mul=     2
 Symbolic Z-matrix:
 Charge =  0 Multiplicity = 2

 SCF Done:  E(UTPSSh) =  -461.272022855     A.U. after   11 cycles
 SCF Done:  E(UTPSSh) =  -461.272235210     A.U. after    9 cycles
 SCF Done:  E(UTPSSh) =  -461.272255214     A.U. after    7 cycles
 Optimization completed.
    -- Stationary point found.

 1\1\GINC-NODE17\FTS\UTPSSh\6-31G(d)\Cl1H2(2)\RPEVERATI\07-Oct-2020\0\\
 #P Opt(TS,MaxCyc=50,NoEigenTest,MaxStep=10,AddRedundant) TPSSh/6-31G*
 5D 7F Integral=UltraFineGrid SCF=(NoSymm,XQC,MaxCyc=120) IOp(1/33=1,3/
 174=1000000,3/175=2238200,3/177=0452900,3/178=4655000) EmpiricalDisper
 sion=GD3BJ\\TS search on BH76.\\0,2\H,0.,0.,1.5083177334\Cl,0.,0.,0.\H
 ,0.,0.,-1.5083177334\\Version=ES64L-G16RevA.03\State=2-SGG\HF=-461.272
 2552\S2=0.771018\S2-1=0.\S2A=0.750018\RMSD=3.282e-09\RMSF=4.828e-05\Di
 pole=0.,0.,0.\Quadrupole=-0.8409571,-0.8409571,1.6819143,0.,0.,0.\PG=D

 Normal termination of Gaussian 16 at Wed Oct  7 14:42:15 2020.
 Gaussian 16:  ES64L-G16RevA.03 25-Dec-2016

 ----------------------------------------------------------------------
 #P Freq TPSSh/6-31G* 5D 7F Integral=UltraFineGrid SCF=(NoSymm,XQC,MaxC
 yc=120) IOp(1/33=1,3/174=1000000,3/175=2238200,3/177=0452900,3/178=465
 5000) EmpiricalDispersion=GD3BJ Geom=Check Guess=Read
 ----------------------------------------------------------------------

 TstMul:  Mul=     2
 TstMul:  ICh=     0
 TstMul:  Mul=     2
 Structure from the checkpoint file:  "MN_45_hclhts_BH76_TPSShDBJ_631Gs.chk"
 Charge =  0 Multiplicity = 2

                         Standard orientation:
 ---------------------------------------------------------------------
 Center     Atomic      Atomic             Coordinates (Angstroms)
 Number     Number       Type             X           Y           Z
 ---------------------------------------------------------------------
      1          1           0        0.000000    0.000000    1.508318
      2         17           0        0.000000    0.000000    0.000000
      3          1           0        0.000000    0.000000   -1.508318
 ---------------------------------------------------------------------

 SCF Done:  E(UTPSSh) =  -461.272255214     A.U. after    1 cycles

 The electronic state is 2-SGG.
 Alpha  occ. eigenvalues -- -101.39459  -9.39907  -7.14938  -7.13720  -7.13720
 Alpha  occ. eigenvalues --   -0.82509  -0.52106  -0.32631  -0.32631  -0.25355
 Alpha virt. eigenvalues --    0.00359   0.39351   0.42999   0.42999   0.61891
 Alpha virt. eigenvalues --    0.63642   0.71285   0.80923   0.80923   0.83675
 Alpha virt. eigenvalues --    0.83676   1.06822
  Beta  occ. eigenvalues -- -101.39447  -9.39836  -7.15155  -7.13626  -7.13626
  Beta  occ. eigenvalues --   -0.81888  -0.47782  -0.31996  -0.31996
  Beta virt. eigenvalues --   -0.11430   0.07058   0.39390   0.43528   0.43528
  Beta virt. eigenvalues --    0.62394   0.68934   0.80403   0.80403   0.82746
  Beta virt. eigenvalues --    0.84713   0.84714   1.13192

 Mulliken charges and spin densities:
               1          2
     1  H    0.125965   0.570157
     2  Cl  -0.251930  -0.140313
     3  H    0.125965   0.570157
 Sum of Mulliken charges =  -0.00000   1.00000

 Dipole moment (field-independent basis, Debye):
    X=              0.0000    Y=             -0.0000    Z=             -0.0000  Tot=              0.0000
 Quadrupole moment (field-independent basis, Debye-Ang):
   XX=            -15.1747   YY=            -15.1747   ZZ=            -11.7814
   XY=             -0.0000   XZ=             -0.0000   YZ=              0.0000

  Exact polarizability:   6.241  -0.000   6.241   0.000  -0.000  38.091
 Approx polarizability:   7.950   0.000   7.950   0.000  -0.000  61.293

 ******    1 imaginary frequencies (negative Signs) ******

                      1                      2                      3
                     SGU                    PIU                    PIU
 Frequencies --  -1351.3474               314.1848               314.1848
 Red. masses --      1.0641                 1.0641                 1.0641
 Frc consts  --      1.1450                 0.0619                 0.0619
 IR Inten    --   1084.2902                41.3473                41.3473

                      4
                     SGG
 Frequencies --   1764.5306
 Red. masses --      1.0078
 Frc consts  --      1.8488
 IR Inten    --      0.0000

 - Thermochemistry -
 -------------------
 Temperature   298.150 Kelvin.  Pressure   1.00000 Atm.
 Atom     1 has atomic number  1 and mass   1.00783

 Molecular mass:    36.98450 amu.
 Principal axes and moments of inertia in atomic units:
                           1         2         3
     Eigenvalues --     0.00000  16.37565  16.37565
           X           -0.00000   0.70711   0.70711
           Y           -0.00000   0.70711  -0.70711
           Z            1.00000   0.00000   0.00000
 This molecule is a prolate symmetric top.
 Rotational symmetry number  2.
 Rotational temperature (Kelvin)      5.28919
 Rotational constant (GHZ):         110.208829
    1 imaginary frequencies ignored.
 Zero-point vibrational energy      14312.7 (Joules/Mol)
                                    3.42082 (Kcal/Mol)
 Warning -- explicit consideration of   2 degrees of freedom as
           vibrations may cause significant error
 Vibrational temperatures:    452.04   452.04  2538.77
          (Kelvin)

 Zero-point correction=                           0.005451 (Hartree/Particle)
 Thermal correction to Energy=                    0.008619
 Thermal correction to Enthalpy=                  0.009563
 Thermal correction to Gibbs Free Energy=        -0.013926
 Sum of electronic and zero-point Energies=           -461.266804
 Sum of electronic and thermal Energies=              -461.263636
 Sum of electronic and thermal Enthalpies=            -461.262692
 Sum of electronic and thermal Free Energies=         -461.286181

                     E (Thermal)             CV                S
                      KCal/Mol        Cal/Mol-Kelvin    Cal/Mol-Kelvin
 Total                    5.408              8.290             49.437
 Electronic               0.000              0.000              1.377
 Translational            0.889              2.981             36.753
 Rotational               0.592              1.987              8.622
 Vibrational              3.927              3.322              2.684
 Vibration     1          0.702              1.647              1.340
 Vibration     2          0.702              1.647              1.340

 Optimization completed.
    -- Stationary point found.
 Normal termination of Gaussian 16 at Wed Oct  7 14:42:34 2020.
