 Gaussian 16, Revision A.03,
 Gaussian 16:  ES64L-G16RevA.03 25-Dec-2016

 ----------------------------------------------------------------------
 #P TPSSh/6-31G* 5D 7F Integral=UltraFineGrid SCF=(NoSymm,XQC,MaxCyc=12
 0) IOp(1/33=1,3/174=1000000,3/175=2238200,3/177=0452900,3/178=4655000)
  EmpiricalDispersion=GD3BJ Stable=Opt
 ----------------------------------------------------------------------

 TstMul:  Mul=     2
 TstMul:  ICh=     0
 TstMul:  Mul=     2
 Symbolic Z-matrix:
 Charge =  0 Multiplicity = 2

                         Standard orientation:
 ---------------------------------------------------------------------
 Center     Atomic      Atomic             Coordinates (Angstroms)
 Number     Number       Type             X           Y           Z
 ---------------------------------------------------------------------
      1          9           0        0.000000    0.000000    0.000000
 ---------------------------------------------------------------------

 SCF Done:  E(UTPSSh) =  -99.7121923211     A.U. after    8 cycles

 Unable to determine electronic state:  an orbital has unidentified symmetry.
 Alpha  occ. eigenvalues --  -24.69068  -1.17732  -0.50782  -0.41296  -0.41296
 Alpha virt. eigenvalues --    1.07362   1.13181   1.13181   1.27173   1.75081
 Alpha virt. eigenvalues --    1.76527   1.76527   1.81378   1.81378
  Beta  occ. eigenvalues --  -24.65833  -1.08799  -0.38394  -0.38394
  Beta virt. eigenvalues --   -0.25556   1.15392   1.15392   1.19674   1.32467
  Beta virt. eigenvalues --    1.82152   1.82152   1.82747   1.82747   1.84417

 Mulliken charges and spin densities:
               1          2
     1  F    0.000000   1.000000
 Sum of Mulliken charges =   0.00000   1.00000

 Dipole moment (field-independent basis, Debye):
    X=             -0.0000    Y=             -0.0000    Z=              0.0000  Tot=              0.0000
 Quadrupole moment (field-independent basis, Debye-Ang):
   XX=             -4.7105   YY=             -4.7105   ZZ=             -3.8866
   XY=             -0.0000   XZ=             -0.0000   YZ=              0.0059

 Normal termination of Gaussian 16 at Wed Oct  7 14:41:38 2020.
