 Gaussian 16, Revision A.03,

 ----------------------------------------------------------------------
 #P Opt(TS,MaxCyc=150,NoEigenTest,MaxStep=10,AddRedundant) TPSSh/6-31G*
  5D 7F Integral=UltraFineGrid SCF=(NoSymm,XQC,MaxCyc=120) IOp(1/33=1,3
 /174=1000000,3/175=2238200,3/177=0452900,3/178=4655000) EmpiricalDispe
 rsion=GD3BJ
 ----------------------------------------------------------------------

 TstMul:  Mul=     2
 TstMul:  ICh=     0
 TstMul:  Mul=     2
 Symbolic Z-matrix:
 Charge =  0 Multiplicity = 2

 SCF Done:  E(UTPSSh) =  -113.812995996     A.U. after   15 cycles
 SCF Done:  E(UTPSSh) =  -113.813200768     A.U. after   11 cycles
 SCF Done:  E(UTPSSh) =  -113.813041867     A.U. after   11 cycles
 SCF Done:  E(UTPSSh) =  -113.812350911     A.U. after   13 cycles
 SCF Done:  E(UTPSSh) =  -113.811752267     A.U. after   13 cycles
 SCF Done:  E(UTPSSh) =  -113.811202135     A.U. after   13 cycles
 SCF Done:  E(UTPSSh) =  -113.810702604     A.U. after   13 cycles
 SCF Done:  E(UTPSSh) =  -113.810250691     A.U. after   13 cycles
 SCF Done:  E(UTPSSh) =  -113.809841348     A.U. after   13 cycles
 SCF Done:  E(UTPSSh) =  -113.809469154     A.U. after   13 cycles
 SCF Done:  E(UTPSSh) =  -113.806763278     a.u. after    5 cycles
 SCF Done:  E(UTPSSh) =  -113.806763461     A.U. after    9 cycles
 SCF Done:  E(UTPSSh) =  -113.806763699     A.U. after    7 cycles
 SCF Done:  E(UTPSSh) =  -113.806763819     A.U. after    8 cycles
 SCF Done:  E(UTPSSh) =  -113.806765910     A.U. after    9 cycles
 SCF Done:  E(UTPSSh) =  -113.806770161     A.U. after   10 cycles
 SCF Done:  E(UTPSSh) =  -113.806772283     A.U. after   12 cycles
 SCF Done:  E(UTPSSh) =  -113.806771673     A.U. after    9 cycles
 SCF Done:  E(UTPSSh) =  -113.806771400     A.U. after    9 cycles
 Optimization completed.
    -- Stationary point found.
 Normal termination of Gaussian 16 at Wed Oct  7 14:48:40 2020.
 Gaussian 16:  ES64L-G16RevA.03 25-Dec-2016

 ----------------------------------------------------------------------
 #P Freq TPSSh/6-31G* 5D 7F Integral=UltraFineGrid SCF=(NoSymm,XQC,MaxC
 yc=120) IOp(1/33=1,3/174=1000000,3/175=2238200,3/177=0452900,3/178=465
 5000) EmpiricalDispersion=GD3BJ Geom=Check Guess=Read
 ----------------------------------------------------------------------

 TstMul:  Mul=     2
 TstMul:  ICh=     0
 TstMul:  Mul=     2
 Structure from the checkpoint file:  "MN_51_hcots_BH76_TPSShDBJ_631Gs.chk"
 Charge =  0 Multiplicity = 2

                         Standard orientation:
 ---------------------------------------------------------------------
 Center     Atomic      Atomic             Coordinates (Angstroms)
 Number     Number       Type             X           Y           Z
 ---------------------------------------------------------------------
      1          6           0        0.181605    0.536364    0.000000
      2          8           0        0.181605   -0.605370   -0.000000
      3          1           0       -2.542470    1.624774    0.000000
 ---------------------------------------------------------------------

 SCF Done:  E(UTPSSh) =  -113.806771400     A.U. after    1 cycles

 The electronic state is 2-A'.
 Alpha  occ. eigenvalues --  -19.17426 -10.23492  -1.12673  -0.54551  -0.44409
 Alpha  occ. eigenvalues --   -0.44359  -0.35445  -0.30004
 Alpha virt. eigenvalues --   -0.03503  -0.03303   0.26361   0.51688   0.52081
 Alpha virt. eigenvalues --    0.57883   0.73855   0.77316   0.83398   0.91719
 Alpha virt. eigenvalues --    0.92649   1.46874   1.46982   1.50563   1.52743

  Beta  occ. eigenvalues --  -19.17412 -10.23476  -1.12650  -0.54526  -0.44348
  Beta  occ. eigenvalues --   -0.44334  -0.35135
  Beta virt. eigenvalues --   -0.04638  -0.03485   0.01759   0.26312   0.52051
  Beta virt. eigenvalues --    0.53174   0.59776   0.74022   0.83256   0.91519
  Beta virt. eigenvalues --    0.91720   1.02716   1.46895   1.47043   1.50593

 Mulliken charges and spin densities:
               1          2
     1  C    0.168356   0.003279
     2  O   -0.170569   0.004996
     3  H    0.002212   0.991725
 Sum of Mulliken charges =  -0.00000   1.00000

 Dipole moment (field-independent basis, Debye):
    X=             -0.0306    Y=             -0.0810    Z=              0.0000  Tot=              0.0866
 Quadrupole moment (field-independent basis, Debye-Ang):
   XX=            -11.0392   YY=            -13.1428   ZZ=            -11.1332
   XY=             -0.0816   XZ=             -0.0000   YZ=             -0.0000

  Exact polarizability:   9.928  -0.879  13.195   0.000  -0.000   7.994
 Approx polarizability:  13.509  -0.844  25.591  -0.000   0.000  11.571

                      1                      2                      3
                     A'                     A'                     A'
 Frequencies --     60.2461               107.1081              2180.1277
 Red. masses --      1.9856                 1.0566                13.4388
 Frc consts  --      0.0042                 0.0071                37.6335
 IR Inten    --      0.0498                 0.0390                70.4667

 - Thermochemistry -
 -------------------
 Temperature   298.150 Kelvin.  Pressure   1.00000 Atm.
 Atom     1 has atomic number  6 and mass  12.00000

 Molecular mass:    29.00274 amu.
 Principal axes and moments of inertia in atomic units:
                           1         2         3
     Eigenvalues --    15.65035  52.57121  68.22157
           X           -0.52376   0.85187   0.00000
           Y            0.85187   0.52376   0.00000
           Z           -0.00000   0.00000   1.00000
 This molecule is an asymmetric top.
 Rotational symmetry number  1.
 Rotational temperatures (Kelvin)      5.53431     1.64755     1.26960
 Rotational constants (GHZ):         115.31631    34.32946    26.45412
 Zero-point vibrational energy      14041.1 (Joules/Mol)
                                    3.35589 (Kcal/Mol)
 Warning -- explicit consideration of   2 degrees of freedom as
           vibrations may cause significant error
 Vibrational temperatures:     86.68   154.10  3136.72
          (Kelvin)

 Zero-point correction=                           0.005348 (Hartree/Particle)
 Thermal correction to Energy=                    0.009715
 Thermal correction to Enthalpy=                  0.010660
 Thermal correction to Gibbs Free Energy=        -0.019675
 Sum of electronic and zero-point Energies=           -113.801423
 Sum of electronic and thermal Energies=              -113.797056
 Sum of electronic and thermal Enthalpies=            -113.796112
 Sum of electronic and thermal Free Energies=         -113.826446

                     E (Thermal)             CV                S
                      KCal/Mol        Cal/Mol-Kelvin    Cal/Mol-Kelvin
 Total                    6.097              9.884             63.845
 Electronic               0.000              0.000              1.377
 Translational            0.889              2.981             36.028
 Rotational               0.889              2.981             18.668
 Vibrational              4.319              3.923              7.770
 Vibration     1          0.597              1.973              4.449
 Vibration     2          0.606              1.944              3.321

                           ! Non-Optimized Parameters !
 Normal termination of Gaussian 16 at Wed Oct  7 14:49:08 2020.
