 Gaussian 16, Revision A.03,

 ----------------------------------------------------------------------
 #P Opt(TS,MaxCyc=50,NoEigenTest,MaxStep=10,AddRedundant) TPSSh/6-31G*
 5D 7F Integral=UltraFineGrid SCF=(NoSymm,XQC,MaxCyc=120) IOp(1/33=1,3/
 174=1000000,3/175=2238200,3/177=0452900,3/178=4655000) EmpiricalDisper
 sion=GD3BJ
 ----------------------------------------------------------------------

 TstMul:  Mul=     2
 TstMul:  ICh=     0
 TstMul:  Mul=     2
 Symbolic Z-matrix:
 Charge =  0 Multiplicity = 2

 SCF Done:  E(UTPSSh) =  -140.192004400     A.U. after   14 cycles
 SCF Done:  E(UTPSSh) =  -140.192624476     A.U. after   13 cycles
 SCF Done:  E(UTPSSh) =  -140.192853341     A.U. after   13 cycles
 SCF Done:  E(UTPSSh) =  -140.192607380     A.U. after   14 cycles
 SCF Done:  E(UTPSSh) =  -140.192641586     A.U. after   13 cycles
 SCF Done:  E(UTPSSh) =  -140.192645949     A.U. after    9 cycles
 SCF Done:  E(UTPSSh) =  -140.192646385     A.U. after    9 cycles
 Optimization completed.
    -- Stationary point found.
 Normal termination of Gaussian 16 at Wed Oct  7 14:44:36 2020.
 Gaussian 16:  ES64L-G16RevA.03 25-Dec-2016

 ----------------------------------------------------------------------
 #P Freq TPSSh/6-31G* 5D 7F Integral=UltraFineGrid SCF=(NoSymm,XQC,MaxC
 yc=120) IOp(1/33=1,3/174=1000000,3/175=2238200,3/177=0452900,3/178=465
 5000) EmpiricalDispersion=GD3BJ Geom=Check Guess=Read
 ----------------------------------------------------------------------

 TstMul:  Mul=     2
 TstMul:  ICh=     0
 TstMul:  Mul=     2
 Structure from the checkpoint file:  "MN_53_hfch3ts_BH76_TPSShDBJ_631Gs.chk"
 Charge =  0 Multiplicity = 2

                         Standard orientation:
 ---------------------------------------------------------------------
 Center     Atomic      Atomic             Coordinates (Angstroms)
 Number     Number       Type             X           Y           Z
 ---------------------------------------------------------------------
      1          1           0        0.000109    2.046688    0.000000
      2          9           0       -0.000011    0.781382    0.000000
      3          6           0       -0.000011   -0.929261    0.000000
      4          1           0        1.058132   -1.167677    0.000000
      5          1           0       -0.529040   -1.167943    0.916343
      6          1           0       -0.529040   -1.167943   -0.916343
 ---------------------------------------------------------------------

 SCF Done:  E(UTPSSh) =  -140.192646385     A.U. after    1 cycles

 The electronic state is 2-A'.
 Alpha  occ. eigenvalues --  -24.58118 -10.16450  -1.09524  -0.68732  -0.46651
 Alpha  occ. eigenvalues --   -0.42421  -0.42421  -0.32539  -0.32539  -0.17002
 Alpha virt. eigenvalues --    0.00801   0.11111   0.16641   0.16641   0.49480
 Alpha virt. eigenvalues --    0.55059   0.55059   0.69475   0.83672   0.88712
 Alpha virt. eigenvalues --    0.88714   1.01199   1.20849   1.20851   1.53482

  Beta  occ. eigenvalues --  -24.58129 -10.15460  -1.09500  -0.66690  -0.44711
  Beta  occ. eigenvalues --   -0.41867  -0.41866  -0.32301  -0.32301
  Beta virt. eigenvalues --   -0.04903   0.06576   0.12084   0.17483   0.17483
  Beta virt. eigenvalues --    0.53715   0.55668   0.55668   0.78923   0.86127
  Beta virt. eigenvalues --    0.90976   0.90977   1.03464   1.21487   1.21490

 Mulliken charges and spin densities:
               1          2
     1  H    0.109758   0.640828
     2  F   -0.340068  -0.127685
     3  C   -0.325132   0.559660
     4  H    0.185153  -0.024269
     5  H    0.185145  -0.024267
     6  H    0.185145  -0.024267
 Sum of Mulliken charges =  -0.00000   1.00000

 Dipole moment (field-independent basis, Debye):
    X=              0.0001    Y=             -1.3883    Z=             -0.0000  Tot=              1.3883
 Quadrupole moment (field-independent basis, Debye-Ang):
   XX=            -12.7475   YY=            -11.8467   ZZ=            -12.7476
   XY=              0.0003   XZ=              0.0000   YZ=              0.0000

  Exact polarizability:  12.986   0.003  52.035  -0.000  -0.000  12.986
 Approx polarizability:  15.845   0.005  80.732  -0.000   0.000  15.845

 ******    1 imaginary frequencies (negative Signs) ******

                      1                      2                      3
                     A'                     A'                     A"
 Frequencies --  -1445.8038               285.1458               285.1597
 Red. masses --      1.8526                 1.1513                 1.1513
 Frc consts  --      2.2817                 0.0552                 0.0552
 IR Inten    --   2112.6856                 9.5225                 9.5257

                      4                      5                      6
                     A"                     A'                     A'
 Frequencies --    788.1653               788.2252               939.8864
 Red. masses --      1.1322                 1.1322                 1.5901
 Frc consts  --      0.4144                 0.4145                 0.8276
 IR Inten    --      0.4225                 0.4194               234.7848

                      7                      8                      9
                     A'                     A'                     A"
 Frequencies --   1182.7575              1490.4375              1490.5021
 Red. masses --      1.2682                 1.0880                 1.0880
 Frc consts  --      1.0453                 1.4239                 1.4241
 IR Inten    --     57.9892                 2.0865                 2.0850

                     10                     11                     12
                     A'                     A"                     A'
 Frequencies --   3131.4131              3279.9195              3280.0008
 Red. masses --      1.0160                 1.1153                 1.1153
 Frc consts  --      5.8700                 7.0694                 7.0697
 IR Inten    --      2.1324                14.4318                14.4296

 - Thermochemistry -
 -------------------
 Temperature   298.150 Kelvin.  Pressure   1.00000 Atm.
 Atom     1 has atomic number  1 and mass   1.00783

 Molecular mass:    35.02970 amu.
 Principal axes and moments of inertia in atomic units:
                           1         2         3
     Eigenvalues --    12.08827 113.76843 113.76858
           X            0.00001   1.00000   0.00000
           Y            1.00000  -0.00001   0.00000
           Z           -0.00000   0.00000   1.00000
 This molecule is an asymmetric top.
 Rotational symmetry number  1.
 Rotational temperatures (Kelvin)      7.16512     0.76132     0.76132
 Rotational constants (GHZ):         149.29689    15.86329    15.86327
    1 imaginary frequencies ignored.
 Zero-point vibrational energy     101333.3 (Joules/Mol)
                                   24.21925 (Kcal/Mol)
 Warning -- explicit consideration of   2 degrees of freedom as
           vibrations may cause significant error
 Vibrational temperatures:    410.26   410.28  1133.99  1134.08  1352.29
          (Kelvin)           1701.72  2144.41  2144.50  4505.41  4719.07
                             4719.19

 Zero-point correction=                           0.038596 (Hartree/Particle)
 Thermal correction to Energy=                    0.042545
 Thermal correction to Enthalpy=                  0.043489
 Thermal correction to Gibbs Free Energy=         0.014372
 Sum of electronic and zero-point Energies=           -140.154051
 Sum of electronic and thermal Energies=              -140.150102
 Sum of electronic and thermal Enthalpies=            -140.149157
 Sum of electronic and thermal Free Energies=         -140.178275

                     E (Thermal)             CV                S
                      KCal/Mol        Cal/Mol-Kelvin    Cal/Mol-Kelvin
 Total                   26.697             11.524             61.283
 Electronic               0.000              0.000              1.377
 Translational            0.889              2.981             36.591
 Rotational               0.889              2.981             19.687
 Vibrational             24.920              5.563              3.627
 Vibration     1          0.683              1.701              1.503
 Vibration     2          0.683              1.701              1.503

 Optimization completed.
    -- Stationary point found.
 Normal termination of Gaussian 16 at Wed Oct  7 14:45:13 2020.
