 Gaussian 16, Revision A.03,
 Gaussian 16:  ES64L-G16RevA.03 25-Dec-2016

 ----------------------------------------------------------------------
 #P Opt(MaxCyc=100) TPSSh/6-31G* 5D 7F Integral=UltraFineGrid SCF=(NoSy
 mm,XQC,MaxCyc=120) IOp(1/33=1,3/174=1000000,3/175=2238200,3/177=045290
 0,3/178=4655000) EmpiricalDispersion=GD3BJ
 ----------------------------------------------------------------------

 TstMul:  Mul=     2
 TstMul:  ICh=     0
 TstMul:  Mul=     2
 Symbolic Z-matrix:
 Charge =  0 Multiplicity = 2

 SCF Done:  E(UTPSSh) =  -113.851202764     A.U. after   14 cycles
 SCF Done:  E(UTPSSh) =  -113.851489729     A.U. after   11 cycles
 SCF Done:  E(UTPSSh) =  -113.851494013     A.U. after   10 cycles
 Optimization completed.
    -- Stationary point found.

                         Standard orientation:
 ---------------------------------------------------------------------
 Center     Atomic      Atomic             Coordinates (Angstroms)
 Number     Number       Type             X           Y           Z
 ---------------------------------------------------------------------
      1          1           0       -0.876794    1.215579    0.000000
      2          6           0        0.062628    0.591166    0.000000
      3          8           0        0.062628   -0.595322    0.000000
 ---------------------------------------------------------------------

 The electronic state is 2-A'.
 Alpha  occ. eigenvalues --  -19.13518 -10.22370  -1.07571  -0.59787  -0.47131
 Alpha  occ. eigenvalues --   -0.40972  -0.40736  -0.20082
 Alpha virt. eigenvalues --   -0.05765   0.12385   0.23453   0.51280   0.52205
 Alpha virt. eigenvalues --    0.64797   0.69423   0.81021   0.87193   0.93669
 Alpha virt. eigenvalues --    0.97655   1.48078   1.49683   1.49752   1.50582

  Beta  occ. eigenvalues --  -19.12657 -10.21353  -1.06139  -0.57128  -0.44942
  Beta  occ. eigenvalues --   -0.39993  -0.35826
  Beta virt. eigenvalues --   -0.07984  -0.03688   0.14929   0.24874   0.52717
  Beta virt. eigenvalues --    0.57289   0.66973   0.71847   0.84316   0.90020
  Beta virt. eigenvalues --    0.94103   1.00494   1.50015   1.51802   1.52415

 Mulliken charges and spin densities:
               1          2
     1  H    0.160566   0.177382
     2  C    0.087645   0.578687
     3  O   -0.248211   0.243931
 Sum of Mulliken charges =  -0.00000   1.00000

 Dipole moment (field-independent basis, Debye):
    X=             -0.8937    Y=              1.2656    Z=              0.0000  Tot=              1.5493
 Quadrupole moment (field-independent basis, Debye-Ang):
   XX=            -11.0943   YY=            -11.2861   ZZ=            -10.6083
   XY=             -0.9669   XZ=              0.0000   YZ=              0.0000

 Normal termination of Gaussian 16 at Wed Oct  7 14:42:28 2020.
