 Gaussian 16, Revision A.03,

 ----------------------------------------------------------------------
 #P Opt(TS,MaxCyc=50,NoEigenTest,MaxStep=10,AddRedundant) TPSSh/6-31G*
 5D 7F Integral=UltraFineGrid SCF=(NoSymm,XQC,MaxCyc=120) IOp(1/33=1,3/
 174=1000000,3/175=2238200,3/177=0452900,3/178=4655000) EmpiricalDisper
 sion=GD3BJ
 ----------------------------------------------------------------------

 TstMul:  Mul=     2
 TstMul:  ICh=     0
 TstMul:  Mul=     2
 Symbolic Z-matrix:
 Charge =  0 Multiplicity = 2

 SCF Done:  E(UTPSSh) =  -110.015887480     A.U. after   16 cycles
 SCF Done:  E(UTPSSh) =  -110.016031122     A.U. after   12 cycles
 SCF Done:  E(UTPSSh) =  -110.015908333     A.U. after   13 cycles
 SCF Done:  E(UTPSSh) =  -110.015798021     A.U. after   14 cycles
 SCF Done:  E(UTPSSh) =  -110.015778791     A.U. after   14 cycles
 SCF Done:  E(UTPSSh) =  -110.015778384     A.U. after   11 cycles
 Optimization completed.
    -- Stationary point found.
 Normal termination of Gaussian 16 at Sun Oct 11 11:53:58 2020.
 Gaussian 16:  ES64L-G16RevA.03 25-Dec-2016

 ----------------------------------------------------------------------
 #P Freq TPSSh/6-31G* 5D 7F Integral=UltraFineGrid SCF=(NoSymm,XQC,MaxC
 yc=120) IOp(1/33=1,3/174=1000000,3/175=2238200,3/177=0452900,3/178=465
 5000) EmpiricalDispersion=GD3BJ Geom=Check Guess=Read
 ----------------------------------------------------------------------

 TstMul:  Mul=     2
 TstMul:  ICh=     0
 TstMul:  Mul=     2
 Structure from the checkpoint file:  "MN_59_hn2ts_BH76_TPSShDBJ_631Gs.chk"
 Charge =  0 Multiplicity = 2

                         Standard orientation:
 ---------------------------------------------------------------------
 Center     Atomic      Atomic             Coordinates (Angstroms)
 Number     Number       Type             X           Y           Z
 ---------------------------------------------------------------------
      1          7           0        0.088556   -0.649765    0.000000
      2          7           0        0.088556    0.478658    0.000000
      3          1           0       -1.239786    1.197747    0.000000
 ---------------------------------------------------------------------

 SCF Done:  E(UTPSSh) =  -110.015778384     A.U. after    1 cycles

 The electronic state is 2-A'.
 Alpha  occ. eigenvalues --  -14.37733 -14.36308  -1.08302  -0.57521  -0.46949
 Alpha  occ. eigenvalues --   -0.43716  -0.41525  -0.23612
 Alpha virt. eigenvalues --   -0.05240  -0.01899   0.39739   0.58894   0.61089
 Alpha virt. eigenvalues --    0.62065   0.64780   0.74560   0.76611   0.78566
 Alpha virt. eigenvalues --    0.92962   1.28625   1.43819   1.45974   1.50965

  Beta  occ. eigenvalues --  -14.37685 -14.35507  -1.07631  -0.55303  -0.44172
  Beta  occ. eigenvalues --   -0.43264  -0.39892
  Beta virt. eigenvalues --   -0.10475  -0.04530   0.02314   0.40466   0.59964
  Beta virt. eigenvalues --    0.61383   0.64693   0.70453   0.75124   0.77519
  Beta virt. eigenvalues --    0.82350   0.96767   1.29859   1.44809   1.47369

 Mulliken charges and spin densities:
               1          2
     1  N    0.005708   0.330523
     2  N   -0.075936  -0.049746
     3  H    0.070228   0.719223
 Sum of Mulliken charges =  -0.00000   1.00000

 Dipole moment (field-independent basis, Debye):
    X=             -0.2785    Y=              0.2743    Z=              0.0000  Tot=              0.3909
 Quadrupole moment (field-independent basis, Debye-Ang):
   XX=            -11.4348   YY=            -12.6973   ZZ=            -11.2408
   XY=             -0.1606   XZ=              0.0000   YZ=              0.0000

  Exact polarizability:  15.495  -7.254  19.961   0.000   0.000   6.075
 Approx polarizability:  21.791 -11.353  41.018  -0.000   0.000   8.742

 ******    1 imaginary frequencies (negative Signs) ******

                      1                      2                      3
                     A'                     A'                     A'
 Frequencies --  -1018.4960               693.0663              2200.3270
 Red. masses --      1.0979                 1.3599                 9.5593
 Frc consts  --      0.6710                 0.3849                27.2678
 IR Inten    --    337.2442                 3.1883                68.8959

 - Thermochemistry -
 -------------------
 Temperature   298.150 Kelvin.  Pressure   1.00000 Atm.
 Atom     1 has atomic number  7 and mass  14.00307

 Molecular mass:    29.01397 amu.
 Principal axes and moments of inertia in atomic units:
                           1         2         3
     Eigenvalues --     5.05101  38.63724  43.68825
           X           -0.17922   0.98381   0.00000
           Y            0.98381   0.17922   0.00000
           Z            0.00000   0.00000   1.00000
 This molecule is an asymmetric top.
 Rotational symmetry number  1.
 Rotational temperatures (Kelvin)     17.14784     2.24172     1.98255
 Rotational constants (GHZ):         357.30308    46.70989    41.30953
    1 imaginary frequencies ignored.
 Zero-point vibrational energy      17306.3 (Joules/Mol)
                                    4.13631 (Kcal/Mol)
 Vibrational temperatures:    997.17  3165.78
          (Kelvin)

 Zero-point correction=                           0.006592 (Hartree/Particle)
 Thermal correction to Energy=                    0.009540
 Thermal correction to Enthalpy=                  0.010484
 Thermal correction to Gibbs Free Energy=        -0.015419
 Sum of electronic and zero-point Energies=           -110.009187
 Sum of electronic and thermal Energies=              -110.006238
 Sum of electronic and thermal Enthalpies=            -110.005294
 Sum of electronic and thermal Free Energies=         -110.031197

                     E (Thermal)             CV                S
                      KCal/Mol        Cal/Mol-Kelvin    Cal/Mol-Kelvin
 Total                    5.986              6.810             54.518
 Electronic               0.000              0.000              1.377
 Translational            0.889              2.981             36.030
 Rotational               0.889              2.981             16.796
 Vibrational              4.209              0.848              0.315

 Optimization completed.
    -- Stationary point found.

 1\1\GINC-NODE06\Freq\UTPSSh\6-31G(d)\H1N2(2)\RPEVERATI\11-Oct-2020\0\\
 #P Freq TPSSh/6-31G* 5D 7F Integral=UltraFineGrid SCF=(NoSymm,XQC,MaxC
 yc=120) IOp(1/33=1,3/174=1000000,3/175=2238200,3/177=0452900,3/178=465
 5000) EmpiricalDispersion=GD3BJ Geom=Check Guess=Read\\TS search on BH
 76.\\0,2\N,0.1053330016,-0.665504848,0.\N,0.1044164812,0.4629182537,0.
 \H,-1.2245092273,1.1809273049,0.\\Version=ES64L-G16RevA.03\State=2-A'\
 HF=-110.0157784\S2=0.763287\S2-1=0.\S2A=0.75002\RMSD=4.517e-10\RMSF=2.
 350e-05\ZeroPoint=0.0065916\Thermal=0.0095399\Dipole=-0.109645,0.10782

 Normal termination of Gaussian 16 at Sun Oct 11 11:54:06 2020.
