 Gaussian 16, Revision A.03,

 ----------------------------------------------------------------------
 #P Opt(TS,MaxCyc=50,NoEigenTest,MaxStep=10,AddRedundant) TPSSh/6-31G*
 5D 7F Integral=UltraFineGrid SCF=(NoSymm,XQC,MaxCyc=120) IOp(1/33=1,3/
 174=1000000,3/175=2238200,3/177=0452900,3/178=4655000) EmpiricalDisper
 sion=GD3BJ
 ----------------------------------------------------------------------

 TstMul:  Mul=     2
 TstMul:  ICh=     0
 TstMul:  Mul=     2
 Symbolic Z-matrix:
 Charge =  0 Multiplicity = 2

 SCF Done:  E(UTPSSh) =  -100.861503081     A.U. after   11 cycles
 SCF Done:  E(UTPSSh) =  -100.863190652     A.U. after    9 cycles
 SCF Done:  E(UTPSSh) =  -100.863938928     A.U. after    9 cycles
 SCF Done:  E(UTPSSh) =  -100.864002218     A.U. after    7 cycles
 SCF Done:  E(UTPSSh) =  -100.864002884     A.U. after    6 cycles
 Optimization completed.
    -- Stationary point found.
 Normal termination of Gaussian 16 at Wed Oct  7 14:42:35 2020.
 Gaussian 16:  ES64L-G16RevA.03 25-Dec-2016

 ----------------------------------------------------------------------
 #P Freq TPSSh/6-31G* 5D 7F Integral=UltraFineGrid SCF=(NoSymm,XQC,MaxC
 yc=120) IOp(1/33=1,3/174=1000000,3/175=2238200,3/177=0452900,3/178=465
 5000) EmpiricalDispersion=GD3BJ Geom=Check Guess=Read
 ----------------------------------------------------------------------

 TstMul:  Mul=     2
 TstMul:  ICh=     0
 TstMul:  Mul=     2
 Structure from the checkpoint file:  "MN_54_hfhts_BH76_TPSShDBJ_631Gs.chk"
 Charge =  0 Multiplicity = 2

                         Standard orientation:
 ---------------------------------------------------------------------
 Center     Atomic      Atomic             Coordinates (Angstroms)
 Number     Number       Type             X           Y           Z
 ---------------------------------------------------------------------
      1          1           0        0.000000    0.000000    1.199003
      2          9           0        0.000000    0.000000    0.000000
      3          1           0        0.000000    0.000000   -1.199003
 ---------------------------------------------------------------------

 SCF Done:  E(UTPSSh) =  -100.864002884     A.U. after    1 cycles

 The electronic state is 2-SGG.
 Alpha  occ. eigenvalues --  -24.61849  -1.13836  -0.55497  -0.37333  -0.37333
 Alpha  occ. eigenvalues --   -0.19242
 Alpha virt. eigenvalues --   -0.00536   0.59668   0.73766   1.14610   1.14610
 Alpha virt. eigenvalues --    1.57816   1.65991   1.76882   1.76882   1.83782
 Alpha virt. eigenvalues --    1.83782   2.31331
  Beta  occ. eigenvalues --  -24.61790  -1.13599  -0.52756  -0.36928  -0.36928
  Beta virt. eigenvalues --   -0.05787   0.06082   0.68450   0.83610   1.14993
  Beta virt. eigenvalues --    1.14993   1.58162   1.68633   1.76584   1.76584
  Beta virt. eigenvalues --    1.83957   1.83957   2.34673

 Mulliken charges and spin densities:
               1          2
     1  H    0.188208   0.569264
     2  F   -0.376416  -0.138528
     3  H    0.188208   0.569264
 Sum of Mulliken charges =  -0.00000   1.00000

 Dipole moment (field-independent basis, Debye):
    X=              0.0000    Y=              0.0000    Z=              0.0000  Tot=              0.0000
 Quadrupole moment (field-independent basis, Debye-Ang):
   XX=             -6.9584   YY=             -6.9584   ZZ=             -4.6681
   XY=             -0.0000   XZ=             -0.0000   YZ=              0.0000

  Exact polarizability:   1.928  -0.000   1.928  -0.000  -0.000  36.235
 Approx polarizability:   2.262  -0.000   2.262  -0.000  -0.000  57.007

 ******    1 imaginary frequencies (negative Signs) ******

                      1                      2                      3
                     SGU                    PIU                    PIU
 Frequencies --  -2379.2710               324.9950               324.9950
 Red. masses --      1.1085                 1.1085                 1.1085
 Frc consts  --      3.6972                 0.0690                 0.0690
 IR Inten    --   4630.3004                45.1642                45.1642

                      4
                     SGG
 Frequencies --   2070.1239
 Red. masses --      1.0078
 Frc consts  --      2.5446
 IR Inten    --      0.0000

 - Thermochemistry -
 -------------------
 Temperature   298.150 Kelvin.  Pressure   1.00000 Atm.
 Atom     1 has atomic number  1 and mass   1.00783

 Molecular mass:    21.01405 amu.
 Principal axes and moments of inertia in atomic units:
                           1         2         3
     Eigenvalues --     0.00000  10.34792  10.34792
           X           -0.00000   1.00000   0.00000
           Y            0.00000   0.00000   1.00000
           Z            1.00000   0.00000   0.00000
 This molecule is a prolate symmetric top.
 Rotational symmetry number  2.
 Rotational temperature (Kelvin)      8.37018
 Rotational constant (GHZ):         174.406141
    1 imaginary frequencies ignored.
 Zero-point vibrational energy      16269.9 (Joules/Mol)
                                    3.88860 (Kcal/Mol)
 Warning -- explicit consideration of   2 degrees of freedom as
           vibrations may cause significant error
 Vibrational temperatures:    467.60   467.60  2978.45
          (Kelvin)

 Zero-point correction=                           0.006197 (Hartree/Particle)
 Thermal correction to Energy=                    0.009337
 Thermal correction to Enthalpy=                  0.010282
 Thermal correction to Gibbs Free Energy=        -0.011919
 Sum of electronic and zero-point Energies=           -100.857806
 Sum of electronic and thermal Energies=              -100.854665
 Sum of electronic and thermal Enthalpies=            -100.853721
 Sum of electronic and thermal Free Energies=         -100.875922

                     E (Thermal)             CV                S
                      KCal/Mol        Cal/Mol-Kelvin    Cal/Mol-Kelvin
 Total                    5.859              8.228             46.726
 Electronic               0.000              0.000              1.377
 Translational            0.889              2.981             35.068
 Rotational               0.592              1.987              7.710
 Vibrational              4.378              3.260              2.571
 Vibration     1          0.709              1.625              1.285
 Vibration     2          0.709              1.625              1.285

 Optimization completed.
    -- Stationary point found.

 1\1\GINC-NODE54\Freq\UTPSSh\6-31G(d)\F1H2(2)\RPEVERATI\07-Oct-2020\0\\
 #P Freq TPSSh/6-31G* 5D 7F Integral=UltraFineGrid SCF=(NoSymm,XQC,MaxC
 yc=120) IOp(1/33=1,3/174=1000000,3/175=2238200,3/177=0452900,3/178=465
 5000) EmpiricalDispersion=GD3BJ Geom=Check Guess=Read\\TS search on BH
 76.\\0,2\H,0.,0.,1.1990026515\F,0.,0.,0.\H,0.,0.,-1.1990026515\\Versio
 n=ES64L-G16RevA.03\State=2-SGG\HF=-100.8640029\S2=0.765936\S2-1=0.\S2A
 =0.750003\RMSD=9.412e-10\RMSF=4.548e-06\ZeroPoint=0.0061969\Thermal=0.
 0093374\Dipole=0.,0.,0.\DipoleDeriv=0.145279,0.,0.,0.,0.145279,0.,0.,0

 Normal termination of Gaussian 16 at Wed Oct  7 14:42:55 2020.
