 Gaussian 16, Revision A.03,
 Gaussian 16:  ES64L-G16RevA.03 25-Dec-2016

 ----------------------------------------------------------------------
 #P Opt(MaxCyc=100) TPSSh/6-31G* 5D 7F Integral=UltraFineGrid SCF=(NoSy
 mm,XQC,MaxCyc=120) IOp(1/33=1,3/174=1000000,3/175=2238200,3/177=045290
 0,3/178=4655000) EmpiricalDispersion=GD3BJ
 ----------------------------------------------------------------------

 TstMul:  Mul=     1
 TstMul:  ICh=     0
 TstMul:  Mul=     1
 Symbolic Z-matrix:
 Charge =  0 Multiplicity = 1

 SCF Done:  E(RTPSSh) =  -100.411973982     A.U. after    9 cycles
 SCF Done:  E(RTPSSh) =  -100.412456169     A.U. after    7 cycles
 SCF Done:  E(RTPSSh) =  -100.412459714     A.U. after    6 cycles
 Optimization completed.
    -- Stationary point found.

                         Standard orientation:
 ---------------------------------------------------------------------
 Center     Atomic      Atomic             Coordinates (Angstroms)
 Number     Number       Type             X           Y           Z
 ---------------------------------------------------------------------
      1          9           0        0.000000    0.000000    0.093685
      2          1           0        0.000000    0.000000   -0.843165
 ---------------------------------------------------------------------

 The electronic state is 1-SG.
 Alpha  occ. eigenvalues --  -24.57249  -1.13763  -0.49114  -0.34400  -0.34400
 Alpha virt. eigenvalues --    0.06540   0.80380   1.17639   1.17639   1.25956
 Alpha virt. eigenvalues --    1.63811   1.79226   1.79226   1.85906   1.85906
 Alpha virt. eigenvalues --    2.61858

 Mulliken charges:
               1
     1  F   -0.486989
     2  H    0.486989
 Sum of Mulliken charges =  -0.00000

 Dipole moment (field-independent basis, Debye):
    X=              0.0000    Y=             -0.0000    Z=             -1.8581  Tot=              1.8581
 Quadrupole moment (field-independent basis, Debye-Ang):
   XX=             -5.4065   YY=             -5.4065   ZZ=             -3.3723
   XY=             -0.0000   XZ=              0.0000   YZ=             -0.0000

 Normal termination of Gaussian 16 at Wed Oct  7 14:42:40 2020.
