 Gaussian 16, Revision A.03,
 Gaussian 16:  ES64L-G16RevA.03 25-Dec-2016

 ----------------------------------------------------------------------
 #P Opt(MaxCyc=100) TPSSh/6-31G* 5D 7F Integral=UltraFineGrid SCF=(NoSy
 mm,XQC,MaxCyc=120) IOp(1/33=1,3/174=1000000,3/175=2238200,3/177=045290
 0,3/178=4655000) EmpiricalDispersion=GD3BJ
 ----------------------------------------------------------------------

 TstMul:  Mul=     2
 TstMul:  ICh=     0
 TstMul:  Mul=     2
 Symbolic Z-matrix:
 Charge =  0 Multiplicity = 2

 SCF Done:  E(UTPSSh) =  -110.030927405     A.U. after   17 cycles
 SCF Done:  E(UTPSSh) =  -110.031151383     A.U. after   14 cycles
 SCF Done:  E(UTPSSh) =  -110.031163829     A.U. after   11 cycles
 SCF Done:  E(UTPSSh) =  -110.031164237     A.U. after    8 cycles
 Optimization completed.
    -- Stationary point found.

                         Standard orientation:
 ---------------------------------------------------------------------
 Center     Atomic      Atomic             Coordinates (Angstroms)
 Number     Number       Type             X           Y           Z
 ---------------------------------------------------------------------
      1          7           0       -0.063306    0.663125    0.000000
      2          7           0       -0.063306   -0.520255    0.000000
      3          1           0        0.886281   -1.000088    0.000000
 ---------------------------------------------------------------------

 The electronic state is 2-A'.
 Alpha  occ. eigenvalues --  -14.34678 -14.33910  -1.04224  -0.65486  -0.46516
 Alpha  occ. eigenvalues --   -0.40569  -0.39468  -0.19761
 Alpha virt. eigenvalues --   -0.06150   0.07331   0.36728   0.61858   0.63105
 Alpha virt. eigenvalues --    0.65231   0.67691   0.74341   0.75049   0.80702
 Alpha virt. eigenvalues --    0.93478   1.25159   1.45760   1.47524   1.48352

  Beta  occ. eigenvalues --  -14.34397 -14.32209  -1.02558  -0.62733  -0.42118
  Beta  occ. eigenvalues --   -0.39686  -0.36050
  Beta virt. eigenvalues --   -0.07355  -0.04674   0.09514   0.38367   0.62943
  Beta virt. eigenvalues --    0.63695   0.68092   0.74133   0.75864   0.76257
  Beta virt. eigenvalues --    0.84535   0.94656   1.26970   1.47735   1.49882

 Mulliken charges and spin densities:
               1          2
     1  N   -0.076906   0.739623
     2  N   -0.245128   0.086703
     3  H    0.322034   0.173674
 Sum of Mulliken charges =   0.00000   1.00000

 Dipole moment (field-independent basis, Debye):
    X=              1.4400    Y=             -1.2478    Z=              0.0000  Tot=              1.9054
 Quadrupole moment (field-independent basis, Debye-Ang):
   XX=            -10.6640   YY=            -11.8763   ZZ=            -10.9945
   XY=             -1.3941   XZ=              0.0000   YZ=              0.0000

 1\1\GINC-NODE40\FOpt\UTPSSh\6-31G(d)\H1N2(2)\RPEVERATI\07-Oct-2020\0\\
 #P Opt(MaxCyc=100) TPSSh/6-31G* 5D 7F Integral=UltraFineGrid SCF=(NoSy
 mm,XQC,MaxCyc=120) IOp(1/33=1,3/174=1000000,3/175=2238200,3/177=045290
 0,3/178=4655000) EmpiricalDispersion=GD3BJ\\TS search on BH76.\\0,2\N,
 -0.0670507855,0.6672021004,0.\N,-0.0666859061,-0.5161775619,0.\H,0.883
 0484471,-0.9957173111,0.\\Version=ES64L-G16RevA.03\State=2-A'\HF=-110.
 0311642\S2=0.755513\S2-1=0.\S2A=0.750022\RMSD=9.990e-09\RMSF=9.145e-05
 \Dipole=0.5666741,-0.4907438,0.\Quadrupole=0.3829889,-0.5196241,0.1366

 Normal termination of Gaussian 16 at Wed Oct  7 14:42:58 2020.
