 Gaussian 16, Revision A.03,

 ----------------------------------------------------------------------
 #P Opt(TS,MaxCyc=50,NoEigenTest,MaxStep=10,AddRedundant) TPSSh/6-31G*
 5D 7F Integral=UltraFineGrid SCF=(NoSymm,XQC,MaxCyc=120) IOp(1/33=1,3/
 174=1000000,3/175=2238200,3/177=0452900,3/178=4655000) EmpiricalDisper
 sion=GD3BJ
 ----------------------------------------------------------------------

 TstMul:  Mul=     2
 TstMul:  ICh=     0
 TstMul:  Mul=     2
 Symbolic Z-matrix:
 Charge =  0 Multiplicity = 2

 SCF Done:  E(UTPSSh) =  -200.002025590     A.U. after   19 cycles
 SCF Done:  E(UTPSSh) =  -200.004190121     A.U. after   13 cycles
 SCF Done:  E(UTPSSh) =  -200.001562839     A.U. after   15 cycles
 SCF Done:  E(UTPSSh) =  -199.999519281     A.U. after   15 cycles
 SCF Done:  E(UTPSSh) =  -199.997900051     A.U. after   15 cycles
 SCF Done:  E(UTPSSh) =  -199.996629214     A.U. after   15 cycles
 SCF Done:  E(UTPSSh) =  -199.995639380     A.U. after   15 cycles
 SCF Done:  E(UTPSSh) =  -199.994870091     A.U. after   15 cycles
 SCF Done:  E(UTPSSh) =  -199.994271272     A.U. after   15 cycles
 SCF Done:  E(UTPSSh) =  -199.993804683     A.U. after   15 cycles
 SCF Done:  E(UTPSSh) =  -199.992447615     A.U. after   10 cycles
 SCF Done:  E(UTPSSh) =  -199.992416167     A.U. after   10 cycles
 SCF Done:  E(UTPSSh) =  -199.992387720     A.U. after   10 cycles
 SCF Done:  E(UTPSSh) =  -199.992361078     A.U. after   10 cycles
 SCF Done:  E(UTPSSh) =  -199.992335757     A.U. after   10 cycles
 SCF Done:  E(UTPSSh) =  -199.992311579     A.U. after   10 cycles
 SCF Done:  E(UTPSSh) =  -199.992311358     A.U. after    8 cycles
 SCF Done:  E(UTPSSh) =  -199.992309942     A.U. after    8 cycles
 SCF Done:  E(UTPSSh) =  -199.992285761     A.U. after    9 cycles
 Optimization completed.
    -- Stationary point found.
 Normal termination of Gaussian 16 at Wed Oct  7 14:51:26 2020.
 Gaussian 16:  ES64L-G16RevA.03 25-Dec-2016

 ----------------------------------------------------------------------
 #P Freq TPSSh/6-31G* 5D 7F Integral=UltraFineGrid SCF=(NoSymm,XQC,MaxC
 yc=120) IOp(1/33=1,3/174=1000000,3/175=2238200,3/177=0452900,3/178=465
 5000) EmpiricalDispersion=GD3BJ Geom=Check Guess=Read
 ----------------------------------------------------------------------

 TstMul:  Mul=     2
 TstMul:  ICh=     0
 TstMul:  Mul=     2
 Structure from the checkpoint file:  "MN_52_hf2ts_BH76_TPSShDBJ_631Gs.chk"
 Charge =  0 Multiplicity = 2

                         Standard orientation:
 ---------------------------------------------------------------------
 Center     Atomic      Atomic             Coordinates (Angstroms)
 Number     Number       Type             X           Y           Z
 ---------------------------------------------------------------------
      1          1           0        0.000000    0.000000   -3.417332
      2          9           0        0.000000    0.000000   -0.515854
      3          9           0        0.000000    0.000000    0.895558
 ---------------------------------------------------------------------

 SCF Done:  E(UTPSSh) =  -199.992285761     A.U. after    1 cycles

 The electronic state is 2-SG.
 Alpha  occ. eigenvalues --  -24.70364 -24.70328  -1.29997  -1.06522  -0.56299
 Alpha  occ. eigenvalues --   -0.48803  -0.48803  -0.36028  -0.36028  -0.30575
 Alpha virt. eigenvalues --   -0.14978   0.68574   1.05981   1.05981   1.10195
 Alpha virt. eigenvalues --    1.23204   1.24040   1.24040   1.25926   1.52623
 Alpha virt. eigenvalues --    1.52623   1.68348   1.68348   1.73486   1.91972

  Beta  occ. eigenvalues --  -24.70368 -24.70307  -1.29975  -1.06501  -0.56256
  Beta  occ. eigenvalues --   -0.48795  -0.48795  -0.36019  -0.36019
  Beta virt. eigenvalues --   -0.15042   0.04677   0.97853   1.05985   1.05985
  Beta virt. eigenvalues --    1.12551   1.24047   1.24047   1.24633   1.26386
  Beta virt. eigenvalues --    1.52639   1.52639   1.68351   1.68351   1.73533

 Mulliken charges and spin densities:
               1          2
     1  H    0.003076   0.995925
     2  F   -0.001307  -0.001557
     3  F   -0.001769   0.005633
 Sum of Mulliken charges =  -0.00000   1.00000

 Dipole moment (field-independent basis, Debye):
    X=              0.0000    Y=             -0.0000    Z=             -0.0590  Tot=              0.0590
 Quadrupole moment (field-independent basis, Debye-Ang):
   XX=            -10.5498   YY=            -10.5498   ZZ=             -9.3599
   XY=             -0.0000   XZ=              0.0000   YZ=              0.0000

  Exact polarizability:   2.757   0.000   2.757   0.000  -0.000  12.382
 Approx polarizability:   3.377   0.000   3.377   0.000   0.000  23.491

                      1                      2                      3
                     PI                     PI                     SG
 Frequencies --     44.1019                44.1019                49.2262
 Red. masses --      1.6693                 1.6693                 1.0333
 Frc consts  --      0.0019                 0.0019                 0.0015
 IR Inten    --      0.0077                 0.0077                 1.1674

                      4
                     SG
 Frequencies --   1035.7968
 Red. masses --     18.9176
 Frc consts  --     11.9582
 IR Inten    --      1.6503

 - Thermochemistry -
 -------------------
 Temperature   298.150 Kelvin.  Pressure   1.00000 Atm.
 Atom     1 has atomic number  1 and mass   1.00783

 Molecular mass:    39.00463 amu.
 Principal axes and moments of inertia in atomic units:
                           1         2         3
     Eigenvalues --     0.00000 113.19544 113.19544
           X            0.00000   0.00000   1.00000
           Y            0.00000   1.00000   0.00000
           Z            1.00000   0.00000   0.00000
 This molecule is a prolate symmetric top.
 Rotational symmetry number  1.
 Rotational temperature (Kelvin)      0.76517
 Rotational constant (GHZ):          15.943586
 Zero-point vibrational energy       7017.5 (Joules/Mol)
                                    1.67721 (Kcal/Mol)
 Warning -- explicit consideration of   3 degrees of freedom as
           vibrations may cause significant error
 Vibrational temperatures:     63.45    63.45    70.83  1490.28
          (Kelvin)

 Zero-point correction=                           0.002673 (Hartree/Particle)
 Thermal correction to Energy=                    0.007596
 Thermal correction to Enthalpy=                  0.008541
 Thermal correction to Gibbs Free Energy=        -0.023384
 Sum of electronic and zero-point Energies=           -199.989613
 Sum of electronic and thermal Energies=              -199.984689
 Sum of electronic and thermal Enthalpies=            -199.983745
 Sum of electronic and thermal Free Energies=         -200.015670

                     E (Thermal)             CV                S
                      KCal/Mol        Cal/Mol-Kelvin    Cal/Mol-Kelvin
 Total                    4.767             11.245             67.191
 Electronic               0.000              0.000              1.377
 Translational            0.889              2.981             36.912
 Rotational               0.592              1.987             13.841
 Vibrational              3.286              6.277             15.061
 Vibration     1          0.595              1.980              5.066
 Vibration     2          0.595              1.980              5.066
 Vibration     3          0.595              1.978              4.848

                           ! Non-Optimized Parameters !

 1\1\GINC-NODE61\Freq\UTPSSh\6-31G(d)\F2H1(2)\RPEVERATI\07-Oct-2020\0\\
 #P Freq TPSSh/6-31G* 5D 7F Integral=UltraFineGrid SCF=(NoSymm,XQC,MaxC
 yc=120) IOp(1/33=1,3/174=1000000,3/175=2238200,3/177=0452900,3/178=465
 5000) EmpiricalDispersion=GD3BJ Geom=Check Guess=Read\\TS search on BH
 76.\\0,2\H,0.,0.,-3.0659077718\F,0.,0.,-0.1644300315\F,0.,0.,1.2469816
 173\\Version=ES64L-G16RevA.03\State=2-SG\HF=-199.9922858\S2=0.750009\S
 2-1=0.\S2A=0.75\RMSD=2.246e-09\RMSF=1.012e-04\ZeroPoint=0.0026728\Ther
 mal=0.0075964\Dipole=0.,0.,-0.0232261\DipoleDeriv=0.0035218,0.,0.,0.,0

 Normal termination of Gaussian 16 at Wed Oct  7 14:52:01 2020.
