 Gaussian 16, Revision A.03,
 Gaussian 16:  ES64L-G16RevA.03 25-Dec-2016

 ----------------------------------------------------------------------
 #P Opt(MaxCyc=100) TPSSh/6-31G* 5D 7F Integral=UltraFineGrid SCF=(NoSy
 mm,XQC,MaxCyc=120) IOp(1/33=1,3/174=1000000,3/175=2238200,3/177=045290
 0,3/178=4655000) EmpiricalDispersion=GD3BJ
 ----------------------------------------------------------------------

 TstMul:  Mul=     1
 TstMul:  ICh=     0
 TstMul:  Mul=     1
 Symbolic Z-matrix:
 Charge =  0 Multiplicity = 1

 SCF Done:  E(RTPSSh) =  -93.3965402754     A.U. after   11 cycles
 SCF Done:  E(RTPSSh) =  -93.3968029521     A.U. after    8 cycles
 SCF Done:  E(RTPSSh) =  -93.3968036147     A.U. after    7 cycles
 Optimization completed.
    -- Stationary point found.

                         Standard orientation:
 ---------------------------------------------------------------------
 Center     Atomic      Atomic             Coordinates (Angstroms)
 Number     Number       Type             X           Y           Z
 ---------------------------------------------------------------------
      1          6           0        0.000000    0.000000   -0.745743
      2          7           0        0.000000    0.000000    0.434117
      3          1           0        0.000000    0.000000    1.435640
 ---------------------------------------------------------------------

 The electronic state is 1-SG.
 Alpha  occ. eigenvalues --  -14.30151 -10.16945  -0.91670  -0.64258  -0.35113
 Alpha  occ. eigenvalues --   -0.35113  -0.29555
 Alpha virt. eigenvalues --    0.01340   0.01340   0.06715   0.34895   0.50653
 Alpha virt. eigenvalues --    0.55909   0.55909   0.65103   0.73112   0.73112
 Alpha virt. eigenvalues --    0.92599   1.18613   1.44121   1.49639   1.49639

 Mulliken charges:
               1
     1  C    0.054079
     2  N   -0.432750
     3  H    0.378671
 Sum of Mulliken charges =  -0.00000

 Dipole moment (field-independent basis, Debye):
    X=              0.0000    Y=             -0.0000    Z=              2.9678  Tot=              2.9678
 Quadrupole moment (field-independent basis, Debye-Ang):
   XX=            -11.5311   YY=            -11.5311   ZZ=             -9.8722
   XY=              0.0000   XZ=              0.0000   YZ=              0.0000

 Normal termination of Gaussian 16 at Wed Oct  7 14:42:56 2020.
