 Gaussian 16, Revision A.03,
 Gaussian 16:  ES64L-G16RevA.03 25-Dec-2016

 ----------------------------------------------------------------------
 #P Opt(MaxCyc=100) TPSSh/6-31G* 5D 7F Integral=UltraFineGrid SCF=(NoSy
 mm,XQC,MaxCyc=120) IOp(1/33=1,3/174=1000000,3/175=2238200,3/177=045290
 0,3/178=4655000) EmpiricalDispersion=GD3BJ
 ----------------------------------------------------------------------

 TstMul:  Mul=     2
 TstMul:  ICh=     0
 TstMul:  Mul=     2
 Symbolic Z-matrix:
 Charge =  0 Multiplicity = 2

 SCF Done:  E(UTPSSh) =  -398.735827237     A.U. after   12 cycles
 SCF Done:  E(UTPSSh) =  -398.735881042     A.U. after    8 cycles
 Optimization completed.
    -- Stationary point found.

                         Standard orientation:
 ---------------------------------------------------------------------
 Center     Atomic      Atomic             Coordinates (Angstroms)
 Number     Number       Type             X           Y           Z
 ---------------------------------------------------------------------
      1         16           0        0.000000    0.000000    0.079482
      2          1           0        0.000000    0.000000   -1.271717
 ---------------------------------------------------------------------

 Unable to determine electronic state:  partially filled degenerate orbitals.
 Alpha  occ. eigenvalues --  -88.74107  -7.89139  -5.84893  -5.83933  -5.82901
 Alpha  occ. eigenvalues --   -0.72040  -0.40102  -0.31120  -0.25933
 Alpha virt. eigenvalues --    0.02231   0.27588   0.33168   0.33365   0.36227
 Alpha virt. eigenvalues --    0.69020   0.69054   0.71942   0.73005   0.73490
 Alpha virt. eigenvalues --    1.10474
  Beta  occ. eigenvalues --  -88.73561  -7.88623  -5.83625  -5.83209  -5.82596
  Beta  occ. eigenvalues --   -0.67960  -0.38701  -0.24472
  Beta virt. eigenvalues --   -0.18627   0.03678   0.29379   0.34165   0.37125
  Beta virt. eigenvalues --    0.37742   0.71468   0.74965   0.75748   0.78475
  Beta virt. eigenvalues --    0.79083   1.13013

 Mulliken charges and spin densities:
               1          2
     1  S   -0.108768   1.031020
     2  H    0.108768  -0.031020
 Sum of Mulliken charges =  -0.00000   1.00000

 Dipole moment (field-independent basis, Debye):
    X=              0.0000    Y=             -0.0000    Z=             -1.0754  Tot=              1.0754
 Quadrupole moment (field-independent basis, Debye-Ang):
   XX=            -15.6641   YY=            -12.7799   ZZ=            -11.9969
   XY=              0.0000   XZ=              0.0000   YZ=             -0.0000

 1\1\GINC-NODE33\FOpt\UTPSSh\6-31G(d)\H1S1(2)\RPEVERATI\07-Oct-2020\0\\
 #P Opt(MaxCyc=100) TPSSh/6-31G* 5D 7F Integral=UltraFineGrid SCF=(NoSy
 mm,XQC,MaxCyc=120) IOp(1/33=1,3/174=1000000,3/175=2238200,3/177=045290
 0,3/178=4655000) EmpiricalDispersion=GD3BJ\\TS search on BH76.\\0,2\S,
 0.,0.,0.0843330993\H,0.,0.,-1.2668658328\\Version=ES64L-G16RevA.03\HF=
 -398.735881\S2=0.753271\S2-1=0.\S2A=0.750002\RMSD=9.432e-09\RMSF=1.459
 e-04\Dipole=0.,0.,-0.4230814\Quadrupole=-1.6236079,0.5207231,1.1028848
 ,0.,0.,0.\PG=C*V [C*(H1S1)]\\@

 Normal termination of Gaussian 16 at Wed Oct  7 14:43:02 2020.
