 Gaussian 16, Revision A.03,

 ----------------------------------------------------------------------
 #P Opt(TS,MaxCyc=50,NoEigenTest,MaxStep=10,AddRedundant) TPSSh/6-31G*
 5D 7F Integral=UltraFineGrid SCF=(NoSymm,XQC,MaxCyc=120) IOp(1/33=1,3/
 174=1000000,3/175=2238200,3/177=0452900,3/178=4655000) EmpiricalDisper
 sion=GD3BJ
 ----------------------------------------------------------------------

 TstMul:  Mul=     2
 TstMul:  ICh=     0
 TstMul:  Mul=     2
 Symbolic Z-matrix:
 Charge =  0 Multiplicity = 2

 SCF Done:  E(UTPSSh) =  -185.148702090     A.U. after   19 cycles
 SCF Done:  E(UTPSSh) =  -185.150014600     A.U. after   17 cycles
 SCF Done:  E(UTPSSh) =  -185.150186102     A.U. after   13 cycles
 SCF Done:  E(UTPSSh) =  -185.150026040     A.U. after   16 cycles
 SCF Done:  E(UTPSSh) =  -185.150050150     A.U. after   17 cycles
 SCF Done:  E(UTPSSh) =  -185.150052472     A.U. after   12 cycles
 Optimization completed.
    -- Stationary point found.
 Normal termination of Gaussian 16 at Wed Oct  7 14:44:06 2020.
 Gaussian 16:  ES64L-G16RevA.03 25-Dec-2016

 ----------------------------------------------------------------------
 #P Freq TPSSh/6-31G* 5D 7F Integral=UltraFineGrid SCF=(NoSymm,XQC,MaxC
 yc=120) IOp(1/33=1,3/174=1000000,3/175=2238200,3/177=0452900,3/178=465
 5000) EmpiricalDispersion=GD3BJ Geom=Check Guess=Read
 ----------------------------------------------------------------------

 TstMul:  Mul=     2
 TstMul:  ICh=     0
 TstMul:  Mul=     2
 Structure from the checkpoint file:  "MN_68_n2ohts_BH76_TPSShDBJ_631Gs.chk"
 Charge =  0 Multiplicity = 2

                         Standard orientation:
 ---------------------------------------------------------------------
 Center     Atomic      Atomic             Coordinates (Angstroms)
 Number     Number       Type             X           Y           Z
 ---------------------------------------------------------------------
      1          1           0       -0.399300   -1.986788    0.000000
      2          8           0       -0.876131   -0.610629   -0.000000
      3          7           0       -0.000000    0.263857   -0.000000
      4          7           0        1.058335    0.717831    0.000000
 ---------------------------------------------------------------------

 SCF Done:  E(UTPSSh) =  -185.150052472     A.U. after    1 cycles

 The electronic state is 2-A'.
 Alpha  occ. eigenvalues --  -19.19472 -14.46597 -14.36425  -1.19184  -1.03675
 Alpha  occ. eigenvalues --   -0.62737  -0.52710  -0.51954  -0.46365  -0.36805
 Alpha  occ. eigenvalues --   -0.33103  -0.21482
 Alpha virt. eigenvalues --   -0.06611  -0.04503   0.13602   0.44396   0.58284
 Alpha virt. eigenvalues --    0.60273   0.60687   0.69076   0.70686   0.73904
 Alpha virt. eigenvalues --    0.74462   0.76450   0.92365   0.92823   1.11407

  Beta  occ. eigenvalues --  -19.19460 -14.46408 -14.35717  -1.18685  -1.02958
  Beta  occ. eigenvalues --   -0.61639  -0.51639  -0.51562  -0.45005  -0.34289
  Beta  occ. eigenvalues --   -0.32724
  Beta virt. eigenvalues --   -0.10504  -0.03871  -0.00997   0.14304   0.45000
  Beta virt. eigenvalues --    0.60871   0.61018   0.61752   0.70959   0.73918
  Beta virt. eigenvalues --    0.74926   0.76813   0.78501   0.92492   0.93473

 Mulliken charges and spin densities:
               1          2
     1  H    0.055689   0.712652
     2  O   -0.388685  -0.104840
     3  N    0.432027   0.071033
     4  N   -0.099031   0.321155
 Sum of Mulliken charges =  -0.00000   1.00000

 Dipole moment (field-independent basis, Debye):
    X=             -0.1868    Y=             -0.1731    Z=              0.0000  Tot=              0.2546
 Quadrupole moment (field-independent basis, Debye-Ang):
   XX=            -18.8585   YY=            -17.2697   ZZ=            -16.3732
   XY=             -1.4320   XZ=             -0.0000   YZ=             -0.0000

  Exact polarizability:  22.768  12.380  38.877   0.000   0.000   7.580
 Approx polarizability:  61.859  40.748  81.299   0.000   0.000  10.767

 ******    1 imaginary frequencies (negative Signs) ******

                      1                      2                      3
                     A'                     A'                     A"
 Frequencies --  -1268.6886               487.4957               573.2201
 Red. masses --      1.5136                 1.3669                 4.2622
 Frc consts  --      1.4354                 0.1914                 0.8251
 IR Inten    --    747.3165                16.1561                 5.9392

                      4                      5                      6
                     A'                     A'                     A'
 Frequencies --    837.3895              1212.4034              2138.1470
 Red. masses --      2.4210                 5.3539                14.0030
 Frc consts  --      1.0002                 4.6367                37.7179
 IR Inten    --      2.4683                41.8056               248.8808

 - Thermochemistry -
 -------------------
 Temperature   298.150 Kelvin.  Pressure   1.00000 Atm.
 Atom     1 has atomic number  1 and mass   1.00783

 Molecular mass:    45.00889 amu.
 Principal axes and moments of inertia in atomic units:
                           1         2         3
     Eigenvalues --     8.85704 156.00147 164.85851
           X            0.78882  -0.61462   0.00000
           Y            0.61462   0.78882   0.00000
           Z           -0.00000   0.00000   1.00000
 This molecule is an asymmetric top.
 Rotational symmetry number  1.
 Rotational temperatures (Kelvin)      9.77910     0.55521     0.52538
 Rotational constants (GHZ):         203.76342    11.56875    10.94721
    1 imaginary frequencies ignored.
 Zero-point vibrational energy      31393.9 (Joules/Mol)
                                    7.50333 (Kcal/Mol)
 Warning -- explicit consideration of   2 degrees of freedom as
           vibrations may cause significant error
 Vibrational temperatures:    701.40   824.74  1204.82  1744.38  3076.32
          (Kelvin)

 Zero-point correction=                           0.011957 (Hartree/Particle)
 Thermal correction to Energy=                    0.015283
 Thermal correction to Enthalpy=                  0.016227
 Thermal correction to Gibbs Free Energy=        -0.012368
 Sum of electronic and zero-point Energies=           -185.138095
 Sum of electronic and thermal Energies=              -185.134769
 Sum of electronic and thermal Enthalpies=            -185.133825
 Sum of electronic and thermal Free Energies=         -185.162420

                     E (Thermal)             CV                S
                      KCal/Mol        Cal/Mol-Kelvin    Cal/Mol-Kelvin
 Total                    9.590              9.124             60.183
 Electronic               0.000              0.000              1.377
 Translational            0.889              2.981             37.338
 Rotational               0.889              2.981             20.060
 Vibrational              7.813              3.162              1.407
 Vibration     1          0.843              1.278              0.690
 Vibration     2          0.929              1.089              0.498

                           ! Non-Optimized Parameters !
 Normal termination of Gaussian 16 at Wed Oct  7 14:44:33 2020.
