 Gaussian 16, Revision A.03,
 Gaussian 16:  ES64L-G16RevA.03 25-Dec-2016

 ----------------------------------------------------------------------
 #P Opt(MaxCyc=100) TPSSh/6-31G* 5D 7F Integral=UltraFineGrid SCF=(NoSy
 mm,XQC,MaxCyc=120) IOp(1/33=1,3/174=1000000,3/175=2238200,3/177=045290
 0,3/178=4655000) EmpiricalDispersion=GD3BJ
 ----------------------------------------------------------------------

 TstMul:  Mul=     1
 TstMul:  ICh=     0
 TstMul:  Mul=     1
 Symbolic Z-matrix:
 Charge =  0 Multiplicity = 1

 SCF Done:  E(RTPSSh) =  -184.666800764     A.U. after   12 cycles
 SCF Done:  E(RTPSSh) =  -184.667662316     A.U. after   12 cycles
 SCF Done:  E(RTPSSh) =  -184.667678552     A.U. after    8 cycles
 Optimization completed.
    -- Stationary point found.

                         Standard orientation:
 ---------------------------------------------------------------------
 Center     Atomic      Atomic             Coordinates (Angstroms)
 Number     Number       Type             X           Y           Z
 ---------------------------------------------------------------------
      1          7           0        0.000000    0.000000   -1.210628
      2          7           0        0.000000    0.000000   -0.071684
      3          8           0        0.000000    0.000000    1.122023
 ---------------------------------------------------------------------

 The electronic state is 1-SG.
 Alpha  occ. eigenvalues --  -19.17433 -14.48887 -14.36215  -1.21073  -1.05183
 Alpha  occ. eigenvalues --   -0.58219  -0.53452  -0.53452  -0.45340  -0.32159
 Alpha  occ. eigenvalues --   -0.32159
 Alpha virt. eigenvalues --   -0.03079  -0.03079   0.11771   0.41624   0.59732
 Alpha virt. eigenvalues --    0.60120   0.60120   0.73643   0.74220   0.74543
 Alpha virt. eigenvalues --    0.74543   0.95166   0.95166   1.04201   1.33392

 Mulliken charges:
               1
     1  N   -0.103721
     2  N    0.557774
     3  O   -0.454053
 Sum of Mulliken charges =  -0.00000

 Dipole moment (field-independent basis, Debye):
    X=              0.0000    Y=              0.0000    Z=              0.0579  Tot=              0.0579
 Quadrupole moment (field-independent basis, Debye-Ang):
   XX=            -14.9955   YY=            -14.9955   ZZ=            -18.7090
   XY=              0.0000   XZ=              0.0000   YZ=              0.0000

 Normal termination of Gaussian 16 at Wed Oct  7 14:43:09 2020.
