 Gaussian 16, Revision A.03,
 Gaussian 16:  ES64L-G16RevA.03 25-Dec-2016

 ----------------------------------------------------------------------
 #P Opt(MaxCyc=100) TPSSh/6-31G* 5D 7F Integral=UltraFineGrid SCF=(NoSy
 mm,XQC,MaxCyc=120) IOp(1/33=1,3/174=1000000,3/175=2238200,3/177=045290
 0,3/178=4655000) EmpiricalDispersion=GD3BJ
 ----------------------------------------------------------------------

 TstMul:  Mul=     3
 TstMul:  ICh=     0
 TstMul:  Mul=     3
 Symbolic Z-matrix:
 Charge =  0 Multiplicity = 3

 SCF Done:  E(UTPSSh) =  -55.2244617454     A.U. after   12 cycles
 SCF Done:  E(UTPSSh) =  -55.2245202588     A.U. after    8 cycles
 SCF Done:  E(UTPSSh) =  -55.2245205468     A.U. after    7 cycles
 Optimization completed.
    -- Stationary point found.

                         Standard orientation:
 ---------------------------------------------------------------------
 Center     Atomic      Atomic             Coordinates (Angstroms)
 Number     Number       Type             X           Y           Z
 ---------------------------------------------------------------------
      1          7           0        0.000000    0.000000    0.130749
      2          1           0        0.000000    0.000000   -0.915241
 ---------------------------------------------------------------------

 The electronic state is 3-SG.
 Alpha  occ. eigenvalues --  -14.33289  -0.81905  -0.37524  -0.31033  -0.31033
 Alpha virt. eigenvalues --    0.08847   0.63761   0.63761   0.71522   0.74212
 Alpha virt. eigenvalues --    0.95723   1.64210   1.64210   1.64427   1.64427
 Alpha virt. eigenvalues --    2.21885
  Beta  occ. eigenvalues --  -14.29032  -0.70618  -0.33523
  Beta virt. eigenvalues --   -0.08891  -0.08891   0.11610   0.75807   0.76221
  Beta virt. eigenvalues --    0.76221   0.80226   1.05992   1.76072   1.76072
  Beta virt. eigenvalues --    1.80658   1.80658   2.32733

 Mulliken charges and spin densities:
               1          2
     1  N   -0.304150   2.056097
     2  H    0.304150  -0.056097
 Sum of Mulliken charges =  -0.00000   2.00000

 Dipole moment (field-independent basis, Debye):
    X=              0.0000    Y=             -0.0000    Z=             -1.6241  Tot=              1.6241
 Quadrupole moment (field-independent basis, Debye-Ang):
   XX=             -6.1434   YY=             -6.1434   ZZ=             -5.7532
   XY=             -0.0000   XZ=              0.0000   YZ=              0.0000

 1\1\GINC-NODE23\FOpt\UTPSSh\6-31G(d)\H1N1(3)\RPEVERATI\07-Oct-2020\0\\
 #P Opt(MaxCyc=100) TPSSh/6-31G* 5D 7F Integral=UltraFineGrid SCF=(NoSy
 mm,XQC,MaxCyc=120) IOp(1/33=1,3/174=1000000,3/175=2238200,3/177=045290
 0,3/178=4655000) EmpiricalDispersion=GD3BJ\\TS search on BH76.\\0,3\N,
 0.,0.,0.1342194394\H,0.,0.,-0.9117702075\\Version=ES64L-G16RevA.03\Sta
 te=3-SG\HF=-55.2245205\S2=2.005978\S2-1=0.\S2A=2.000004\RMSD=2.011e-09
 \RMSF=4.510e-08\Dipole=0.,0.,-0.6389846\Quadrupole=-0.0967215,-0.09672
 15,0.193443,0.,0.,0.\PG=C*V [C*(H1N1)]\\@

 Normal termination of Gaussian 16 at Wed Oct  7 14:43:09 2020.
