 Gaussian 16, Revision A.03,

 ----------------------------------------------------------------------
 #P Opt(TS,MaxCyc=50,NoEigenTest,MaxStep=10,AddRedundant) TPSSh/6-31G*
 5D 7F Integral=UltraFineGrid SCF=(NoSymm,XQC,MaxCyc=120) IOp(1/33=1,3/
 174=1000000,3/175=2238200,3/177=0452900,3/178=4655000) EmpiricalDisper
 sion=GD3BJ
 ----------------------------------------------------------------------

 TstMul:  Mul=     1
 TstMul:  ICh=    -1
 TstMul:  Mul=     1
 Symbolic Z-matrix:
 Charge = -1 Multiplicity = 1

 SCF Done:  E(RTPSSh) =  -215.477352447     A.U. after   13 cycles
 SCF Done:  E(RTPSSh) =  -215.478024359     A.U. after   11 cycles
 SCF Done:  E(RTPSSh) =  -215.478107048     A.U. after   10 cycles
 SCF Done:  E(RTPSSh) =  -215.478158310     A.U. after   10 cycles
 SCF Done:  E(RTPSSh) =  -215.478182706     A.U. after    9 cycles
 SCF Done:  E(RTPSSh) =  -215.478112385     A.U. after   12 cycles
 SCF Done:  E(RTPSSh) =  -215.478127779     A.U. after   10 cycles
 SCF Done:  E(RTPSSh) =  -215.478126433     A.U. after   10 cycles
 SCF Done:  E(RTPSSh) =  -215.478128950     A.U. after    8 cycles
 SCF Done:  E(RTPSSh) =  -215.478134094     A.U. after   10 cycles
 SCF Done:  E(RTPSSh) =  -215.478135542     A.U. after    8 cycles
 SCF Done:  E(RTPSSh) =  -215.478135713     A.U. after    8 cycles
 Optimization completed.
    -- Stationary point found.
 Normal termination of Gaussian 16 at Wed Oct  7 14:45:30 2020.
 Gaussian 16:  ES64L-G16RevA.03 25-Dec-2016

 ----------------------------------------------------------------------
 #P Freq TPSSh/6-31G* 5D 7F Integral=UltraFineGrid SCF=(NoSymm,XQC,MaxC
 yc=120) IOp(1/33=1,3/174=1000000,3/175=2238200,3/177=0452900,3/178=465
 5000) EmpiricalDispersion=GD3BJ Geom=Check Guess=Read
 ----------------------------------------------------------------------

 TstMul:  Mul=     1
 TstMul:  ICh=    -1
 TstMul:  Mul=     1
 Structure from the checkpoint file:  "MN_63_hoch3fts_BH76_TPSShDBJ_631Gs.chk"
 Charge = -1 Multiplicity = 1

                         Standard orientation:
 ---------------------------------------------------------------------
 Center     Atomic      Atomic             Coordinates (Angstroms)
 Number     Number       Type             X           Y           Z
 ---------------------------------------------------------------------
      1          9           0        1.846500   -0.019822   -0.000022
      2          6           0        0.075989    0.026287    0.000018
      3          1           0        0.035822    1.103005   -0.000275
      4          1           0        0.021747   -0.503760   -0.936780
      5          1           0        0.022166   -0.503261    0.937128
      6          8           0       -1.885672    0.098456    0.000002
      7          1           0       -2.068785   -0.862956   -0.000003
 ---------------------------------------------------------------------

 SCF Done:  E(RTPSSh) =  -215.478135713     A.U. after    1 cycles

 The electronic state is 1-A.
 Alpha  occ. eigenvalues --  -24.22523 -18.74113  -9.94526  -0.75324  -0.61773
 Alpha  occ. eigenvalues --   -0.42507  -0.19824  -0.19746  -0.11279  -0.07287
 Alpha  occ. eigenvalues --   -0.00737  -0.00586   0.04301   0.04890
 Alpha virt. eigenvalues --    0.29158   0.30949   0.36742   0.37710   0.38010
 Alpha virt. eigenvalues --    0.78192   0.78922   0.89462   1.03584   1.09116
 Alpha virt. eigenvalues --    1.12324   1.13879   1.19466   1.22431   1.34538

 Mulliken charges:
               1
     1  F   -0.614122
     2  C   -0.149609
     3  H    0.140180
     4  H    0.127027
     5  H    0.127036
     6  O   -0.898916
     7  H    0.268404
 Sum of Mulliken charges =  -1.00000

 Dipole moment (field-independent basis, Debye):
    X=              0.4078    Y=             -1.2220    Z=              0.0001  Tot=              1.2883
 Quadrupole moment (field-independent basis, Debye-Ang):
   XX=            -40.3341   YY=            -18.1397   ZZ=            -19.6071
   XY=              3.0238   XZ=              0.0005   YZ=             -0.0000

  Exact polarizability:  39.202   2.273  20.159   0.001  -0.000  15.807
 Approx polarizability:  67.438   0.640  27.105   0.002   0.000  19.691

 ******    1 imaginary frequencies (negative Signs) ******

                      1                      2                      3
                      A                      A                      A
 Frequencies --   -445.3434               205.0686               303.5175
 Red. masses --     10.2695                 1.0523                 3.2629
 Frc consts  --      1.2000                 0.0261                 0.1771
 IR Inten    --    787.1973                45.8196                15.3624

                      4                      5                      6
                      A                      A                      A
 Frequencies --    325.7712               356.9497               784.4589
 Red. masses --      4.4483                12.8613                 1.1393
 Frc consts  --      0.2781                 0.9655                 0.4131
 IR Inten    --     23.4673                 5.5384                31.2443

                      7                      8                      9
                      A                      A                      A
 Frequencies --   1016.7322              1059.7774              1139.1718
 Red. masses --      1.0215                 1.0483                 1.0636
 Frc consts  --      0.6221                 0.6937                 0.8132
 IR Inten    --      0.0861                 1.4056                 3.4867

                     10                     11                     12
                      A                      A                      A
 Frequencies --   1400.7175              1404.2814              3140.5812
 Red. masses --      1.1251                 1.1159                 1.0085
 Frc consts  --      1.3006                 1.2965                 5.8605
 IR Inten    --      0.7413                 1.1397                 0.2820

                     13                     14                     15
                      A                      A                      A
 Frequencies --   3320.4117              3327.3281              3578.8299
 Red. masses --      1.1283                 1.1263                 1.0675
 Frc consts  --      7.3289                 7.3466                 8.0558
 IR Inten    --     58.7587                47.1763                86.8242

 - Thermochemistry -
 -------------------
 Temperature   298.150 Kelvin.  Pressure   1.00000 Atm.
 Atom     1 has atomic number  9 and mass  18.99840

 Molecular mass:    51.02462 amu.
 Principal axes and moments of inertia in atomic units:
                           1         2         3
     Eigenvalues --    15.67174 455.47662 458.51032
           X            0.99988   0.01526   0.00000
           Y           -0.01526   0.99988  -0.00000
           Z           -0.00000   0.00000   1.00000
 This molecule is an asymmetric top.
 Rotational symmetry number  1.
 Rotational temperatures (Kelvin)      5.52676     0.19016     0.18890
 Rotational constants (GHZ):         115.15897     3.96231     3.93610
    1 imaginary frequencies ignored.
 Zero-point vibrational energy     127782.7 (Joules/Mol)
                                   30.54080 (Kcal/Mol)
 Warning -- explicit consideration of   4 degrees of freedom as
           vibrations may cause significant error
 Vibrational temperatures:    295.05   436.69   468.71   513.57  1128.66
          (Kelvin)           1462.85  1524.78  1639.01  2015.32  2020.45
                             4518.60  4777.33  4787.28  5149.14

 Zero-point correction=                           0.048670 (Hartree/Particle)
 Thermal correction to Energy=                    0.053396
 Thermal correction to Enthalpy=                  0.054341
 Thermal correction to Gibbs Free Energy=         0.022606
 Sum of electronic and zero-point Energies=           -215.429466
 Sum of electronic and thermal Energies=              -215.424739
 Sum of electronic and thermal Enthalpies=            -215.423795
 Sum of electronic and thermal Free Energies=         -215.455530

                     E (Thermal)             CV                S
                      KCal/Mol        Cal/Mol-Kelvin    Cal/Mol-Kelvin
 Total                   33.507             14.457             66.791
 Electronic               0.000              0.000              0.000
 Translational            0.889              2.981             37.712
 Rotational               0.889              2.981             22.708
 Vibrational             31.729              8.495              6.371
 Vibration     1          0.640              1.833              2.087
 Vibration     2          0.695              1.667              1.397
 Vibration     3          0.710              1.624              1.281
 Vibration     4          0.732              1.561              1.135

 Optimization completed.
    -- Stationary point found.
 Normal termination of Gaussian 16 at Wed Oct  7 14:46:03 2020.
