 Gaussian 16, Revision A.03,
 Gaussian 16:  ES64L-G16RevA.03 25-Dec-2016

 ----------------------------------------------------------------------
 #P Opt(MaxCyc=100) TPSSh/6-31G* 5D 7F Integral=UltraFineGrid SCF=(NoSy
 mm,XQC,MaxCyc=120) IOp(1/33=1,3/174=1000000,3/175=2238200,3/177=045290
 0,3/178=4655000) EmpiricalDispersion=GD3BJ
 ----------------------------------------------------------------------

 TstMul:  Mul=     1
 TstMul:  ICh=    -1
 TstMul:  Mul=     1
 Symbolic Z-matrix:
 Charge = -1 Multiplicity = 1

 SCF Done:  E(RTPSSh) =  -215.550898638     A.U. after   13 cycles
 SCF Done:  E(RTPSSh) =  -215.551465284     A.U. after   12 cycles
 SCF Done:  E(RTPSSh) =  -215.552963871     A.U. after   12 cycles
 SCF Done:  E(RTPSSh) =  -215.554036060     A.U. after   11 cycles
 SCF Done:  E(RTPSSh) =  -215.553612043     A.U. after   12 cycles
 SCF Done:  E(RTPSSh) =  -215.556475927     A.U. after   11 cycles
 SCF Done:  E(RTPSSh) =  -215.556532772     A.U. after   11 cycles
 SCF Done:  E(RTPSSh) =  -215.556741122     A.U. after   11 cycles
 SCF Done:  E(RTPSSh) =  -215.556758843     A.U. after    9 cycles
 SCF Done:  E(RTPSSh) =  -215.556760137     A.U. after    8 cycles
 Optimization completed.
    -- Stationary point found.

                         Standard orientation:
 ---------------------------------------------------------------------
 Center     Atomic      Atomic             Coordinates (Angstroms)
 Number     Number       Type             X           Y           Z
 ---------------------------------------------------------------------
      1          6           0       -1.265545   -0.376135   -0.000060
      2          8           0       -0.484525    0.739057    0.000057
      3          1           0       -2.359500   -0.131930   -0.011395
      4          1           0       -1.122838   -1.064407   -0.880121
      5          1           0       -1.139407   -1.053797    0.891079
      6          1           0        0.700025    0.291957    0.000613
      7          9           0        1.710133   -0.188607   -0.000031
 ---------------------------------------------------------------------

 The electronic state is 1-A.
 Alpha  occ. eigenvalues --  -24.22835 -18.76237  -9.94489  -0.77634  -0.68760
 Alpha  occ. eigenvalues --   -0.41041  -0.21666  -0.18542  -0.16100  -0.10055
 Alpha  occ. eigenvalues --   -0.02097  -0.02074   0.02222   0.03156
 Alpha virt. eigenvalues --    0.30038   0.35780   0.36798   0.40293   0.53581
 Alpha virt. eigenvalues --    0.78087   0.79485   0.81816   0.94302   1.04309
 Alpha virt. eigenvalues --    1.05157   1.11964   1.22710   1.23902   1.24077

 Mulliken charges:
               1
     1  C   -0.107649
     2  O   -0.741962
     3  H    0.023367
     4  H    0.026184
     5  H    0.025166
     6  H    0.479813
     7  F   -0.704919
 Sum of Mulliken charges =  -1.00000

 Dipole moment (field-independent basis, Debye):
    X=             -1.8614    Y=             -0.9746    Z=             -0.0026  Tot=              2.1011
 Quadrupole moment (field-independent basis, Debye-Ang):
   XX=            -30.3821   YY=            -22.7781   ZZ=            -20.6717
   XY=              1.8218   XZ=              0.0058   YZ=              0.0046

 Normal termination of Gaussian 16 at Wed Oct  7 14:44:35 2020.
