 Gaussian 16, Revision A.03,
 Gaussian 16:  ES64L-G16RevA.03 25-Dec-2016

 ----------------------------------------------------------------------
 #P Opt(MaxCyc=100) TPSSh/6-31G* 5D 7F Integral=UltraFineGrid SCF=(NoSy
 mm,XQC,MaxCyc=120) IOp(1/33=1,3/174=1000000,3/175=2238200,3/177=045290
 0,3/178=4655000) EmpiricalDispersion=GD3BJ
 ----------------------------------------------------------------------

 TstMul:  Mul=     1
 TstMul:  ICh=    -1
 TstMul:  Mul=     1
 Symbolic Z-matrix:
 Charge = -1 Multiplicity = 1

 SCF Done:  E(RTPSSh) =  -215.476573362     A.U. after   15 cycles
 SCF Done:  E(RTPSSh) =  -215.480071646     A.U. after   12 cycles
 SCF Done:  E(RTPSSh) =  -215.482717919     A.U. after   13 cycles
 SCF Done:  E(RTPSSh) =  -215.484259376     A.U. after   12 cycles
 SCF Done:  E(RTPSSh) =  -215.484616608     A.U. after   12 cycles
 SCF Done:  E(RTPSSh) =  -215.485211782     A.U. after   12 cycles
 SCF Done:  E(RTPSSh) =  -215.485336108     A.U. after   11 cycles
 SCF Done:  E(RTPSSh) =  -215.485447617     A.U. after   12 cycles
 SCF Done:  E(RTPSSh) =  -215.485491506     A.U. after    9 cycles
 SCF Done:  E(RTPSSh) =  -215.485512618     A.U. after   10 cycles
 SCF Done:  E(RTPSSh) =  -215.488134269     A.U. after   12 cycles
 SCF Done:  E(RTPSSh) =  -215.488592912     A.U. after   11 cycles
 SCF Done:  E(RTPSSh) =  -215.488783020     A.U. after   13 cycles
 SCF Done:  E(RTPSSh) =  -215.488896580     A.U. after   13 cycles
 SCF Done:  E(RTPSSh) =  -215.489402151     A.U. after   12 cycles
 SCF Done:  E(RTPSSh) =  -215.489566274     A.U. after   11 cycles
 SCF Done:  E(RTPSSh) =  -215.489623503     A.U. after   11 cycles
 SCF Done:  E(RTPSSh) =  -215.489653368     A.U. after   10 cycles
 SCF Done:  E(RTPSSh) =  -215.489665264     A.U. after    9 cycles
 SCF Done:  E(RTPSSh) =  -215.489666756     A.U. after    8 cycles
 Optimization completed.
    -- Stationary point found.

                         Standard orientation:
 ---------------------------------------------------------------------
 Center     Atomic      Atomic             Coordinates (Angstroms)
 Number     Number       Type             X           Y           Z
 ---------------------------------------------------------------------
      1          9           0        1.645350    0.442839   -0.019304
      2          6           0        0.582676   -0.512419    0.022510
      3          1           0       -0.493274   -0.064385   -0.075322
      4          1           0        0.773999   -1.234662   -0.790708
      5          1           0        0.689956   -1.059211    0.976587
      6          8           0       -2.135628    0.132997   -0.113388
      7          1           0       -2.189861    0.383243    0.835224
 ---------------------------------------------------------------------

 The electronic state is 1-A.
 Alpha  occ. eigenvalues --  -24.37768 -18.67733  -9.95776  -0.93433  -0.54958
 Alpha  occ. eigenvalues --   -0.45421  -0.24214  -0.23833  -0.21670  -0.11224
 Alpha  occ. eigenvalues --   -0.10355  -0.04991   0.09888   0.10215
 Alpha virt. eigenvalues --    0.29539   0.31337   0.34448   0.36762   0.50904
 Alpha virt. eigenvalues --    0.72339   0.75840   0.78371   1.04655   1.07445
 Alpha virt. eigenvalues --    1.10929   1.14608   1.19658   1.26022   1.34514

 Mulliken charges:
               1
     1  F   -0.412272
     2  C   -0.194748
     3  H    0.255461
     4  H    0.062587
     5  H    0.058383
     6  O   -0.996239
     7  H    0.226828
 Sum of Mulliken charges =  -1.00000

 Dipole moment (field-independent basis, Debye):
    X=              5.5447    Y=             -0.9044    Z=              1.3066  Tot=              5.7679
 Quadrupole moment (field-independent basis, Debye-Ang):
   XX=            -41.8791   YY=            -20.7784   ZZ=            -19.2053
   XY=             -0.2732   XZ=             -2.9212   YZ=              0.6122

 Normal termination of Gaussian 16 at Wed Oct  7 14:51:35 2020.
