 Gaussian 16, Revision A.03,
 Gaussian 16:  ES64L-G16RevA.03 25-Dec-2016

 ----------------------------------------------------------------------
 #P Opt(MaxCyc=100) TPSSh/6-31G* 5D 7F Integral=UltraFineGrid SCF=(NoSy
 mm,XQC,MaxCyc=120) IOp(1/33=1,3/174=1000000,3/175=2238200,3/177=045290
 0,3/178=4655000) EmpiricalDispersion=GD3BJ
 ----------------------------------------------------------------------

 TstMul:  Mul=     1
 TstMul:  ICh=     0
 TstMul:  Mul=     1
 Symbolic Z-matrix:
 Charge =  0 Multiplicity = 1

 SCF Done:  E(RTPSSh) =  -109.523973945     A.U. after    8 cycles
 SCF Done:  E(RTPSSh) =  -109.524340499     A.U. after    6 cycles
 SCF Done:  E(RTPSSh) =  -109.524343612     A.U. after    5 cycles
 Optimization completed.
    -- Stationary point found.

                         Standard orientation:
 ---------------------------------------------------------------------
 Center     Atomic      Atomic             Coordinates (Angstroms)
 Number     Number       Type             X           Y           Z
 ---------------------------------------------------------------------
      1          7           0        0.000000    0.000000    0.554229
      2          7           0        0.000000    0.000000   -0.554229
 ---------------------------------------------------------------------

 The electronic state is 1-SGG.
 Alpha  occ. eigenvalues --  -14.36759 -14.36639  -1.09045  -0.53369  -0.44015
 Alpha  occ. eigenvalues --   -0.44015  -0.39942
 Alpha virt. eigenvalues --   -0.03788  -0.03788   0.41188   0.60297   0.61243
 Alpha virt. eigenvalues --    0.61243   0.72372   0.75651   0.75651   0.80457
 Alpha virt. eigenvalues --    1.28184   1.43818   1.43818   1.53144   1.53144

 Mulliken charges:
               1
     1  N   -0.000000
     2  N   -0.000000
 Sum of Mulliken charges =  -0.00000

 Dipole moment (field-independent basis, Debye):
    X=             -0.0000    Y=              0.0000    Z=              0.0000  Tot=              0.0000
 Quadrupole moment (field-independent basis, Debye-Ang):
   XX=            -10.0065   YY=            -10.0065   ZZ=            -11.5897
   XY=             -0.0000   XZ=              0.0000   YZ=             -0.0000

 Normal termination of Gaussian 16 at Wed Oct  7 14:43:07 2020.
