 Gaussian 16, Revision A.03,
 Gaussian 16:  ES64L-G16RevA.03 25-Dec-2016

 ----------------------------------------------------------------------
 #P Opt(MaxCyc=100) TPSSh/6-31G* 5D 7F Integral=UltraFineGrid SCF=(NoSy
 mm,XQC,MaxCyc=120) IOp(1/33=1,3/174=1000000,3/175=2238200,3/177=045290
 0,3/178=4655000) EmpiricalDispersion=GD3BJ
 ----------------------------------------------------------------------

 TstMul:  Mul=     2
 TstMul:  ICh=     0
 TstMul:  Mul=     2
 Symbolic Z-matrix:
 Charge =  0 Multiplicity = 2

 SCF Done:  E(UTPSSh) =  -55.8723002319     A.U. after   12 cycles
 SCF Done:  E(UTPSSh) =  -55.8725027572     A.U. after    8 cycles
 SCF Done:  E(UTPSSh) =  -55.8725087566     A.U. after    7 cycles
 Optimization completed.
    -- Stationary point found.

                         Standard orientation:
 ---------------------------------------------------------------------
 Center     Atomic      Atomic             Coordinates (Angstroms)
 Number     Number       Type             X           Y           Z
 ---------------------------------------------------------------------
      1          7           0       -0.000000    0.000000    0.144614
      2          1           0       -0.000000    0.806211   -0.506148
      3          1           0       -0.000000   -0.806211   -0.506148
 ---------------------------------------------------------------------

 The electronic state is 2-B1.
 Alpha  occ. eigenvalues --  -14.28765  -0.82988  -0.44630  -0.29934  -0.29160
 Alpha virt. eigenvalues --    0.07832   0.14732   0.65042   0.68364   0.71772
 Alpha virt. eigenvalues --    0.83103   0.88207   1.08240   1.64440   1.66730
 Alpha virt. eigenvalues --    1.67125   2.08581   2.38547
  Beta  occ. eigenvalues --  -14.26658  -0.77673  -0.43422  -0.27545
  Beta virt. eigenvalues --   -0.10223   0.09227   0.15641   0.69224   0.73800
  Beta virt. eigenvalues --    0.75141   0.87165   0.90536   1.13035   1.70439
  Beta virt. eigenvalues --    1.72926   1.75266   2.17359   2.42350

 Mulliken charges and spin densities:
               1          2
     1  N   -0.601797   1.074970
     2  H    0.300898  -0.037485
     3  H    0.300898  -0.037485
 Sum of Mulliken charges =   0.00000   1.00000

 Dipole moment (field-independent basis, Debye):
    X=             -0.0000    Y=              0.0000    Z=             -2.0092  Tot=              2.0092
 Quadrupole moment (field-independent basis, Debye-Ang):
   XX=             -6.9350   YY=             -5.5115   ZZ=             -7.3226
   XY=              0.0000   XZ=              0.0000   YZ=              0.0000

 1\1\GINC-NODE55\FOpt\UTPSSh\6-31G(d)\H2N1(2)\RPEVERATI\07-Oct-2020\0\\
 #P Opt(MaxCyc=100) TPSSh/6-31G* 5D 7F Integral=UltraFineGrid SCF=(NoSy
 mm,XQC,MaxCyc=120) IOp(1/33=1,3/174=1000000,3/175=2238200,3/177=045290
 0,3/178=4655000) EmpiricalDispersion=GD3BJ\\TS search on BH76.\\0,2\N,
 0.,0.,0.1510097836\H,0.,0.8062106493,-0.4997515534\H,0.,-0.8062106493,
 -0.4997515534\\Version=ES64L-G16RevA.03\State=2-B1\HF=-55.8725088\S2=0
 .753345\S2-1=0.\S2A=0.750005\RMSD=9.038e-09\RMSF=6.253e-05\Dipole=0.,0
 .,-0.7904804\Quadrupole=-0.2567181,0.8015998,-0.5448817,0.,0.,0.\PG=C0

 Normal termination of Gaussian 16 at Wed Oct  7 14:43:52 2020.
