 Gaussian 16, Revision A.03,
 Gaussian 16:  ES64L-G16RevA.03 25-Dec-2016

 ----------------------------------------------------------------------
 #P Opt(MaxCyc=100) TPSSh/6-31G* 5D 7F Integral=UltraFineGrid SCF=(NoSy
 mm,XQC,MaxCyc=120) IOp(1/33=1,3/174=1000000,3/175=2238200,3/177=045290
 0,3/178=4655000) EmpiricalDispersion=GD3BJ
 ----------------------------------------------------------------------

 TstMul:  Mul=     2
 TstMul:  ICh=     0
 TstMul:  Mul=     2
 Symbolic Z-matrix:
 Charge =  0 Multiplicity = 2

 SCF Done:  E(UTPSSh) =  -75.7201891458     A.U. after   12 cycles
 SCF Done:  E(UTPSSh) =  -75.7204365820     A.U. after    8 cycles
 SCF Done:  E(UTPSSh) =  -75.7204381289     A.U. after    7 cycles
 Optimization completed.
    -- Stationary point found.

                         Standard orientation:
 ---------------------------------------------------------------------
 Center     Atomic      Atomic             Coordinates (Angstroms)
 Number     Number       Type             X           Y           Z
 ---------------------------------------------------------------------
      1          8           0        0.000000    0.000000    0.109542
      2          1           0        0.000000    0.000000   -0.876333
 ---------------------------------------------------------------------

 Unable to determine electronic state:  partially filled degenerate orbitals.
 Alpha  occ. eigenvalues --  -19.13060  -0.98141  -0.44138  -0.38040  -0.29943
 Alpha virt. eigenvalues --    0.07026   0.77006   0.81369   0.86393   0.91803
 Alpha virt. eigenvalues --    1.22091   1.67928   1.73061   1.74056   1.74148
 Alpha virt. eigenvalues --    2.39983
  Beta  occ. eigenvalues --  -19.10400  -0.91145  -0.41672  -0.27560
  Beta virt. eigenvalues --   -0.16171   0.08131   0.78697   0.88367   0.92433
  Beta virt. eigenvalues --    0.94200   1.26651   1.74610   1.75316   1.80879
  Beta virt. eigenvalues --    1.82069   2.43737

 Mulliken charges and spin densities:
               1          2
     1  O   -0.414540   1.032193
     2  H    0.414540  -0.032193
 Sum of Mulliken charges =   0.00000   1.00000

 Dipole moment (field-independent basis, Debye):
    X=              0.0000    Y=             -0.0000    Z=             -1.7534  Tot=              1.7534
 Quadrupole moment (field-independent basis, Debye-Ang):
   XX=             -5.2830   YY=             -6.4392   ZZ=             -4.4256
   XY=             -0.0000   XZ=              0.0000   YZ=             -0.0000

 1\1\GINC-NODE26\FOpt\UTPSSh\6-31G(d)\H1O1(2)\RPEVERATI\07-Oct-2020\0\\
 #P Opt(MaxCyc=100) TPSSh/6-31G* 5D 7F Integral=UltraFineGrid SCF=(NoSy
 mm,XQC,MaxCyc=120) IOp(1/33=1,3/174=1000000,3/175=2238200,3/177=045290
 0,3/178=4655000) EmpiricalDispersion=GD3BJ\\TS search on BH76.\\0,2\O,
 0.,0.,0.1161442363\H,0.,0.,-0.869730156\\Version=ES64L-G16RevA.03\HF=-
 75.7204381\S2=0.752202\S2-1=0.\S2A=0.750002\RMSD=2.309e-09\RMSF=3.328e
 -07\Dipole=0.,0.,-0.6898484\Quadrupole=0.0740579,-0.7855659,0.711508,0
 .,0.,0.\PG=C*V [C*(H1O1)]\\@

 Normal termination of Gaussian 16 at Wed Oct  7 14:43:46 2020.
