 Gaussian 16, Revision A.03,
 Gaussian 16:  ES64L-G16RevA.03 25-Dec-2016

 ----------------------------------------------------------------------
 #P Opt(MaxCyc=100) TPSSh/6-31G* 5D 7F Integral=UltraFineGrid SCF=(NoSy
 mm,XQC,MaxCyc=120) IOp(1/33=1,3/174=1000000,3/175=2238200,3/177=045290
 0,3/178=4655000) EmpiricalDispersion=GD3BJ
 ----------------------------------------------------------------------

 TstMul:  Mul=     1
 TstMul:  ICh=     0
 TstMul:  Mul=     1
 Symbolic Z-matrix:
 Charge =  0 Multiplicity = 1

 SCF Done:  E(RTPSSh) =  -56.5447629090     A.U. after    9 cycles
 SCF Done:  E(RTPSSh) =  -56.5450235086     A.U. after    7 cycles
 SCF Done:  E(RTPSSh) =  -56.5450574919     A.U. after    7 cycles
 Optimization completed.
    -- Stationary point found.

                         Standard orientation:
 ---------------------------------------------------------------------
 Center     Atomic      Atomic             Coordinates (Angstroms)
 Number     Number       Type             X           Y           Z
 ---------------------------------------------------------------------
      1          7           0        0.000000    0.000000    0.120621
      2          1           0        0.000000    0.938778   -0.281448
      3          1           0        0.813006   -0.469389   -0.281448
      4          1           0       -0.813006   -0.469389   -0.281448
 ---------------------------------------------------------------------

 The electronic state is 1-A1.
 Alpha  occ. eigenvalues --  -14.23173  -0.82369  -0.43183  -0.43183  -0.23256
 Alpha virt. eigenvalues --    0.08250   0.16715   0.16715   0.68876   0.68876
 Alpha virt. eigenvalues --    0.72339   0.91635   0.91635   0.93942   1.24440
 Alpha virt. eigenvalues --    1.67123   1.67123   1.94677   2.42695   2.42695

 Mulliken charges:
               1
     1  N   -0.916887
     2  H    0.305629
     3  H    0.305629
     4  H    0.305629
 Sum of Mulliken charges =  -0.00000

 Dipole moment (field-independent basis, Debye):
    X=             -0.0000    Y=             -0.0000    Z=             -1.9205  Tot=              1.9205
 Quadrupole moment (field-independent basis, Debye-Ang):
   XX=             -6.1433   YY=             -6.1433   ZZ=             -8.7771
   XY=             -0.0000   XZ=              0.0000   YZ=              0.0000

 Normal termination of Gaussian 16 at Wed Oct  7 14:43:06 2020.
