 Gaussian 16, Revision A.03,

 ----------------------------------------------------------------------
 #P Opt(TS,MaxCyc=50,NoEigenTest,MaxStep=10,AddRedundant) TPSSh/6-31G*
 5D 7F Integral=UltraFineGrid SCF=(NoSymm,XQC,MaxCyc=120) IOp(1/33=1,3/
 174=1000000,3/175=2238200,3/177=0452900,3/178=4655000) EmpiricalDisper
 sion=GD3BJ
 ----------------------------------------------------------------------

 TstMul:  Mul=     2
 TstMul:  ICh=     0
 TstMul:  Mul=     2
 Symbolic Z-matrix:
 Charge =  0 Multiplicity = 2

 SCF Done:  E(UTPSSh) =  -76.8907105282     A.U. after   14 cycles
 SCF Done:  E(UTPSSh) =  -76.8908334081     A.U. after   17 cycles
 SCF Done:  E(UTPSSh) =  -76.8910281338     A.U. after   14 cycles
 SCF Done:  E(UTPSSh) =  -76.8910748569     A.U. after   11 cycles
 SCF Done:  E(UTPSSh) =  -76.8910988813     A.U. after   15 cycles
 SCF Done:  E(UTPSSh) =  -76.8911668603     A.U. after   17 cycles
 SCF Done:  E(UTPSSh) =  -76.8909647061     A.U. after   14 cycles
 SCF Done:  E(UTPSSh) =  -76.8909416827     A.U. after   14 cycles
 SCF Done:  E(UTPSSh) =  -76.8909411111     A.U. after   12 cycles
 SCF Done:  E(UTPSSh) =  -76.8909412455     A.U. after    9 cycles
 Optimization completed.
    -- Stationary point found.
 Normal termination of Gaussian 16 at Wed Oct  7 14:45:13 2020.
 Gaussian 16:  ES64L-G16RevA.03 25-Dec-2016

 ----------------------------------------------------------------------
 #P Freq TPSSh/6-31G* 5D 7F Integral=UltraFineGrid SCF=(NoSymm,XQC,MaxC
 yc=120) IOp(1/33=1,3/174=1000000,3/175=2238200,3/177=0452900,3/178=465
 5000) EmpiricalDispersion=GD3BJ Geom=Check Guess=Read
 ----------------------------------------------------------------------

 TstMul:  Mul=     2
 TstMul:  ICh=     0
 TstMul:  Mul=     2
 Structure from the checkpoint file:  "MN_79_RKT02_BH76_TPSShDBJ_631Gs.chk"
 Charge =  0 Multiplicity = 2

                         Standard orientation:
 ---------------------------------------------------------------------
 Center     Atomic      Atomic             Coordinates (Angstroms)
 Number     Number       Type             X           Y           Z
 ---------------------------------------------------------------------
      1          8           0       -0.292654   -0.112111    0.000008
      2          1           0       -0.478429    0.852821   -0.000014
      3          1           0        0.994027   -0.078265   -0.000125
      4          1           0        1.825635    0.122332    0.000075
 ---------------------------------------------------------------------

 SCF Done:  E(UTPSSh) =  -76.8909412455     A.U. after    1 cycles

 The electronic state is 2-A.
 Alpha  occ. eigenvalues --  -19.10792  -0.97817  -0.51131  -0.42021  -0.30103
 Alpha  occ. eigenvalues --   -0.28976
 Alpha virt. eigenvalues --    0.08023   0.18508   0.65417   0.78440   0.82855
 Alpha virt. eigenvalues --    0.86646   0.99854   1.06439   1.42297   1.69495
 Alpha virt. eigenvalues --    1.73380   1.74584   2.04481   2.42729
  Beta  occ. eigenvalues --  -19.08905  -0.93243  -0.47107  -0.38556  -0.27471
  Beta virt. eigenvalues --   -0.15561   0.08952   0.21921   0.68837   0.79868
  Beta virt. eigenvalues --    0.87872   0.90055   1.04506   1.10329   1.45996
  Beta virt. eigenvalues --    1.74114   1.74684   1.78660   2.09856   2.45621

 Mulliken charges and spin densities:
               1          2
     1  O   -0.563864   0.683463
     2  H    0.405227  -0.017987
     3  H    0.152981  -0.121500
     4  H    0.005656   0.456023
 Sum of Mulliken charges =  -0.00000   1.00000

 Dipole moment (field-independent basis, Debye):
    X=              0.3938    Y=              1.6648    Z=             -0.0001  Tot=              1.7107
 Quadrupole moment (field-independent basis, Debye-Ang):
   XX=             -6.8077   YY=             -6.5618   ZZ=             -8.4907
   XY=             -0.8324   XZ=              0.0000   YZ=             -0.0000

  Exact polarizability:  22.100   0.574   6.877   0.001   0.000   2.605
 Approx polarizability:  30.266   2.187   9.099   0.001   0.000   2.833

 ******    1 imaginary frequencies (negative Signs) ******

                      1                      2                      3
                      A                      A                      A
 Frequencies --  -1098.1974               563.2170               693.7854
 Red. masses --      1.0952                 1.0192                 1.0172
 Frc consts  --      0.7782                 0.1905                 0.2885
 IR Inten    --    130.9352                22.4447                23.9784

                      4                      5                      6
                      A                      A                      A
 Frequencies --   1215.6350              2164.6602              3633.2053
 Red. masses --      1.0651                 1.0329                 1.0664
 Frc consts  --      0.9273                 2.8515                 8.2941
 IR Inten    --    135.0112                80.8255                 8.9317

 - Thermochemistry -
 -------------------
 Temperature   298.150 Kelvin.  Pressure   1.00000 Atm.
 Atom     1 has atomic number  8 and mass  15.99491

 Molecular mass:    19.01839 amu.
 Principal axes and moments of inertia in atomic units:
                           1         2         3
     Eigenvalues --     3.24565  20.27262  23.51826
           X            0.99949  -0.03183   0.00000
           Y            0.03183   0.99949   0.00000
           Z           -0.00000  -0.00000   1.00000
 This molecule is an asymmetric top.
 Rotational symmetry number  1.
 Rotational temperatures (Kelvin)     26.68619     4.27246     3.68284
 Rotational constants (GHZ):         556.05000    89.02359    76.73786
    1 imaginary frequencies ignored.
 Zero-point vibrational energy      49468.6 (Joules/Mol)
                                   11.82328 (Kcal/Mol)
 Warning -- explicit consideration of   1 degrees of freedom as
           vibrations may cause significant error
 Vibrational temperatures:    810.34   998.20  1749.03  3114.46  5227.37
          (Kelvin)

 Zero-point correction=                           0.018842 (Hartree/Particle)
 Thermal correction to Energy=                    0.021987
 Thermal correction to Enthalpy=                  0.022931
 Thermal correction to Gibbs Free Energy=        -0.001832
 Sum of electronic and zero-point Energies=            -76.872100
 Sum of electronic and thermal Energies=               -76.868955
 Sum of electronic and thermal Enthalpies=             -76.868010
 Sum of electronic and thermal Free Energies=          -76.892774

                     E (Thermal)             CV                S
                      KCal/Mol        Cal/Mol-Kelvin    Cal/Mol-Kelvin
 Total                   13.797              8.115             52.119
 Electronic               0.000              0.000              1.377
 Translational            0.889              2.981             34.771
 Rotational               0.889              2.981             15.100
 Vibrational             12.019              2.153              0.870
 Vibration     1          0.919              1.111              0.517

 Optimization completed.
    -- Stationary point found.

 1\1\GINC-NODE40\Freq\UTPSSh\6-31G(d)\H3O1(2)\RPEVERATI\07-Oct-2020\0\\
 #P Freq TPSSh/6-31G* 5D 7F Integral=UltraFineGrid SCF=(NoSymm,XQC,MaxC
 yc=120) IOp(1/33=1,3/174=1000000,3/175=2238200,3/177=0452900,3/178=465
 5000) EmpiricalDispersion=GD3BJ Geom=Check Guess=Read\\TS search on BH
 76.\\0,2\O,-0.2819412512,-0.1085586106,0.000236917\H,-0.4549491531,0.8
 58744116,-0.0000694567\H,1.0050746623,-0.0917184175,-0.0000716669\H,1.
 839260809,0.0978721408,-0.0000417936\\Version=ES64L-G16RevA.03\State=2
 -A\HF=-76.8909412\S2=0.760204\S2-1=0.\S2A=0.750021\RMSD=1.451e-09\RMSF

 Normal termination of Gaussian 16 at Wed Oct  7 14:45:38 2020.
