 Gaussian 16, Revision A.03,
 Gaussian 16:  ES64L-G16RevA.03 25-Dec-2016

 ----------------------------------------------------------------------
 #P Opt(MaxCyc=100) TPSSh/6-31G* 5D 7F Integral=UltraFineGrid SCF=(NoSy
 mm,XQC,MaxCyc=120) IOp(1/33=1,3/174=1000000,3/175=2238200,3/177=045290
 0,3/178=4655000) EmpiricalDispersion=GD3BJ
 ----------------------------------------------------------------------

 TstMul:  Mul=     1
 TstMul:  ICh=    -1
 TstMul:  Mul=     1
 Symbolic Z-matrix:
 Charge = -1 Multiplicity = 1

 SCF Done:  E(RTPSSh) =  -75.7109147128     A.U. after   10 cycles
 SCF Done:  E(RTPSSh) =  -75.7115857598     A.U. after    9 cycles
 SCF Done:  E(RTPSSh) =  -75.7116080882     A.U. after    7 cycles
 Optimization completed.
    -- Stationary point found.

                         Standard orientation:
 ---------------------------------------------------------------------
 Center     Atomic      Atomic             Coordinates (Angstroms)
 Number     Number       Type             X           Y           Z
 ---------------------------------------------------------------------
      1          8           0        0.000000    0.000000    0.110223
      2          1           0        0.000000    0.000000   -0.881785
 ---------------------------------------------------------------------

 The electronic state is 1-SG.
 Alpha  occ. eigenvalues --  -18.58899  -0.45626   0.02858   0.18643   0.18643
 Alpha virt. eigenvalues --    0.41404   1.18839   1.29741   1.29741   1.33883
 Alpha virt. eigenvalues --    1.66882   2.20041   2.20041   2.26204   2.26204
 Alpha virt. eigenvalues --    2.86284

 Mulliken charges:
               1
     1  O   -1.159025
     2  H    0.159025
 Sum of Mulliken charges =  -1.00000

 Dipole moment (field-independent basis, Debye):
    X=              0.0000    Y=             -0.0000    Z=             -1.1920  Tot=              1.1920
 Quadrupole moment (field-independent basis, Debye-Ang):
   XX=             -7.9789   YY=             -7.9789   ZZ=             -6.7969
   XY=              0.0000   XZ=              0.0000   YZ=             -0.0000

 Normal termination of Gaussian 16 at Wed Oct  7 14:43:29 2020.
