 Gaussian 16, Revision A.03,
 Gaussian 16:  ES64L-G16RevA.03 25-Dec-2016

 ----------------------------------------------------------------------
 #P Opt(MaxCyc=100) TPSSh/6-31G* 5D 7F Integral=UltraFineGrid SCF=(NoSy
 mm,XQC,MaxCyc=120) IOp(1/33=1,3/174=1000000,3/175=2238200,3/177=045290
 0,3/178=4655000) EmpiricalDispersion=GD3BJ
 ----------------------------------------------------------------------

 TstMul:  Mul=     2
 TstMul:  ICh=     0
 TstMul:  Mul=     2
 Symbolic Z-matrix:
 Charge =  0 Multiplicity = 2

 SCF Done:  E(UTPSSh) =  -342.501919303     A.U. after   13 cycles
 SCF Done:  E(UTPSSh) =  -342.501975418     A.U. after    8 cycles
 Optimization completed.
    -- Stationary point found.

                         Standard orientation:
 ---------------------------------------------------------------------
 Center     Atomic      Atomic             Coordinates (Angstroms)
 Number     Number       Type             X           Y           Z
 ---------------------------------------------------------------------
      1         15           0        0.000000    0.000000    0.116745
      2          1           0        0.000000    1.022928   -0.875587
      3          1           0       -0.000000   -1.022928   -0.875587
 ---------------------------------------------------------------------

 The electronic state is 2-B1.
 Alpha  occ. eigenvalues --  -76.93510  -6.49472  -4.64847  -4.64267  -4.63915
 Alpha  occ. eigenvalues --   -0.62289  -0.37964  -0.29871  -0.24203
 Alpha virt. eigenvalues --    0.01869   0.07187   0.23972   0.28212   0.29776
 Alpha virt. eigenvalues --    0.30625   0.62804   0.63552   0.64632   0.67495
 Alpha virt. eigenvalues --    0.72642   0.98531   1.15976
  Beta  occ. eigenvalues --  -76.93087  -6.49039  -4.64001  -4.63675  -4.63495
  Beta  occ. eigenvalues --   -0.59193  -0.37436  -0.28299
  Beta virt. eigenvalues --   -0.12965   0.02723   0.09919   0.26245   0.29100
  Beta virt. eigenvalues --    0.31581   0.34004   0.66297   0.67964   0.69079
  Beta virt. eigenvalues --    0.69709   0.78131   1.01367   1.18416

 Mulliken charges and spin densities:
               1          2
     1  P   -0.003298   1.077756
     2  H    0.001649  -0.038878
     3  H    0.001649  -0.038878
 Sum of Mulliken charges =   0.00000   1.00000

 Dipole moment (field-independent basis, Debye):
    X=              0.0000    Y=             -0.0000    Z=             -0.9103  Tot=              0.9103
 Quadrupole moment (field-independent basis, Debye-Ang):
   XX=            -14.8612   YY=            -13.9142   ZZ=            -15.4436
   XY=             -0.0000   XZ=             -0.0000   YZ=             -0.0000

 1\1\GINC-NODE06\FOpt\UTPSSh\6-31G(d)\H2P1(2)\RPEVERATI\07-Oct-2020\0\\
 #P Opt(MaxCyc=100) TPSSh/6-31G* 5D 7F Integral=UltraFineGrid SCF=(NoSy
 mm,XQC,MaxCyc=120) IOp(1/33=1,3/174=1000000,3/175=2238200,3/177=045290
 0,3/178=4655000) EmpiricalDispersion=GD3BJ\\TS search on BH76.\\0,2\P,
 0.,0.,0.1218222282\H,0.,1.0229278728,-0.8705099124\H,0.,-1.0229278728,
 -0.8705099124\\Version=ES64L-G16RevA.03\State=2-B1\HF=-342.5019754\S2=
 0.755315\S2-1=0.\S2A=0.750008\RMSD=6.535e-09\RMSF=4.328e-05\Dipole=0.,
 0.,-0.3581301\Quadrupole=-0.0903586,0.6136992,-0.5233406,0.,0.,0.\PG=C

 Normal termination of Gaussian 16 at Wed Oct  7 14:43:38 2020.
