 Gaussian 16, Revision A.03,
 Gaussian 16:  ES64L-G16RevA.03 25-Dec-2016

 ----------------------------------------------------------------------
 #P TPSSh/6-31G* 5D 7F Integral=UltraFineGrid SCF=(NoSymm,XQC,MaxCyc=12
 0) IOp(1/33=1,3/174=1000000,3/175=2238200,3/177=0452900,3/178=4655000)
  EmpiricalDispersion=GD3BJ Stable=Opt
 ----------------------------------------------------------------------

 TstMul:  Mul=     3
 TstMul:  ICh=     0
 TstMul:  Mul=     3
 Symbolic Z-matrix:
 Charge =  0 Multiplicity = 3

                         Standard orientation:
 ---------------------------------------------------------------------
 Center     Atomic      Atomic             Coordinates (Angstroms)
 Number     Number       Type             X           Y           Z
 ---------------------------------------------------------------------
      1          8           0        0.000000    0.000000    0.000000
 ---------------------------------------------------------------------

 SCF Done:  E(UTPSSh) =  -75.0638728418     A.U. after    9 cycles

 Unable to determine electronic state:  partially filled degenerate orbitals.
 Alpha  occ. eigenvalues --  -19.20623  -0.98237  -0.42178  -0.42178  -0.33864
 Alpha virt. eigenvalues --    0.78945   0.78945   0.83820   0.90911   1.66000
 Alpha virt. eigenvalues --    1.66000   1.71003   1.71003   1.72867
  Beta  occ. eigenvalues --  -19.15121  -0.82102  -0.29681
  Beta virt. eigenvalues --   -0.16559  -0.16559   0.87765   0.92464   0.92464
  Beta virt. eigenvalues --    1.00395   1.78719   1.78719   1.79809   1.80970
  Beta virt. eigenvalues --    1.80970

 Mulliken charges and spin densities:
               1          2
     1  O    0.000000   2.000000
 Sum of Mulliken charges =   0.00000   2.00000

 Dipole moment (field-independent basis, Debye):
    X=             -0.0000    Y=             -0.0000    Z=              0.0000  Tot=              0.0000
 Quadrupole moment (field-independent basis, Debye-Ang):
   XX=             -5.6682   YY=             -4.5395   ZZ=             -4.5395
   XY=             -0.0000   XZ=              0.0000   YZ=             -0.0000

 Normal termination of Gaussian 16 at Wed Oct  7 14:42:55 2020.
