 Gaussian 16, Revision A.03,
 Gaussian 16:  ES64L-G16RevA.03 25-Dec-2016

 ----------------------------------------------------------------------
 #P Opt(MaxCyc=100) TPSSh/6-31G* 5D 7F Integral=UltraFineGrid SCF=(NoSy
 mm,XQC,MaxCyc=120) IOp(1/33=1,3/174=1000000,3/175=2238200,3/177=045290
 0,3/178=4655000) EmpiricalDispersion=GD3BJ
 ----------------------------------------------------------------------

 TstMul:  Mul=     1
 TstMul:  ICh=     0
 TstMul:  Mul=     1
 Symbolic Z-matrix:
 Charge =  0 Multiplicity = 1

 SCF Done:  E(RTPSSh) =  -343.139222359     A.U. after   10 cycles
 SCF Done:  E(RTPSSh) =  -343.139282275     A.U. after    7 cycles
 SCF Done:  E(RTPSSh) =  -343.139283131     A.U. after    6 cycles
 Optimization completed.
    -- Stationary point found.

                         Standard orientation:
 ---------------------------------------------------------------------
 Center     Atomic      Atomic             Coordinates (Angstroms)
 Number     Number       Type             X           Y           Z
 ---------------------------------------------------------------------
      1         15           0        0.000000    0.000000    0.128178
      2          1           0        0.000000    1.192388   -0.640888
      3          1           0        1.032639   -0.596194   -0.640888
      4          1           0       -1.032639   -0.596194   -0.640888
 ---------------------------------------------------------------------

 The electronic state is 1-A1.
 Alpha  occ. eigenvalues --  -76.91893  -6.48112  -4.63042  -4.63042  -4.62559
 Alpha  occ. eigenvalues --   -0.63078  -0.37687  -0.37687  -0.26345
 Alpha virt. eigenvalues --    0.02479   0.02479   0.11969   0.28679   0.28679
 Alpha virt. eigenvalues --    0.30555   0.38727   0.65215   0.65215   0.67603
 Alpha virt. eigenvalues --    0.68047   0.68047   0.96941   1.18561   1.18561

 Mulliken charges:
               1
     1  P   -0.095943
     2  H    0.031981
     3  H    0.031981
     4  H    0.031981
 Sum of Mulliken charges =  -0.00000

 Dipole moment (field-independent basis, Debye):
    X=              0.0000    Y=             -0.0000    Z=             -1.0015  Tot=              1.0015
 Quadrupole moment (field-independent basis, Debye-Ang):
   XX=            -14.5701   YY=            -14.5701   ZZ=            -17.0069
   XY=              0.0000   XZ=              0.0000   YZ=             -0.0000

 Normal termination of Gaussian 16 at Wed Oct  7 14:43:48 2020.
