 Gaussian 16, Revision A.03,

 ----------------------------------------------------------------------
 #P Opt(TS,MaxCyc=50,NoEigenTest,MaxStep=10,AddRedundant) TPSSh/6-31G*
 5D 7F Integral=UltraFineGrid SCF=(NoSymm,XQC,MaxCyc=120) IOp(1/33=1,3/
 174=1000000,3/175=2238200,3/177=0452900,3/178=4655000) EmpiricalDisper
 sion=GD3BJ
 ----------------------------------------------------------------------

 TstMul:  Mul=     2
 TstMul:  ICh=     0
 TstMul:  Mul=     2
 Symbolic Z-matrix:
 Charge =  0 Multiplicity = 2

 SCF Done:  E(UTPSSh) =  -116.235927363     A.U. after   14 cycles
 SCF Done:  E(UTPSSh) =  -116.235931685     A.U. after   10 cycles
 SCF Done:  E(UTPSSh) =  -116.235962514     A.U. after   10 cycles
 SCF Done:  E(UTPSSh) =  -116.235793327     A.U. after   15 cycles
 SCF Done:  E(UTPSSh) =  -116.235801691     A.U. after   14 cycles
 SCF Done:  E(UTPSSh) =  -116.235861669     A.U. after   14 cycles
 SCF Done:  E(UTPSSh) =  -116.235862382     A.U. after   10 cycles
 SCF Done:  E(UTPSSh) =  -116.235862505     A.U. after   10 cycles
 SCF Done:  E(UTPSSh) =  -116.235862949     A.U. after   11 cycles
 SCF Done:  E(UTPSSh) =  -116.235864900     A.U. after   14 cycles
 SCF Done:  E(UTPSSh) =  -116.235866161     A.U. after   15 cycles
 SCF Done:  E(UTPSSh) =  -116.235867745     A.U. after   10 cycles
 SCF Done:  E(UTPSSh) =  -116.235868016     A.U. after   10 cycles
 Optimization completed.
    -- Stationary point found.
 Normal termination of Gaussian 16 at Sun Oct 11 11:59:19 2020.
 Gaussian 16:  ES64L-G16RevA.03 25-Dec-2016

 ----------------------------------------------------------------------
 #P Freq TPSSh/6-31G* 5D 7F Integral=UltraFineGrid SCF=(NoSymm,XQC,MaxC
 yc=120) IOp(1/33=1,3/174=1000000,3/175=2238200,3/177=0452900,3/178=465
 5000) EmpiricalDispersion=GD3BJ Geom=Check Guess=Read
 ----------------------------------------------------------------------

 TstMul:  Mul=     2
 TstMul:  ICh=     0
 TstMul:  Mul=     2
 Structure from the checkpoint file:  "MN_81_RKT04_BH76_TPSShDBJ_631Gs.chk"
 Charge =  0 Multiplicity = 2

                         Standard orientation:
 ---------------------------------------------------------------------
 Center     Atomic      Atomic             Coordinates (Angstroms)
 Number     Number       Type             X           Y           Z
 ---------------------------------------------------------------------
      1          6           0       -1.216722    0.010625    0.000302
      2          8           0        1.287339   -0.109867    0.000143
      3          1           0        0.059935   -0.137396    0.014286
      4          1           0       -1.504328    0.166356    1.039841
      5          1           0       -1.425970    0.864154   -0.644436
      6          1           0       -1.565338   -0.936439   -0.412400
      7          1           0        1.437324    0.858508   -0.000245
 ---------------------------------------------------------------------

 SCF Done:  E(UTPSSh) =  -116.235868016     A.U. after    1 cycles

 The electronic state is 2-A.
 Alpha  occ. eigenvalues --  -19.07539 -10.13545  -0.95525  -0.69630  -0.46831
 Alpha  occ. eigenvalues --   -0.40654  -0.40551  -0.38448  -0.26514  -0.24952
 Alpha virt. eigenvalues --    0.08604   0.12262   0.15903   0.16139   0.28041
 Alpha virt. eigenvalues --    0.51584   0.51852   0.54318   0.76857   0.81888
 Alpha virt. eigenvalues --    0.89038   0.89104   0.90894   0.91430   0.97587

  Beta  occ. eigenvalues --  -19.05930 -10.12557  -0.91764  -0.67265  -0.44097
  Beta  occ. eigenvalues --   -0.40063  -0.39889  -0.34936  -0.25268
  Beta virt. eigenvalues --   -0.12912   0.09358   0.13198   0.16743   0.16989
  Beta virt. eigenvalues --    0.30051   0.52265   0.52484   0.58764   0.77620
  Beta virt. eigenvalues --    0.83776   0.90824   0.90996   0.92435   0.93430

 Mulliken charges and spin densities:
               1          2
     1  C   -0.677953   0.575196
     2  O   -0.659529   0.562198
     3  H    0.363844  -0.076784
     4  H    0.195154  -0.016151
     5  H    0.188524  -0.018299
     6  H    0.201573  -0.013588
     7  H    0.388387  -0.012572
 Sum of Mulliken charges =  -0.00000   1.00000

 Dipole moment (field-independent basis, Debye):
    X=             -1.4242    Y=              1.5332    Z=              0.0020  Tot=              2.0927
 Quadrupole moment (field-independent basis, Debye-Ang):
   XX=            -14.5867   YY=            -12.5009   ZZ=            -14.3977
   XY=              2.6263   XZ=             -0.0057   YZ=              0.0179

  Exact polarizability:  34.932   1.116  18.138  -0.060  -0.008  14.585
 Approx polarizability:  46.711  -0.168  23.429  -0.138  -0.017  17.654

 ******    2 imaginary frequencies (negative Signs) ******

                      1                      2                      3
                      A                      A                      A
 Frequencies --  -1456.5984                -9.3586               326.8473
 Red. masses --      1.0698                 1.0441                 1.0745
 Frc consts  --      1.3373                 0.0001                 0.0676
 IR Inten    --    486.0079                79.7399                12.3140

                      4                      5                      6
                      A                      A                      A
 Frequencies --    382.6248               590.7495               902.1700
 Red. masses --      1.1104                 3.5762                 1.1681
 Frc consts  --      0.0958                 0.7353                 0.5602
 IR Inten    --     11.7773                21.1806                80.6222

                      7                      8                      9
                      A                      A                      A
 Frequencies --   1112.6480              1249.9854              1463.7283
 Red. masses --      1.0863                 1.1648                 1.1045
 Frc consts  --      0.7924                 1.0723                 1.3943
 IR Inten    --     40.9952                 0.1191                37.1551

                     10                     11                     12
                      A                      A                      A
 Frequencies --   1479.7144              1518.0039              3092.5621
 Red. masses --      1.0697                 1.0247                 1.0206
 Frc consts  --      1.3800                 1.3912                 5.7510
 IR Inten    --      2.6056                52.9318                 1.9405

                     13                     14                     15
                      A                      A                      A
 Frequencies --   3222.5698              3225.9424              3656.0842
 Red. masses --      1.1088                 1.1093                 1.0662
 Frc consts  --      6.7842                 6.8018                 8.3973
 IR Inten    --     11.9633                12.7353                10.9758

 - Thermochemistry -
 -------------------
 Temperature   298.150 Kelvin.  Pressure   1.00000 Atm.
 Atom     1 has atomic number  6 and mass  12.00000

 Molecular mass:    33.03404 amu.
 Principal axes and moments of inertia in atomic units:
                           1         2         3
     Eigenvalues --    15.19644 194.96552 198.16396
           X            0.99975   0.02238   0.00002
           Y           -0.02238   0.99975   0.00006
           Z           -0.00002  -0.00006   1.00000
 This molecule is an asymmetric top.
 Rotational symmetry number  1.
 Rotational temperatures (Kelvin)      5.69962     0.44425     0.43708
 Rotational constants (GHZ):         118.76082     9.25672     9.10731
    2 imaginary frequencies ignored.
 Zero-point vibrational energy     132926.8 (Joules/Mol)
                                   31.77027 (Kcal/Mol)
 Warning -- explicit consideration of   3 degrees of freedom as
           vibrations may cause significant error
 Vibrational temperatures:    470.26   550.51   849.96  1298.02  1600.85
          (Kelvin)           1798.45  2105.98  2128.98  2184.07  4449.51
                             4636.56  4641.41  5260.29

 Zero-point correction=                           0.050629 (Hartree/Particle)
 Thermal correction to Energy=                    0.054448
 Thermal correction to Enthalpy=                  0.055392
 Thermal correction to Gibbs Free Energy=         0.026013
 Sum of electronic and zero-point Energies=           -116.185239
 Sum of electronic and thermal Energies=              -116.181420
 Sum of electronic and thermal Enthalpies=            -116.180476
 Sum of electronic and thermal Free Energies=         -116.209855

                     E (Thermal)             CV                S
                      KCal/Mol        Cal/Mol-Kelvin    Cal/Mol-Kelvin
 Total                   34.166             11.319             61.834
 Electronic               0.000              0.000              1.377
 Translational            0.889              2.981             36.416
 Rotational               0.889              2.981             21.001
 Vibrational             32.389              5.357              3.039
 Vibration     1          0.711              1.622              1.276
 Vibration     2          0.752              1.507              1.029
 Vibration     3          0.948              1.051              0.466

                           ! Non-Optimized Parameters !
 Normal termination of Gaussian 16 at Sun Oct 11 11:59:41 2020.
