 Gaussian 16, Revision A.03,

 ----------------------------------------------------------------------
 #P Opt(TS,MaxCyc=150,NoEigenTest,MaxStep=10,AddRedundant) TPSSh/6-31G*
  5D 7F Integral=UltraFineGrid SCF=(NoSymm,XQC,MaxCyc=120) IOp(1/33=1,3
 /174=1000000,3/175=2238200,3/177=0452900,3/178=4655000) EmpiricalDispe
 rsion=GD3BJ
 ----------------------------------------------------------------------

 TstMul:  Mul=     2
 TstMul:  ICh=     0
 TstMul:  Mul=     2
 Symbolic Z-matrix:
 Charge =  0 Multiplicity = 2

 SCF Done:  E(UTPSSh) =  -155.558657601     A.U. after   17 cycles
 SCF Done:  E(UTPSSh) =  -155.558670276     A.U. after   13 cycles
 SCF Done:  E(UTPSSh) =  -155.558679319     A.U. after   11 cycles
 SCF Done:  E(UTPSSh) =  -155.558751334     A.U. after   15 cycles
 SCF Done:  E(UTPSSh) =  -155.558865446     A.U. after   16 cycles
 SCF Done:  E(UTPSSh) =  -155.558971316     A.U. after   16 cycles
 SCF Done:  E(UTPSSh) =  -155.558987120     A.U. after   15 cycles
 SCF Done:  E(UTPSSh) =  -155.559002944     A.U. after   14 cycles
 SCF Done:  E(UTPSSh) =  -155.559015900     A.U. after   17 cycles
 SCF Done:  E(UTPSSh) =  -155.559017687     A.U. after   13 cycles
 SCF Done:  E(UTPSSh) =  -155.559018546     A.U. after   13 cycles
 SCF Done:  E(UTPSSh) =  -155.559018803     A.U. after   10 cycles
 Optimization completed.
    -- Stationary point found.
 Normal termination of Gaussian 16 at Wed Oct  7 14:47:26 2020.
 Gaussian 16:  ES64L-G16RevA.03 25-Dec-2016

 ----------------------------------------------------------------------
 #P Freq TPSSh/6-31G* 5D 7F Integral=UltraFineGrid SCF=(NoSymm,XQC,MaxC
 yc=120) IOp(1/33=1,3/174=1000000,3/175=2238200,3/177=0452900,3/178=465
 5000) EmpiricalDispersion=GD3BJ Geom=Check Guess=Read
 ----------------------------------------------------------------------

 TstMul:  Mul=     2
 TstMul:  ICh=     0
 TstMul:  Mul=     2
 Structure from the checkpoint file:  "MN_85_RKT09_BH76_TPSShDBJ_631Gs.chk"
 Charge =  0 Multiplicity = 2

                         Standard orientation:
 ---------------------------------------------------------------------
 Center     Atomic      Atomic             Coordinates (Angstroms)
 Number     Number       Type             X           Y           Z
 ---------------------------------------------------------------------
      1          6           0        1.435414   -0.464397    0.016344
      2          6           0        0.479573    0.708950   -0.011175
      3          8           0       -1.854224   -0.255446   -0.101711
      4          1           0        1.229037   -1.126456    0.863600
      5          1           0        1.365502   -1.054628   -0.902695
      6          1           0        2.472879   -0.113230    0.111533
      7          1           0        0.456036    1.295976    0.911410
      8          1           0        0.577107    1.359072   -0.885087
      9          1           0       -0.667940    0.246202   -0.139529
     10          1           0       -2.088753   -0.030684    0.823449
 ---------------------------------------------------------------------

 SCF Done:  E(UTPSSh) =  -155.559018803     A.U. after    1 cycles

 The electronic state is 2-A.
 Alpha  occ. eigenvalues --  -19.07247 -10.13497 -10.11895  -0.94701  -0.74933
 Alpha  occ. eigenvalues --   -0.61219  -0.46456  -0.43624  -0.40212  -0.37460
 Alpha  occ. eigenvalues --   -0.36272  -0.34456  -0.26047  -0.24033
 Alpha virt. eigenvalues --    0.08417   0.11808   0.14310   0.14721   0.16644
 Alpha virt. eigenvalues --    0.18503   0.22358   0.28931   0.49620   0.53038
 Alpha virt. eigenvalues --    0.54862   0.60179   0.63085   0.66117   0.81038

  Beta  occ. eigenvalues --  -19.05529 -10.12632 -10.11919  -0.90664  -0.73849
  Beta  occ. eigenvalues --   -0.59990  -0.44039  -0.43126  -0.39133  -0.36479
  Beta  occ. eigenvalues --   -0.34296  -0.33171  -0.24694
  Beta virt. eigenvalues --   -0.12433   0.09026   0.12252   0.14915   0.15169
  Beta virt. eigenvalues --    0.16952   0.18934   0.23106   0.30818   0.50057
  Beta virt. eigenvalues --    0.53345   0.55770   0.62961   0.63602   0.66949

 Mulliken charges and spin densities:
               1          2
     1  C   -0.471255  -0.021814
     2  C   -0.500696   0.483783
     3  O   -0.640879   0.609502
     4  H    0.172565   0.004453
     5  H    0.180176   0.003403
     6  H    0.170466   0.029894
     7  H    0.174203  -0.013397
     8  H    0.188244  -0.008475
     9  H    0.340672  -0.072834
    10  H    0.386505  -0.014515
 Sum of Mulliken charges =  -0.00000   1.00000

 Dipole moment (field-independent basis, Debye):
    X=              1.4020    Y=              0.8288    Z=              1.4329  Tot=              2.1692
 Quadrupole moment (field-independent basis, Debye-Ang):
   XX=            -21.8004   YY=            -20.8787   ZZ=            -19.0250
   XY=             -0.9544   XZ=             -3.4905   YZ=             -0.0291

  Exact polarizability:  48.877   4.458  27.513  -1.548   0.470  27.489
 Approx polarizability:  65.293   9.761  35.993  -0.445   1.430  37.286

 ******    1 imaginary frequencies (negative Signs) ******

                      1                      2                      3
                      A                      A                      A
 Frequencies --  -1048.9331                50.3751               119.3022
 Red. masses --      1.1351                 1.0661                 2.9413
 Frc consts  --      0.7358                 0.0016                 0.0247
 IR Inten    --    610.3147                90.2372                 9.6842

                      4                      5                      6
                      A                      A                      A
 Frequencies --    177.3616               406.0228               650.5468
 Red. masses --      1.1012                 1.1103                 2.6023
 Frc consts  --      0.0204                 0.1078                 0.6489
 IR Inten    --      3.9625                 7.1143                64.1503

                      7                      8                      9
                      A                      A                      A
 Frequencies --    798.2682               829.1680               950.7936
 Red. masses --      1.1449                 1.0461                 1.1656
 Frc consts  --      0.4298                 0.4238                 0.6208
 IR Inten    --     29.3353                22.8825               139.9496

                     10                     11                     12
                      A                      A                      A
 Frequencies --   1032.8108              1134.8508              1248.9205
 Red. masses --      2.6211                 1.3892                 1.3916
 Frc consts  --      1.6473                 1.0541                 1.2789
 IR Inten    --      5.0361                14.8205                 0.9661

                     13                     14                     15
                      A                      A                      A
 Frequencies --   1292.9448              1437.2673              1480.4806
 Red. masses --      1.2225                 1.2050                 1.0363
 Frc consts  --      1.2041                 1.4666                 1.3383
 IR Inten    --      3.9911                 1.5899                35.9020

                     16                     17                     18
                      A                      A                      A
 Frequencies --   1506.6093              1526.8523              1536.1773
 Red. masses --      1.1238                 1.0417                 1.0507
 Frc consts  --      1.5029                 1.4308                 1.4609
 IR Inten    --      7.8705                 7.5904                 3.8033

                     19                     20                     21
                      A                      A                      A
 Frequencies --   3034.3919              3089.2909              3106.1295
 Red. masses --      1.0439                 1.0571                 1.0868
 Frc consts  --      5.6629                 5.9443                 6.1780
 IR Inten    --     18.3861                11.0211                32.6832

                     22                     23                     24
                      A                      A                      A
 Frequencies --   3131.3960              3165.5211              3647.7157
 Red. masses --      1.1029                 1.1082                 1.0665
 Frc consts  --      6.3716                 6.5428                 8.3607
 IR Inten    --      8.4701                39.3115                11.4931

 - Thermochemistry -
 -------------------
 Temperature   298.150 Kelvin.  Pressure   1.00000 Atm.
 Atom     1 has atomic number  6 and mass  12.00000

 Molecular mass:    47.04969 amu.
 Principal axes and moments of inertia in atomic units:
                           1         2         3
     Eigenvalues --    70.32556 361.79193 403.21891
           X            0.99963  -0.02185  -0.01650
           Y            0.02174   0.99974  -0.00645
           Z            0.01664   0.00609   0.99984
 This molecule is an asymmetric top.
 Rotational symmetry number  1.
 Rotational temperatures (Kelvin)      1.23161     0.23940     0.21481
 Rotational constants (GHZ):          25.66266     4.98834     4.47583
    1 imaginary frequencies ignored.
 Zero-point vibrational energy     211459.1 (Joules/Mol)
                                   50.53993 (Kcal/Mol)
 Warning -- explicit consideration of   4 degrees of freedom as
           vibrations may cause significant error
 Vibrational temperatures:     72.48   171.65   255.18   584.18   935.99
          (Kelvin)           1148.53  1192.99  1367.98  1485.98  1632.80
                             1796.92  1860.26  2067.91  2130.08  2167.67
                             2196.80  2210.22  4365.81  4444.80  4469.03
                             4505.38  4554.48  5248.25

 Zero-point correction=                           0.080541 (Hartree/Particle)
 Thermal correction to Energy=                    0.086239
 Thermal correction to Enthalpy=                  0.087183
 Thermal correction to Gibbs Free Energy=         0.051530
 Sum of electronic and zero-point Energies=           -155.478478
 Sum of electronic and thermal Energies=              -155.472780
 Sum of electronic and thermal Enthalpies=            -155.471836
 Sum of electronic and thermal Free Energies=         -155.507489

                     E (Thermal)             CV                S
                      KCal/Mol        Cal/Mol-Kelvin    Cal/Mol-Kelvin
 Total                   54.116             17.120             75.038
 Electronic               0.000              0.000              1.377
 Translational            0.889              2.981             37.471
 Rotational               0.889              2.981             23.843
 Vibrational             52.338             11.159             12.347
 Vibration     1          0.595              1.977              4.803
 Vibration     2          0.609              1.933              3.112
 Vibration     3          0.628              1.870              2.356
 Vibration     4          0.771              1.457              0.941

                           ! Non-Optimized Parameters !
 Normal termination of Gaussian 16 at Wed Oct  7 14:48:28 2020.
