 Gaussian 16, Revision A.03,

 ----------------------------------------------------------------------
 #P Opt(TS,MaxCyc=50,NoEigenTest,MaxStep=10,AddRedundant) TPSSh/6-31G*
 5D 7F Integral=UltraFineGrid SCF=(NoSymm,XQC,MaxCyc=120) IOp(1/33=1,3/
 174=1000000,3/175=2238200,3/177=0452900,3/178=4655000) EmpiricalDisper
 sion=GD3BJ
 ----------------------------------------------------------------------

 TstMul:  Mul=     2
 TstMul:  ICh=     0
 TstMul:  Mul=     2
 Symbolic Z-matrix:
 Charge =  0 Multiplicity = 2

 SCF Done:  E(UTPSSh) =  -1.67014572912     A.U. after  121 cycles
 SCF Done:  E(UTPSSh) =  -1.67027171278     a.u. after   23 cycles
 SCF Done:  E(UTPSSh) =  -1.67027785229     A.U. after    7 cycles
 Optimization completed.
    -- Stationary point found.
 Normal termination of Gaussian 16 at Wed Oct  7 14:43:45 2020.
 Gaussian 16:  ES64L-G16RevA.03 25-Dec-2016

 ----------------------------------------------------------------------
 #P Freq TPSSh/6-31G* 5D 7F Integral=UltraFineGrid SCF=(NoSymm,XQC,MaxC
 yc=120) IOp(1/33=1,3/174=1000000,3/175=2238200,3/177=0452900,3/178=465
 5000) EmpiricalDispersion=GD3BJ Geom=Check Guess=Read
 ----------------------------------------------------------------------

 TstMul:  Mul=     2
 TstMul:  ICh=     0
 TstMul:  Mul=     2
 Structure from the checkpoint file:  "MN_82_RKT06_BH76_TPSShDBJ_631Gs.chk"
 Charge =  0 Multiplicity = 2

                         Standard orientation:
 ---------------------------------------------------------------------
 Center     Atomic      Atomic             Coordinates (Angstroms)
 Number     Number       Type             X           Y           Z
 ---------------------------------------------------------------------
      1          1           0        0.000000    0.000000    0.000000
      2          1           0        0.000000    0.000000    0.932020
      3          1           0        0.000000    0.000000   -0.932020
 ---------------------------------------------------------------------

 SCF Done:  E(UTPSSh) =  -1.67027785229     A.U. after    1 cycles

 The electronic state is 2-SGU.
 Alpha  occ. eigenvalues --   -0.49848  -0.25037
 Alpha virt. eigenvalues --    0.14418   0.68209   0.76168   1.03505
  Beta  occ. eigenvalues --   -0.44594
  Beta virt. eigenvalues --   -0.04982   0.22065   0.78720   1.31704   1.87165

 Mulliken charges and spin densities:
               1          2
     1  H   -0.112847  -0.219641
     2  H    0.056423   0.609821
     3  H    0.056423   0.609821
 Sum of Mulliken charges =  -0.00000   1.00000

 Dipole moment (field-independent basis, Debye):
    X=              0.0000    Y=              0.0000    Z=              0.0000  Tot=              0.0000
 Quadrupole moment (field-independent basis, Debye-Ang):
   XX=             -3.2912   YY=             -3.2912   ZZ=             -3.2835
   XY=              0.0000   XZ=             -0.0000   YZ=              0.0000

  Exact polarizability:   0.000   0.000   0.000  -0.000   0.000  19.216
 Approx polarizability:   0.000  -0.000  -0.000  -0.000  -0.000  21.935

 ******    1 imaginary frequencies (negative Signs) ******

                      1                      2                      3
                     SGU                    PIU                    PIU
 Frequencies --  -1962.3704              1100.2676              1100.2676
 Red. masses --      1.0078                 1.0078                 1.0078
 Frc consts  --      2.2866                 0.7188                 0.7188
 IR Inten    --     10.8141                10.3403                10.3403

                      4
                     SGG
 Frequencies --   2092.8301
 Red. masses --      1.0078
 Frc consts  --      2.6008
 IR Inten    --      0.0000

 - Thermochemistry -
 -------------------
 Temperature   298.150 Kelvin.  Pressure   1.00000 Atm.
 Atom     1 has atomic number  1 and mass   1.00783

 Molecular mass:     3.02348 amu.
 Principal axes and moments of inertia in atomic units:
                           1         2         3
     Eigenvalues --     0.00000   6.25264   6.25264
           X           -0.00000   1.00000   0.00000
           Y            0.00000   0.00000   1.00000
           Z            1.00000   0.00000   0.00000
 This molecule is a prolate symmetric top.
 Rotational symmetry number  2.
 Rotational temperature (Kelvin)     13.85237
 Rotational constant (GHZ):         288.636608
    1 imaginary frequencies ignored.
 Zero-point vibrational energy      25680.0 (Joules/Mol)
                                    6.13767 (Kcal/Mol)
 Vibrational temperatures:   1583.04  1583.04  3011.12
          (Kelvin)

 Zero-point correction=                           0.009781 (Hartree/Particle)
 Thermal correction to Energy=                    0.012192
 Thermal correction to Enthalpy=                  0.013136
 Thermal correction to Gibbs Free Energy=        -0.004682
 Sum of electronic and zero-point Energies=             -1.660497
 Sum of electronic and thermal Energies=                -1.658086
 Sum of electronic and thermal Enthalpies=              -1.657142
 Sum of electronic and thermal Free Energies=           -1.674960

                     E (Thermal)             CV                S
                      KCal/Mol        Cal/Mol-Kelvin    Cal/Mol-Kelvin
 Total                    7.650              5.536             37.501
 Electronic               0.000              0.000              1.377
 Translational            0.889              2.981             29.289
 Rotational               0.592              1.987              6.709
 Vibrational              6.169              0.568              0.125

 Optimization completed.
    -- Stationary point found.
 Normal termination of Gaussian 16 at Wed Oct  7 14:44:01 2020.
