 Gaussian 16, Revision A.03,

 ----------------------------------------------------------------------
 #P Opt(TS,MaxCyc=50,NoEigenTest,MaxStep=10,AddRedundant) TPSSh/6-31G*
 5D 7F Integral=UltraFineGrid SCF=(NoSymm,XQC,MaxCyc=120) IOp(1/33=1,3/
 174=1000000,3/175=2238200,3/177=0452900,3/178=4655000) EmpiricalDisper
 sion=GD3BJ
 ----------------------------------------------------------------------

 TstMul:  Mul=     3
 TstMul:  ICh=     0
 TstMul:  Mul=     3
 Symbolic Z-matrix:
 Charge =  0 Multiplicity = 3

 SCF Done:  E(UTPSSh) =  -76.2213864603     A.U. after   13 cycles
 SCF Done:  E(UTPSSh) =  -76.2217215422     A.U. after   12 cycles
 SCF Done:  E(UTPSSh) =  -76.2209835999     A.U. after   12 cycles
 SCF Done:  E(UTPSSh) =  -76.2206857372     A.U. after   11 cycles
 SCF Done:  E(UTPSSh) =  -76.2206974725     A.U. after   12 cycles
 SCF Done:  E(UTPSSh) =  -76.2207016548     A.U. after    8 cycles
 SCF Done:  E(UTPSSh) =  -76.2207015426     A.U. after    8 cycles
 Optimization completed.
    -- Stationary point found.
 Normal termination of Gaussian 16 at Wed Oct  7 14:45:32 2020.
 Gaussian 16:  ES64L-G16RevA.03 25-Dec-2016

 ----------------------------------------------------------------------
 #P Freq TPSSh/6-31G* 5D 7F Integral=UltraFineGrid SCF=(NoSymm,XQC,MaxC
 yc=120) IOp(1/33=1,3/174=1000000,3/175=2238200,3/177=0452900,3/178=465
 5000) EmpiricalDispersion=GD3BJ Geom=Check Guess=Read
 ----------------------------------------------------------------------

 TstMul:  Mul=     3
 TstMul:  ICh=     0
 TstMul:  Mul=     3
 Structure from the checkpoint file:  "MN_89_RKT14_BH76_TPSShDBJ_631Gs.chk"
 Charge =  0 Multiplicity = 3

                         Standard orientation:
 ---------------------------------------------------------------------
 Center     Atomic      Atomic             Coordinates (Angstroms)
 Number     Number       Type             X           Y           Z
 ---------------------------------------------------------------------
      1          1           0        0.000000    0.000000   -0.797622
      2          8           0        0.000000    0.000000    0.326106
      3          1           0        0.000000    0.000000   -1.811223
 ---------------------------------------------------------------------

 SCF Done:  E(UTPSSh) =  -76.2207015426     A.U. after    1 cycles

 Unable to determine electronic state:  partially filled degenerate orbitals.
 Alpha  occ. eigenvalues --  -19.15861  -0.98178  -0.50828  -0.39596  -0.31816
 Alpha  occ. eigenvalues --   -0.31437
 Alpha virt. eigenvalues --    0.16842   0.65338   0.76590   0.80099   0.85081
 Alpha virt. eigenvalues --    0.91858   1.36617   1.66792   1.71910   1.72903
 Alpha virt. eigenvalues --    1.72992   2.22980
  Beta  occ. eigenvalues --  -19.11956  -0.87808  -0.43248  -0.28418
  Beta virt. eigenvalues --   -0.16393  -0.15443   0.21659   0.69436   0.87697
  Beta virt. eigenvalues --    0.88177   0.92078   0.98033   1.43962   1.75864
  Beta virt. eigenvalues --    1.77105   1.80133   1.81410   2.30610

 Mulliken charges and spin densities:
               1          2
     1  H    0.265153  -0.111445
     2  O   -0.287193   1.431593
     3  H    0.022041   0.679851
 Sum of Mulliken charges =  -0.00000   2.00000

 Dipole moment (field-independent basis, Debye):
    X=              0.0000    Y=              0.0000    Z=             -1.2210  Tot=              1.2210
 Quadrupole moment (field-independent basis, Debye-Ang):
   XX=             -7.7096   YY=             -6.5581   ZZ=             -6.3039
   XY=             -0.0000   XZ=              0.0000   YZ=              0.0000

  Exact polarizability:   2.321   0.000   2.647  -0.000  -0.000  19.764
 Approx polarizability:   2.477   0.000   3.245  -0.000  -0.000  27.713

 ******    1 imaginary frequencies (negative Signs) ******

                      1                      2                      3
                     SG                     PI                     PI
 Frequencies --  -1249.9044               503.5654               885.5135
 Red. masses --      1.0170                 1.0183                 1.0183
 Frc consts  --      0.9361                 0.1521                 0.4705
 IR Inten    --    210.4936                30.5061                24.9533

                      4
                     SG
 Frequencies --   1495.3485
 Red. masses --      1.1147
 Frc consts  --      1.4685
 IR Inten    --      2.6527

 - Thermochemistry -
 -------------------
 Temperature   298.150 Kelvin.  Pressure   1.00000 Atm.
 Atom     1 has atomic number  1 and mass   1.00783

 Molecular mass:    18.01056 amu.
 Principal axes and moments of inertia in atomic units:
                           1         2         3
     Eigenvalues --     0.00000  18.84390  18.84390
           X            0.00000   0.00000   1.00000
           Y            0.00000   1.00000   0.00000
           Z            1.00000   0.00000   0.00000
 This molecule is a prolate symmetric top.
 Rotational symmetry number  1.
 Rotational temperature (Kelvin)      4.59639
 Rotational constant (GHZ):          95.773239
    1 imaginary frequencies ignored.
 Zero-point vibrational energy      17252.7 (Joules/Mol)
                                    4.12350 (Kcal/Mol)
 Warning -- explicit consideration of   1 degrees of freedom as
           vibrations may cause significant error
 Vibrational temperatures:    724.52  1274.06  2151.47
          (Kelvin)

 Zero-point correction=                           0.006571 (Hartree/Particle)
 Thermal correction to Energy=                    0.009215
 Thermal correction to Enthalpy=                  0.010159
 Thermal correction to Gibbs Free Energy=        -0.012590
 Sum of electronic and zero-point Energies=            -76.214130
 Sum of electronic and thermal Energies=               -76.211486
 Sum of electronic and thermal Enthalpies=             -76.210542
 Sum of electronic and thermal Free Energies=          -76.233291

                     E (Thermal)             CV                S
                      KCal/Mol        Cal/Mol-Kelvin    Cal/Mol-Kelvin
 Total                    5.783              6.806             47.879
 Electronic               0.000              0.000              2.183
 Translational            0.889              2.981             34.608
 Rotational               0.592              1.987             10.278
 Vibrational              4.301              1.838              0.809
 Vibration     1          0.859              1.242              0.649

 Optimization completed.
    -- Stationary point found.

 1\1\GINC-NODE51\Freq\UTPSSh\6-31G(d)\H2O1(3)\RPEVERATI\07-Oct-2020\0\\
 #P Freq TPSSh/6-31G* 5D 7F Integral=UltraFineGrid SCF=(NoSymm,XQC,MaxC
 yc=120) IOp(1/33=1,3/174=1000000,3/175=2238200,3/177=0452900,3/178=465
 5000) EmpiricalDispersion=GD3BJ Geom=Check Guess=Read\\TS search on BH
 76.\\0,3\H,0.,0.,-0.8044330326\O,0.,0.,0.3192945841\H,0.,0.,-1.8180339
 226\\Version=ES64L-G16RevA.03\HF=-76.2207015\S2=2.012297\S2-1=0.\S2A=2
 .000024\RMSD=2.428e-09\RMSF=1.964e-05\ZeroPoint=0.0065712\Thermal=0.00
 92152\Dipole=0.,0.,-0.4803588\DipoleDeriv=0.2020037,0.,0.,0.,0.1870774

 Normal termination of Gaussian 16 at Wed Oct  7 14:46:16 2020.
