 Gaussian 16, Revision A.03,

 ----------------------------------------------------------------------
 #P Opt(TS,MaxCyc=50,NoEigenTest,MaxStep=10,AddRedundant) TPSSh/6-31G*
 5D 7F Integral=UltraFineGrid SCF=(NoSymm,XQC,MaxCyc=120) IOp(1/33=1,3/
 174=1000000,3/175=2238200,3/177=0452900,3/178=4655000) EmpiricalDisper
 sion=GD3BJ
 ----------------------------------------------------------------------

 TstMul:  Mul=     2
 TstMul:  ICh=     0
 TstMul:  Mul=     2
 Symbolic Z-matrix:
 Charge =  0 Multiplicity = 2

 SCF Done:  E(UTPSSh) =  -343.643749345     A.U. after   14 cycles
 SCF Done:  E(UTPSSh) =  -343.643834862     A.U. after   12 cycles
 SCF Done:  E(UTPSSh) =  -343.644155573     A.U. after   12 cycles
 SCF Done:  E(UTPSSh) =  -343.643754030     A.U. after   12 cycles
 SCF Done:  E(UTPSSh) =  -343.643298102     A.U. after   12 cycles
 SCF Done:  E(UTPSSh) =  -343.642922156     A.U. after   12 cycles
 SCF Done:  E(UTPSSh) =  -343.642602712     A.U. after   12 cycles
 SCF Done:  E(UTPSSh) =  -343.642319856     A.U. after   12 cycles
 SCF Done:  E(UTPSSh) =  -343.642060641     A.U. after   12 cycles
 SCF Done:  E(UTPSSh) =  -343.641817443     A.U. after   12 cycles
 SCF Done:  E(UTPSSh) =  -343.640384631     A.U. after   12 cycles
 SCF Done:  E(UTPSSh) =  -343.640326356     A.U. after   11 cycles
 SCF Done:  E(UTPSSh) =  -343.640333082     A.U. after   12 cycles
 SCF Done:  E(UTPSSh) =  -343.640357516     A.U. after   12 cycles
 SCF Done:  E(UTPSSh) =  -343.640341960     A.U. after   11 cycles
 SCF Done:  E(UTPSSh) =  -343.640344836     A.U. after   12 cycles
 SCF Done:  E(UTPSSh) =  -343.640346650     A.U. after   11 cycles
 SCF Done:  E(UTPSSh) =  -343.640347991     A.U. after    8 cycles
 SCF Done:  E(UTPSSh) =  -343.640348280     A.U. after    8 cycles
 Optimization completed.
    -- Stationary point found.
 Normal termination of Gaussian 16 at Wed Oct  7 14:49:24 2020.
 Gaussian 16:  ES64L-G16RevA.03 25-Dec-2016

 ----------------------------------------------------------------------
 #P Freq TPSSh/6-31G* 5D 7F Integral=UltraFineGrid SCF=(NoSymm,XQC,MaxC
 yc=120) IOp(1/33=1,3/174=1000000,3/175=2238200,3/177=0452900,3/178=465
 5000) EmpiricalDispersion=GD3BJ Geom=Check Guess=Read
 ----------------------------------------------------------------------

 TstMul:  Mul=     2
 TstMul:  ICh=     0
 TstMul:  Mul=     2
 Structure from the checkpoint file:  "MN_88_RKT12_BH76_TPSShDBJ_631Gs.chk"
 Charge =  0 Multiplicity = 2

                         Standard orientation:
 ---------------------------------------------------------------------
 Center     Atomic      Atomic             Coordinates (Angstroms)
 Number     Number       Type             X           Y           Z
 ---------------------------------------------------------------------
      1         15           0        0.264007    0.000010   -0.048894
      2          1           0       -0.239375    1.036403    0.776974
      3          1           0       -0.239240   -1.036510    0.776895
      4          1           0       -0.870797   -0.000011   -0.906089
      5          1           0       -2.610687   -0.000026    0.085626
 ---------------------------------------------------------------------

 SCF Done:  E(UTPSSh) =  -343.640348280     A.U. after    1 cycles

 The electronic state is 2-A.
 Alpha  occ. eigenvalues --  -76.92834  -6.49039  -4.63961  -4.63945  -4.63560
 Alpha  occ. eigenvalues --   -0.63995  -0.38873  -0.38474  -0.30897  -0.25132
 Alpha virt. eigenvalues --    0.01872   0.01921   0.11229   0.28030   0.28096
 Alpha virt. eigenvalues --    0.32259   0.40453   0.64040   0.64174   0.65248
 Alpha virt. eigenvalues --    0.67370   0.67908   0.81024   0.96479   1.18063

  Beta  occ. eigenvalues --  -76.92788  -6.48996  -4.63923  -4.63914  -4.63431
  Beta  occ. eigenvalues --   -0.63682  -0.38446  -0.38384  -0.27237
  Beta virt. eigenvalues --   -0.13312   0.02015   0.02166   0.11503   0.28105
  Beta virt. eigenvalues --    0.28192   0.32819   0.41023   0.64427   0.64576
  Beta virt. eigenvalues --    0.66093   0.67496   0.68337   0.86901   0.97109

 Mulliken charges and spin densities:
               1          2
     1  P   -0.078321   0.079430
     2  H    0.044423   0.000078
     3  H    0.044423   0.000078
     4  H    0.042969  -0.009931
     5  H   -0.053494   0.930344
 Sum of Mulliken charges =  -0.00000   1.00000

 Dipole moment (field-independent basis, Debye):
    X=             -0.2102    Y=             -0.0001    Z=              0.3122  Tot=              0.3764
 Quadrupole moment (field-independent basis, Debye-Ang):
   XX=            -19.9005   YY=            -15.7401   ZZ=            -16.0426
   XY=             -0.0002   XZ=              0.9249   YZ=              0.0000

  Exact polarizability:  33.630  -0.000  21.607  -0.053  -0.000  21.452
 Approx polarizability:  57.527  -0.000  31.932  -0.048   0.000  31.520

 ******    1 imaginary frequencies (negative Signs) ******

                      1                      2                      3
                      A                      A                      A
 Frequencies --   -166.8354               178.9167               382.3644
 Red. masses --      1.0113                 1.0112                 1.0367
 Frc consts  --      0.0166                 0.0191                 0.0893
 IR Inten    --     13.4091                11.7753                12.1246

                      4                      5                      6
                      A                      A                      A
 Frequencies --   1019.0768              1177.4383              1178.3915
 Red. masses --      1.0761                 1.0258                 1.0267
 Frc consts  --      0.6585                 0.8379                 0.8400
 IR Inten    --      5.7588                13.0296                14.4975

                      7                      8                      9
                      A                      A                      A
 Frequencies --   2409.8045              2452.9648              2461.2313
 Red. masses --      1.0358                 1.0353                 1.0411
 Frc consts  --      3.5440                 3.6702                 3.7159
 IR Inten    --     71.3171                63.6121                99.2069

 - Thermochemistry -
 -------------------
 Temperature   298.150 Kelvin.  Pressure   1.00000 Atm.
 Atom     1 has atomic number 15 and mass  30.97376

 Molecular mass:    35.00506 amu.
 Principal axes and moments of inertia in atomic units:
                           1         2         3
     Eigenvalues --    15.25546  41.12186  41.33122
           X            0.99988  -0.00000   0.01534
           Y            0.00000   1.00000   0.00006
           Z           -0.01534  -0.00006   0.99988
 This molecule is an asymmetric top.
 Rotational symmetry number  1.
 Rotational temperatures (Kelvin)      5.67757     2.10627     2.09561
 Rotational constants (GHZ):         118.30134    43.88763    43.66533
    1 imaginary frequencies ignored.
 Zero-point vibrational energy      67350.9 (Joules/Mol)
                                   16.09725 (Kcal/Mol)
 Warning -- explicit consideration of   2 degrees of freedom as
           vibrations may cause significant error
 Vibrational temperatures:    257.42   550.14  1466.22  1694.07  1695.44
          (Kelvin)           3467.17  3529.27  3541.16

 Zero-point correction=                           0.025653 (Hartree/Particle)
 Thermal correction to Energy=                    0.029478
 Thermal correction to Enthalpy=                  0.030422
 Thermal correction to Gibbs Free Energy=         0.002192
 Sum of electronic and zero-point Energies=           -343.614696
 Sum of electronic and thermal Energies=              -343.610871
 Sum of electronic and thermal Enthalpies=            -343.609926
 Sum of electronic and thermal Free Energies=         -343.638156

                     E (Thermal)             CV                S
                      KCal/Mol        Cal/Mol-Kelvin    Cal/Mol-Kelvin
 Total                   18.498             10.140             59.415
 Electronic               0.000              0.000              1.377
 Translational            0.889              2.981             36.589
 Rotational               0.889              2.981             17.901
 Vibrational             16.720              4.179              3.547
 Vibration     1          0.629              1.868              2.340
 Vibration     2          0.752              1.508              1.030

 Optimization completed.
    -- Stationary point found.

 1\1\GINC-NODE51\Freq\UTPSSh\6-31G(d)\H4P1(2)\RPEVERATI\07-Oct-2020\0\\
 #P Freq TPSSh/6-31G* 5D 7F Integral=UltraFineGrid SCF=(NoSymm,XQC,MaxC
 yc=120) IOp(1/33=1,3/174=1000000,3/175=2238200,3/177=0452900,3/178=465
 5000) EmpiricalDispersion=GD3BJ Geom=Check Guess=Read\\TS search on BH
 76.\\0,2\P,0.3549998484,0.005241206,-0.0232238258\H,-0.0207330694,1.03
 22820404,0.878759108\H,-0.0156808252,-1.0405309552,0.8591093392\H,-0.8
 959473521,0.008625945,-0.6997449165\H,-2.4666431924,-0.0068433883,0.54
 25884206\\Version=ES64L-G16RevA.03\State=2-A\HF=-343.6403483\S2=0.7507

 Normal termination of Gaussian 16 at Wed Oct  7 14:49:57 2020.
