 Gaussian 16, Revision A.03,

 ----------------------------------------------------------------------
 #P Opt(TS,MaxCyc=50,NoEigenTest,MaxStep=10,AddRedundant) TPSSh/6-31G*
 5D 7F Integral=UltraFineGrid SCF=(NoSymm,XQC,MaxCyc=120) IOp(1/33=1,3/
 174=1000000,3/175=2238200,3/177=0452900,3/178=4655000) EmpiricalDisper
 sion=GD3BJ
 ----------------------------------------------------------------------

 TstMul:  Mul=     2
 TstMul:  ICh=     0
 TstMul:  Mul=     2
 Symbolic Z-matrix:
 Charge =  0 Multiplicity = 2

 SCF Done:  E(UTPSSh) =  -41.0073405411     A.U. after   13 cycles
 SCF Done:  E(UTPSSh) =  -41.0074679837     A.U. after   10 cycles
 SCF Done:  E(UTPSSh) =  -41.0076612645     A.U. after   13 cycles
 SCF Done:  E(UTPSSh) =  -41.0074043559     A.U. after   12 cycles
 SCF Done:  E(UTPSSh) =  -41.0073323333     A.U. after   12 cycles
 SCF Done:  E(UTPSSh) =  -41.0073329544     A.U. after    8 cycles
 Optimization completed.
    -- Stationary point found.
 Normal termination of Gaussian 16 at Wed Oct  7 14:44:19 2020.
 Gaussian 16:  ES64L-G16RevA.03 25-Dec-2016

 ----------------------------------------------------------------------
 #P Freq TPSSh/6-31G* 5D 7F Integral=UltraFineGrid SCF=(NoSymm,XQC,MaxC
 yc=120) IOp(1/33=1,3/174=1000000,3/175=2238200,3/177=0452900,3/178=465
 5000) EmpiricalDispersion=GD3BJ Geom=Check Guess=Read
 ----------------------------------------------------------------------

 TstMul:  Mul=     2
 TstMul:  ICh=     0
 TstMul:  Mul=     2
 Structure from the checkpoint file:  "MN_80_RKT03_BH76_TPSShDBJ_631Gs.chk"
 Charge =  0 Multiplicity = 2

                         Standard orientation:
 ---------------------------------------------------------------------
 Center     Atomic      Atomic             Coordinates (Angstroms)
 Number     Number       Type             X           Y           Z
 ---------------------------------------------------------------------
      1          6           0        0.000000    0.272944    0.000000
      2          1           0        1.059773    0.520564    0.000000
      3          1           0       -0.530799    0.517725    0.918102
      4          1           0       -0.530799    0.517725   -0.918102
      5          1           0        0.000770   -1.149984    0.000000
      6          1           0        0.001055   -2.043694    0.000000
 ---------------------------------------------------------------------

 SCF Done:  E(UTPSSh) =  -41.0073329544     A.U. after    1 cycles

 The electronic state is 2-A'.
 Alpha  occ. eigenvalues --  -10.13009  -0.68443  -0.43257  -0.39895  -0.39887
 Alpha  occ. eigenvalues --   -0.20264
 Alpha virt. eigenvalues --    0.11458   0.16844   0.16848   0.19351   0.52975
 Alpha virt. eigenvalues --    0.52979   0.55599   0.70787   0.90208   0.90219
 Alpha virt. eigenvalues --    0.93455   1.01365   1.20807   1.62705   1.62705

  Beta  occ. eigenvalues --  -10.11766  -0.65673  -0.39289  -0.39264  -0.39260
  Beta virt. eigenvalues --   -0.07277   0.12732   0.17878   0.17881   0.22923
  Beta virt. eigenvalues --    0.53715   0.53719   0.61338   0.77003   0.92773
  Beta virt. eigenvalues --    0.92786   0.98337   1.07837   1.26199   1.68785

 Mulliken charges and spin densities:
               1          2
     1  C   -0.554954   0.743266
     2  H    0.190216  -0.025067
     3  H    0.190207  -0.025071
     4  H    0.190207  -0.025071
     5  H   -0.012083  -0.179532
     6  H   -0.003593   0.511475
 Sum of Mulliken charges =  -0.00000   1.00000

 Dipole moment (field-independent basis, Debye):
    X=             -0.0010    Y=              0.7808    Z=              0.0000  Tot=              0.7808
 Quadrupole moment (field-independent basis, Debye-Ang):
   XX=             -9.2173   YY=            -11.2121   ZZ=             -9.2188
   XY=              0.0031   XZ=              0.0000   YZ=              0.0000

  Exact polarizability:  12.355  -0.001  28.411  -0.000  -0.000  12.355
 Approx polarizability:  14.775   0.002  34.911   0.000   0.000  14.774

 ******    1 imaginary frequencies (negative Signs) ******

                      1                      2                      3
                     A'                     A'                     A"
 Frequencies --  -1171.4464               573.5865               574.1083
 Red. masses --      1.1667                 1.0464                 1.0463
 Frc consts  --      0.9433                 0.2028                 0.2032
 IR Inten    --     11.3238                 1.3605                 1.3700

                      4                      5                      6
                     A'                     A'                     A"
 Frequencies --   1093.3992              1201.3085              1201.3406
 Red. masses --      1.0749                 1.0475                 1.0476
 Frc consts  --      0.7571                 0.8907                 0.8908
 IR Inten    --      6.1708                 0.5329                 0.5431

                      7                      8                      9
                     A"                     A'                     A'
 Frequencies --   1473.8450              1474.1068              1892.7088
 Red. masses --      1.0754                 1.0755                 1.0762
 Frc consts  --      1.3763                 1.3769                 2.2714
 IR Inten    --      2.7735                 2.7654                39.6816

                     10                     11                     12
                     A'                     A"                     A'
 Frequencies --   3103.5018              3247.5114              3248.1296
 Red. masses --      1.0168                 1.1122                 1.1122
 Frc consts  --      5.7704                 6.9107                 6.9137
 IR Inten    --      0.6073                14.6320                14.5826

 - Thermochemistry -
 -------------------
 Temperature   298.150 Kelvin.  Pressure   1.00000 Atm.
 Atom     1 has atomic number  6 and mass  12.00000

 Molecular mass:    17.03913 amu.
 Principal axes and moments of inertia in atomic units:
                           1         2         3
     Eigenvalues --    12.13743  31.40256  31.40541
           X           -0.00018   1.00000   0.00000
           Y            1.00000   0.00018   0.00000
           Z            0.00000   0.00000   1.00000
 This molecule is an asymmetric top.
 Rotational symmetry number  1.
 Rotational temperatures (Kelvin)      7.13610     2.75818     2.75793
 Rotational constants (GHZ):         148.69226    57.47116    57.46593
    1 imaginary frequencies ignored.
 Zero-point vibrational energy     114145.0 (Joules/Mol)
                                   27.28130 (Kcal/Mol)
 Warning -- explicit consideration of   2 degrees of freedom as
           vibrations may cause significant error
 Vibrational temperatures:    825.26   826.01  1573.16  1728.41  1728.46
          (Kelvin)           2120.53  2120.91  2723.19  4465.25  4672.44
                             4673.33

 Zero-point correction=                           0.043476 (Hartree/Particle)
 Thermal correction to Energy=                    0.046729
 Thermal correction to Enthalpy=                  0.047673
 Thermal correction to Gibbs Free Energy=         0.021958
 Sum of electronic and zero-point Energies=            -40.963857
 Sum of electronic and thermal Energies=               -40.960604
 Sum of electronic and thermal Enthalpies=             -40.959660
 Sum of electronic and thermal Free Energies=          -40.985375

                     E (Thermal)             CV                S
                      KCal/Mol        Cal/Mol-Kelvin    Cal/Mol-Kelvin
 Total                   29.323              9.013             54.122
 Electronic               0.000              0.000              1.377
 Translational            0.889              2.981             34.443
 Rotational               0.889              2.981             17.133
 Vibrational             27.545              3.052              1.169
 Vibration     1          0.930              1.088              0.497
 Vibration     2          0.930              1.087              0.496

 Optimization completed.
    -- Stationary point found.

 1\1\GINC-NODE42\Freq\UTPSSh\6-31G(d)\C1H5(2)\RPEVERATI\07-Oct-2020\0\\
 #P Freq TPSSh/6-31G* 5D 7F Integral=UltraFineGrid SCF=(NoSymm,XQC,MaxC
 yc=120) IOp(1/33=1,3/174=1000000,3/175=2238200,3/177=0452900,3/178=465
 5000) EmpiricalDispersion=GD3BJ Geom=Check Guess=Read\\TS search on BH
 76.\\0,2\C,0.0010314105,0.2825103797,0.\H,1.0613270441,0.5278817098,0.
 \H,-0.5292469267,0.52841712,0.9181016531\H,-0.5292469267,0.52841712,-0
 .9181016531\H,-0.001216973,-1.1404165416,0.\H,-0.0028282556,-2.0341247
 786,0.\\Version=ES64L-G16RevA.03\State=2-A'\HF=-41.007333\S2=0.761622\

 Normal termination of Gaussian 16 at Wed Oct  7 14:44:43 2020.
