 Gaussian 16, Revision A.03,

 ----------------------------------------------------------------------
 #P Opt(TS,MaxCyc=50,NoEigenTest,MaxStep=10,AddRedundant) TPSSh/6-31G*
 5D 7F Integral=UltraFineGrid SCF=(NoSymm,XQC,MaxCyc=120) IOp(1/33=1,3/
 174=1000000,3/175=2238200,3/177=0452900,3/178=4655000) EmpiricalDisper
 sion=GD3BJ
 ----------------------------------------------------------------------

 TstMul:  Mul=     2
 TstMul:  ICh=     0
 TstMul:  Mul=     2
 Symbolic Z-matrix:
 Charge =  0 Multiplicity = 2

 SCF Done:  E(UTPSSh) =  -132.273510755     A.U. after   19 cycles
 SCF Done:  E(UTPSSh) =  -132.273676516     A.U. after   15 cycles
 SCF Done:  E(UTPSSh) =  -132.273618658     A.U. after   16 cycles
 SCF Done:  E(UTPSSh) =  -132.273545646     A.U. after   19 cycles
 SCF Done:  E(UTPSSh) =  -132.273706963     A.U. after   18 cycles
 SCF Done:  E(UTPSSh) =  -132.273761766     A.U. after   19 cycles
 SCF Done:  E(UTPSSh) =  -132.273966086     A.U. after   18 cycles
 SCF Done:  E(UTPSSh) =  -132.273463609     A.U. after   15 cycles
 SCF Done:  E(UTPSSh) =  -132.273082496     A.U. after   15 cycles
 SCF Done:  E(UTPSSh) =  -132.273759612     A.U. after   16 cycles
 SCF Done:  E(UTPSSh) =  -132.274132844     A.U. after   18 cycles
 SCF Done:  E(UTPSSh) =  -132.274235545     A.U. after   14 cycles
 SCF Done:  E(UTPSSh) =  -132.274260927     A.U. after   13 cycles
 SCF Done:  E(UTPSSh) =  -132.274288515     A.U. after   15 cycles
 SCF Done:  E(UTPSSh) =  -132.274297679     A.U. after   11 cycles
 SCF Done:  E(UTPSSh) =  -132.274300275     A.U. after   12 cycles
 Optimization completed.
    -- Stationary point found.
 Normal termination of Gaussian 16 at Wed Oct  7 14:46:47 2020.
 Gaussian 16:  ES64L-G16RevA.03 25-Dec-2016

 ----------------------------------------------------------------------
 #P Freq TPSSh/6-31G* 5D 7F Integral=UltraFineGrid SCF=(NoSymm,XQC,MaxC
 yc=120) IOp(1/33=1,3/174=1000000,3/175=2238200,3/177=0452900,3/178=465
 5000) EmpiricalDispersion=GD3BJ Geom=Check Guess=Read
 ----------------------------------------------------------------------

 TstMul:  Mul=     2
 TstMul:  ICh=     0
 TstMul:  Mul=     2
 Structure from the checkpoint file:  "MN_83_RKT07_BH76_TPSShDBJ_631Gs.chk"
 Charge =  0 Multiplicity = 2

                         Standard orientation:
 ---------------------------------------------------------------------
 Center     Atomic      Atomic             Coordinates (Angstroms)
 Number     Number       Type             X           Y           Z
 ---------------------------------------------------------------------
      1          7           0       -1.153996   -0.012678   -0.114545
      2          8           0        1.170798   -0.105853    0.015429
      3          1           0       -1.327049   -0.701738    0.625066
      4          1           0       -1.325905    0.901968    0.316825
      5          1           0        0.001135   -0.110959   -0.395687
      6          1           0        1.363406    0.846304    0.132177
 ---------------------------------------------------------------------

 SCF Done:  E(UTPSSh) =  -132.274300275     A.U. after    1 cycles

 The electronic state is 2-A.
 Alpha  occ. eigenvalues --  -19.06766 -14.28866  -0.95391  -0.84943  -0.49418
 Alpha  occ. eigenvalues --   -0.46916  -0.39010  -0.31861  -0.26658  -0.26065
 Alpha virt. eigenvalues --    0.05956   0.11316   0.14237   0.27385   0.61954
 Alpha virt. eigenvalues --    0.64360   0.68894   0.80720   0.82752   0.83244
 Alpha virt. eigenvalues --    0.87363   0.94559   0.97067   1.09262   1.24092

  Beta  occ. eigenvalues --  -19.05364 -14.27555  -0.92212  -0.81853  -0.47575
  Beta  occ. eigenvalues --   -0.46006  -0.37393  -0.26936  -0.25189
  Beta virt. eigenvalues --   -0.13953   0.06795   0.12007   0.14727   0.28403
  Beta virt. eigenvalues --    0.64003   0.65058   0.72976   0.81924   0.83874
  Beta virt. eigenvalues --    0.85472   0.88628   0.95975   0.99589   1.11321

 Mulliken charges and spin densities:
               1          2
     1  N   -0.798103   0.604879
     2  O   -0.698920   0.495138
     3  H    0.339083  -0.019745
     4  H    0.323782  -0.020269
     5  H    0.447245  -0.047599
     6  H    0.386914  -0.012405
 Sum of Mulliken charges =   0.00000   1.00000

 Dipole moment (field-independent basis, Debye):
    X=             -1.1914    Y=              1.8232    Z=              1.4232  Tot=              2.6017
 Quadrupole moment (field-independent basis, Debye-Ang):
   XX=            -14.0648   YY=            -10.7009   ZZ=            -14.0101
   XY=              1.9585   XZ=             -2.2819   YZ=             -0.0025

  Exact polarizability:  44.026   1.078  15.233   0.364   0.140  10.029
 Approx polarizability:  76.136  -1.301  20.163   3.817   0.134  12.635

 ******    1 imaginary frequencies (negative Signs) ******

                      1                      2                      3
                      A                      A                      A
 Frequencies --  -1388.1258               242.4166               422.3052
 Red. masses --      1.0395                 1.0639                 2.1092
 Frc consts  --      1.1802                 0.0368                 0.2216
 IR Inten    --    299.7368                78.8079                26.1266

                      4                      5                      6
                      A                      A                      A
 Frequencies --    525.8113               817.6570               902.4871
 Red. masses --      1.0304                 1.6698                 1.1450
 Frc consts  --      0.1678                 0.6578                 0.5495
 IR Inten    --     36.5601               146.4544                96.7848

                      7                      8                      9
                      A                      A                      A
 Frequencies --   1460.0584              1642.3196              1698.6860
 Red. masses --      1.1258                 1.0665                 1.0321
 Frc consts  --      1.4140                 1.6949                 1.7546
 IR Inten    --    177.4747                47.4435                10.9756

                     10                     11                     12
                      A                      A                      A
 Frequencies --   3421.6501              3521.2000              3671.1077
 Red. masses --      1.0499                 1.0904                 1.0662
 Frc consts  --      7.2419                 7.9654                 8.4663
 IR Inten    --      3.2160                 0.5421                18.7265

 - Thermochemistry -
 -------------------
 Temperature   298.150 Kelvin.  Pressure   1.00000 Atm.
 Atom     1 has atomic number  7 and mass  14.00307

 Molecular mass:    34.02929 amu.
 Principal axes and moments of inertia in atomic units:
                           1         2         3
     Eigenvalues --    10.74388 167.15071 172.04977
           X            0.99952   0.01935  -0.02407
           Y           -0.01934   0.99981   0.00061
           Z            0.02407  -0.00014   0.99971
 This molecule is an asymmetric top.
 Rotational symmetry number  1.
 Rotational temperatures (Kelvin)      8.06170     0.51818     0.50342
 Rotational constants (GHZ):         167.97852    10.79709    10.48965
    1 imaginary frequencies ignored.
 Zero-point vibrational energy     109612.0 (Joules/Mol)
                                   26.19790 (Kcal/Mol)
 Warning -- explicit consideration of   3 degrees of freedom as
           vibrations may cause significant error
 Vibrational temperatures:    348.78   607.60   756.53  1176.43  1298.48
          (Kelvin)           2100.70  2362.93  2444.03  4922.99  5066.22
                             5281.91

 Zero-point correction=                           0.041749 (Hartree/Particle)
 Thermal correction to Energy=                    0.045710
 Thermal correction to Enthalpy=                  0.046655
 Thermal correction to Gibbs Free Energy=         0.017259
 Sum of electronic and zero-point Energies=           -132.232551
 Sum of electronic and thermal Energies=              -132.228590
 Sum of electronic and thermal Enthalpies=            -132.227646
 Sum of electronic and thermal Free Energies=         -132.257041

                     E (Thermal)             CV                S
                      KCal/Mol        Cal/Mol-Kelvin    Cal/Mol-Kelvin
 Total                   28.684             11.638             61.868
 Electronic               0.000              0.000              1.377
 Translational            0.889              2.981             36.505
 Rotational               0.889              2.981             20.363
 Vibrational             26.906              5.677              3.623
 Vibration     1          0.659              1.775              1.785
 Vibration     2          0.785              1.422              0.884
 Vibration     3          0.881              1.193              0.597

 Optimization completed.
    -- Stationary point found.
 Normal termination of Gaussian 16 at Wed Oct  7 14:47:13 2020.
