 Gaussian 16, Revision A.03,

 ----------------------------------------------------------------------
 #P Opt(TS,MaxCyc=50,NoEigenTest,MaxStep=10,AddRedundant) TPSSh/6-31G*
 5D 7F Integral=UltraFineGrid SCF=(NoSymm,XQC,MaxCyc=120) IOp(1/33=1,3/
 174=1000000,3/175=2238200,3/177=0452900,3/178=4655000) EmpiricalDisper
 sion=GD3BJ
 ----------------------------------------------------------------------

 TstMul:  Mul=     3
 TstMul:  ICh=     0
 TstMul:  Mul=     3
 Symbolic Z-matrix:
 Charge =  0 Multiplicity = 3

 SCF Done:  E(UTPSSh) =  -115.566986531     A.U. after   13 cycles
 SCF Done:  E(UTPSSh) =  -115.567662406     A.U. after   13 cycles
 SCF Done:  E(UTPSSh) =  -115.566883863     A.U. after   12 cycles
 SCF Done:  E(UTPSSh) =  -115.566142414     A.U. after   13 cycles
 SCF Done:  E(UTPSSh) =  -115.565841461     A.U. after   13 cycles
 SCF Done:  E(UTPSSh) =  -115.565853518     A.U. after   12 cycles
 SCF Done:  E(UTPSSh) =  -115.565858534     A.U. after    9 cycles
 SCF Done:  E(UTPSSh) =  -115.565860786     A.U. after    9 cycles
 Optimization completed.
    -- Stationary point found.
 Normal termination of Gaussian 16 at Wed Oct  7 14:44:57 2020.
 Gaussian 16:  ES64L-G16RevA.03 25-Dec-2016

 ----------------------------------------------------------------------
 #P Freq TPSSh/6-31G* 5D 7F Integral=UltraFineGrid SCF=(NoSymm,XQC,MaxC
 yc=120) IOp(1/33=1,3/174=1000000,3/175=2238200,3/177=0452900,3/178=465
 5000) EmpiricalDispersion=GD3BJ Geom=Check Guess=Read
 ----------------------------------------------------------------------

 TstMul:  Mul=     3
 TstMul:  ICh=     0
 TstMul:  Mul=     3
 Structure from the checkpoint file:  "MN_87_RKT11_BH76_TPSShDBJ_631Gs.chk"
 Charge =  0 Multiplicity = 3

                         Standard orientation:
 ---------------------------------------------------------------------
 Center     Atomic      Atomic             Coordinates (Angstroms)
 Number     Number       Type             X           Y           Z
 ---------------------------------------------------------------------
      1          6           0        0.000389   -1.173769    0.000000
      2          1           0       -1.066567   -1.390663    0.000000
      3          1           0        0.525458   -1.417101    0.921503
      4          1           0        0.525458   -1.417101   -0.921503
      5          1           0        0.010207    0.243687   -0.000000
      6          8           0        0.000389    1.377974   -0.000000
 ---------------------------------------------------------------------

 SCF Done:  E(UTPSSh) =  -115.565860786     A.U. after    1 cycles

 The electronic state is 3-A'.
 Alpha  occ. eigenvalues --  -19.12598 -10.15073  -0.95115  -0.70218  -0.45047
 Alpha  occ. eigenvalues --   -0.42008  -0.41957  -0.36698  -0.28683  -0.25453
 Alpha virt. eigenvalues --    0.09840   0.15365   0.15466   0.23601   0.50510
 Alpha virt. eigenvalues --    0.50936   0.53008   0.70750   0.84693   0.88146
 Alpha virt. eigenvalues --    0.88478   0.88517   0.89668   0.94570   1.14533

  Beta  occ. eigenvalues --  -19.08793 -10.13839  -0.85102  -0.67025  -0.41299
  Beta  occ. eigenvalues --   -0.41262  -0.38725  -0.25700
  Beta virt. eigenvalues --   -0.13884  -0.12352   0.11173   0.16434   0.16505
  Beta virt. eigenvalues --    0.27263   0.51864   0.51902   0.58808   0.72807
  Beta virt. eigenvalues --    0.91018   0.91030   0.92067   0.92336   0.96277

 Mulliken charges and spin densities:
               1          2
     1  C   -0.655960   0.752076
     2  H    0.206025  -0.024150
     3  H    0.206776  -0.025033
     4  H    0.206776  -0.025033
     5  H    0.408648  -0.076104
     6  O   -0.372265   1.398244
 Sum of Mulliken charges =  -0.00000   2.00000

 Dipole moment (field-independent basis, Debye):
    X=              0.0010    Y=             -2.1851    Z=             -0.0000  Tot=              2.1851
 Quadrupole moment (field-independent basis, Debye-Ang):
   XX=            -12.3225   YY=            -15.3433   ZZ=            -13.4621
   XY=              0.0006   XZ=             -0.0000   YZ=              0.0000

  Exact polarizability:  14.398  -0.065  30.520  -0.000  -0.000  14.156
 Approx polarizability:  17.715  -0.087  41.068  -0.000   0.000  17.018

 ******    1 imaginary frequencies (negative Signs) ******

                      1                      2                      3
                     A'                     A"                     A'
 Frequencies --  -1221.5900               262.5412               405.2739
 Red. masses --      1.1668                 1.0600                 1.0694
 Frc consts  --      1.0259                 0.0430                 0.1035
 IR Inten    --    213.2547                 5.9030                 3.6008

                      4                      5                      6
                     A'                     A"                     A'
 Frequencies --    601.9516               918.7436              1108.1649
 Red. masses --      3.1645                 1.0656                 1.0581
 Frc consts  --      0.6756                 0.5299                 0.7656
 IR Inten    --      0.0014                42.9636                46.4367

                      7                      8                      9
                     A'                     A"                     A'
 Frequencies --   1225.5089              1451.3566              1465.7098
 Red. masses --      1.2810                 1.0817                 1.0821
 Frc consts  --      1.1335                 1.3425                 1.3697
 IR Inten    --     17.7720                 3.5533                 3.0790

                     10                     11                     12
                     A'                     A'                     A"
 Frequencies --   3102.8540              3248.8607              3251.8584
 Red. masses --      1.0163                 1.1120                 1.1115
 Frc consts  --      5.7648                 6.9155                 6.9253
 IR Inten    --      0.0026                 7.1720                 6.3056

 - Thermochemistry -
 -------------------
 Temperature   298.150 Kelvin.  Pressure   1.00000 Atm.
 Atom     1 has atomic number  6 and mass  12.00000

 Molecular mass:    32.02621 amu.
 Principal axes and moments of inertia in atomic units:
                           1         2         3
     Eigenvalues --    12.19423 193.47498 193.50539
           X           -0.00002   0.00000   1.00000
           Y            1.00000   0.00000   0.00002
           Z            0.00000   1.00000   0.00000
 This molecule is an asymmetric top.
 Rotational symmetry number  1.
 Rotational temperatures (Kelvin)      7.10286     0.44768     0.44760
 Rotational constants (GHZ):         147.99959     9.32803     9.32657
    1 imaginary frequencies ignored.
 Zero-point vibrational energy     101938.7 (Joules/Mol)
                                   24.36394 (Kcal/Mol)
 Warning -- explicit consideration of   3 degrees of freedom as
           vibrations may cause significant error
 Vibrational temperatures:    377.74   583.10   866.07  1321.87  1594.40
          (Kelvin)           1763.23  2088.18  2108.83  4464.31  4674.39
                             4678.70

 Zero-point correction=                           0.038826 (Hartree/Particle)
 Thermal correction to Energy=                    0.042692
 Thermal correction to Enthalpy=                  0.043637
 Thermal correction to Gibbs Free Energy=         0.013918
 Sum of electronic and zero-point Energies=           -115.527034
 Sum of electronic and thermal Energies=              -115.523168
 Sum of electronic and thermal Enthalpies=            -115.522224
 Sum of electronic and thermal Free Energies=         -115.551943

                     E (Thermal)             CV                S
                      KCal/Mol        Cal/Mol-Kelvin    Cal/Mol-Kelvin
 Total                   26.790             11.300             62.548
 Electronic               0.000              0.000              2.183
 Translational            0.889              2.981             36.324
 Rotational               0.889              2.981             20.751
 Vibrational             25.012              5.338              3.290
 Vibration     1          0.670              1.741              1.645
 Vibration     2          0.770              1.459              0.943
 Vibration     3          0.960              1.028              0.446

                           ! Non-Optimized Parameters !
 Normal termination of Gaussian 16 at Wed Oct  7 14:45:24 2020.
