 Gaussian 16, Revision A.03,

 ----------------------------------------------------------------------
 #P Opt(TS,MaxCyc=50,NoEigenTest,MaxStep=10,AddRedundant) TPSSh/6-31G*
 5D 7F Integral=UltraFineGrid SCF=(NoSymm,XQC,MaxCyc=120) IOp(1/33=1,3/
 174=1000000,3/175=2238200,3/177=0452900,3/178=4655000) EmpiricalDisper
 sion=GD3BJ
 ----------------------------------------------------------------------

 TstMul:  Mul=     2
 TstMul:  ICh=     0
 TstMul:  Mul=     2
 Symbolic Z-matrix:
 Charge =  0 Multiplicity = 2

 SCF Done:  E(UTPSSh) =  -500.644179014     A.U. after   14 cycles
 SCF Done:  E(UTPSSh) =  -500.644195923     A.U. after   10 cycles
 SCF Done:  E(UTPSSh) =  -500.644241589     A.U. after   10 cycles
 SCF Done:  E(UTPSSh) =  -500.643452449     A.U. after   12 cycles
 SCF Done:  E(UTPSSh) =  -500.642930419     A.U. after   12 cycles
 SCF Done:  E(UTPSSh) =  -500.642598988     A.U. after   12 cycles
 SCF Done:  E(UTPSSh) =  -500.642501667     A.U. after   12 cycles
 SCF Done:  E(UTPSSh) =  -500.642348646     A.U. after   12 cycles
 SCF Done:  E(UTPSSh) =  -500.642239633     A.U. after   12 cycles
 SCF Done:  E(UTPSSh) =  -500.642191632     A.U. after   12 cycles
 SCF Done:  E(UTPSSh) =  -500.642181217     A.U. after   12 cycles
 SCF Done:  E(UTPSSh) =  -500.642178688     A.U. after   12 cycles
 SCF Done:  E(UTPSSh) =  -500.642177879     A.U. after   11 cycles
 SCF Done:  E(UTPSSh) =  -500.642176850     A.U. after   12 cycles
 Optimization completed.
    -- Stationary point found.
 Normal termination of Gaussian 16 at Sun Oct 11 11:59:50 2020.
 Gaussian 16:  ES64L-G16RevA.03 25-Dec-2016

 ----------------------------------------------------------------------
 #P Freq TPSSh/6-31G* 5D 7F Integral=UltraFineGrid SCF=(NoSymm,XQC,MaxC
 yc=120) IOp(1/33=1,3/174=1000000,3/175=2238200,3/177=0452900,3/178=465
 5000) EmpiricalDispersion=GD3BJ Geom=Check Guess=Read
 ----------------------------------------------------------------------

 TstMul:  Mul=     2
 TstMul:  ICh=     0
 TstMul:  Mul=     2
 Structure from the checkpoint file:  "MN_84_RKT08_BH76_TPSShDBJ_631Gs.chk"
 Charge =  0 Multiplicity = 2

                         Standard orientation:
 ---------------------------------------------------------------------
 Center     Atomic      Atomic             Coordinates (Angstroms)
 Number     Number       Type             X           Y           Z
 ---------------------------------------------------------------------
      1          6           0       -2.021000   -0.000013   -0.000002
      2         17           0        1.106253   -0.000003   -0.000002
      3          1           0       -2.147618    0.278284   -1.041402
      4          1           0       -2.147680    0.762706    0.761715
      5          1           0       -2.147452   -1.041063    0.279675
      6          1           0       -0.237545    0.000197    0.000055
 ---------------------------------------------------------------------

 SCF Done:  E(UTPSSh) =  -500.642176850     A.U. after    1 cycles

 The electronic state is 2-A.
 Alpha  occ. eigenvalues -- -101.35164 -10.16737  -9.35895  -7.10937  -7.09753
 Alpha  occ. eigenvalues --   -7.09753  -0.80049  -0.70654  -0.44518  -0.43447
 Alpha  occ. eigenvalues --   -0.43447  -0.29397  -0.29397  -0.25700
 Alpha virt. eigenvalues --    0.08063   0.08799   0.15051   0.15051   0.39321
 Alpha virt. eigenvalues --    0.42952   0.43689   0.43690   0.53368   0.53765
 Alpha virt. eigenvalues --    0.53765   0.78449   0.83986   0.83986   0.87164

  Beta  occ. eigenvalues -- -101.35037 -10.15270  -9.35781  -7.10568  -7.09683
  Beta  occ. eigenvalues --   -7.09683  -0.79188  -0.66987  -0.43101  -0.42681
  Beta  occ. eigenvalues --   -0.42681  -0.29146  -0.29146
  Beta virt. eigenvalues --   -0.12829   0.10616   0.10834   0.16239   0.16240
  Beta virt. eigenvalues --    0.40178   0.44086   0.44086   0.44403   0.54775
  Beta virt. eigenvalues --    0.54775   0.59380   0.82018   0.85121   0.85121

 Mulliken charges and spin densities:
               1          2
     1  C   -0.554698   0.994046
     2  Cl  -0.231514   0.145340
     3  H    0.214087  -0.042441
     4  H    0.214086  -0.042437
     5  H    0.214092  -0.042441
     6  H    0.143947  -0.012067
 Sum of Mulliken charges =   0.00000   1.00000

 Dipole moment (field-independent basis, Debye):
    X=             -2.8665    Y=              0.0001    Z=              0.0000  Tot=              2.8665
 Quadrupole moment (field-independent basis, Debye-Ang):
   XX=            -19.3745   YY=            -20.8286   ZZ=            -20.8287
   XY=             -0.0003   XZ=             -0.0001   YZ=             -0.0000

  Exact polarizability:  36.619  -0.000  17.591   0.000  -0.000  17.590
 Approx polarizability:  46.556  -0.002  21.941  -0.000   0.000  21.940

                      1                      2                      3
                      A                      A                      A
 Frequencies --     47.1133               277.7764               278.6672
 Red. masses --      6.1340                 1.0283                 1.0283
 Frc consts  --      0.0080                 0.0467                 0.0470
 IR Inten    --      6.8941                 2.6849                 2.7038

                      4                      5                      6
                      A                      A                      A
 Frequencies --    616.2138               616.3146               802.9596
 Red. masses --      1.0365                 1.0365                 1.1503
 Frc consts  --      0.2319                 0.2320                 0.4370
 IR Inten    --     25.2753                25.2546                79.4737

                      7                      8                      9
                      A                      A                      A
 Frequencies --   1451.5151              1451.6531              2058.9823
 Red. masses --      1.0978                 1.0978                 1.0541
 Frc consts  --      1.3627                 1.3630                 2.6329
 IR Inten    --      3.2751                 3.2766               453.8034

                     10                     11                     12
                      A                      A                      A
 Frequencies --   3126.4052              3299.1335              3299.2469
 Red. masses --      1.0101                 1.1168                 1.1168
 Frc consts  --      5.8173                 7.1619                 7.1624
 IR Inten    --      1.2396                 1.8952                 1.8927

 - Thermochemistry -
 -------------------
 Temperature   298.150 Kelvin.  Pressure   1.00000 Atm.
 Atom     1 has atomic number  6 and mass  12.00000

 Molecular mass:    51.00015 amu.
 Principal axes and moments of inertia in atomic units:
                           1         2         3
     Eigenvalues --    12.54586 379.97395 379.97406
           X            1.00000  -0.00000   0.00000
           Y            0.00000   1.00000  -0.00000
           Z           -0.00000   0.00000   1.00000
 This molecule is an asymmetric top.
 Rotational symmetry number  1.
 Rotational temperatures (Kelvin)      6.90379     0.22795     0.22795
 Rotational constants (GHZ):         143.85158     4.74964     4.74964
 Zero-point vibrational energy     103632.4 (Joules/Mol)
                                   24.76873 (Kcal/Mol)
 Warning -- explicit consideration of   5 degrees of freedom as
           vibrations may cause significant error
 Vibrational temperatures:     67.79   399.66   400.94   886.59   886.74
          (Kelvin)           1155.28  2088.41  2088.60  2962.42  4498.20
                             4746.72  4746.88

 Zero-point correction=                           0.039471 (Hartree/Particle)
 Thermal correction to Energy=                    0.044434
 Thermal correction to Enthalpy=                  0.045378
 Thermal correction to Gibbs Free Energy=         0.011970
 Sum of electronic and zero-point Energies=           -500.602705
 Sum of electronic and thermal Energies=              -500.597743
 Sum of electronic and thermal Enthalpies=            -500.596799
 Sum of electronic and thermal Free Energies=         -500.630207

                     E (Thermal)             CV                S
                      KCal/Mol        Cal/Mol-Kelvin    Cal/Mol-Kelvin
 Total                   27.883             14.196             70.313
 Electronic               0.000              0.000              1.377
 Translational            0.889              2.981             37.711
 Rotational               0.889              2.981             22.120
 Vibrational             26.105              8.234              9.104
 Vibration     1          0.595              1.979              4.935
 Vibration     2          0.679              1.715              1.547
 Vibration     3          0.679              1.713              1.542
 Vibration     4          0.976              0.998              0.423
 Vibration     5          0.976              0.997              0.422

                           ! Non-Optimized Parameters !
 Normal termination of Gaussian 16 at Sun Oct 11 12:00:10 2020.
