 Gaussian 16, Revision A.03,

 ----------------------------------------------------------------------
 #P Opt(TS,MaxCyc=50,NoEigenTest,MaxStep=10,AddRedundant) TPSSh/6-31G*
 5D 7F Integral=UltraFineGrid SCF=(NoSymm,XQC,MaxCyc=120) IOp(1/33=1,3/
 174=1000000,3/175=2238200,3/177=0452900,3/178=4655000) EmpiricalDisper
 sion=GD3BJ
 ----------------------------------------------------------------------

 TstMul:  Mul=     2
 TstMul:  ICh=     0
 TstMul:  Mul=     2
 Symbolic Z-matrix:
 Charge =  0 Multiplicity = 2

 SCF Done:  E(UTPSSh) =  -100.891225617     A.U. after   18 cycles
 SCF Done:  E(UTPSSh) =  -100.891209991     A.U. after   11 cycles
 SCF Done:  E(UTPSSh) =  -100.891191971     A.U. after   11 cycles
 SCF Done:  E(UTPSSh) =  -100.891253437     A.U. after   14 cycles
 SCF Done:  E(UTPSSh) =  -100.891349583     A.U. after   15 cycles
 SCF Done:  E(UTPSSh) =  -100.891103802     A.U. after   15 cycles
 SCF Done:  E(UTPSSh) =  -100.890906319     A.U. after   14 cycles
 SCF Done:  E(UTPSSh) =  -100.890715460     A.U. after   15 cycles
 SCF Done:  E(UTPSSh) =  -100.890619675     A.U. after   14 cycles
 SCF Done:  E(UTPSSh) =  -100.890503267     A.U. after   15 cycles
 SCF Done:  E(UTPSSh) =  -100.890138860     A.U. after   18 cycles
 SCF Done:  E(UTPSSh) =  -100.890090865     A.U. after   18 cycles
 SCF Done:  E(UTPSSh) =  -100.890048330     A.U. after   18 cycles
 SCF Done:  E(UTPSSh) =  -100.890023616     A.U. after   17 cycles
 SCF Done:  E(UTPSSh) =  -100.890016098     A.U. after   18 cycles
 SCF Done:  E(UTPSSh) =  -100.890002568     A.U. after   18 cycles
 SCF Done:  E(UTPSSh) =  -100.889999008     A.U. after   15 cycles
 SCF Done:  E(UTPSSh) =  -100.889999187     A.U. after   11 cycles
 SCF Done:  E(UTPSSh) =  -100.889999189     A.U. after   10 cycles
 Optimization completed.
    -- Stationary point found.
 Normal termination of Gaussian 16 at Wed Oct  7 14:50:24 2020.
 Gaussian 16:  ES64L-G16RevA.03 25-Dec-2016

 ----------------------------------------------------------------------
 #P Freq TPSSh/6-31G* 5D 7F Integral=UltraFineGrid SCF=(NoSymm,XQC,MaxC
 yc=120) IOp(1/33=1,3/174=1000000,3/175=2238200,3/177=0452900,3/178=465
 5000) EmpiricalDispersion=GD3BJ Geom=Check Guess=Read
 ----------------------------------------------------------------------

 TstMul:  Mul=     2
 TstMul:  ICh=     0
 TstMul:  Mul=     2
 Structure from the checkpoint file:  "MN_86_RKT10_BH76_TPSShDBJ_631Gs.chk"
 Charge =  0 Multiplicity = 2

                         Standard orientation:
 ---------------------------------------------------------------------
 Center     Atomic      Atomic             Coordinates (Angstroms)
 Number     Number       Type             X           Y           Z
 ---------------------------------------------------------------------
      1          1           0        0.376275   -1.512835   -0.000000
      2          9           0        0.000000    0.336153    0.000000
      3          1           0       -0.376275   -1.512543   -0.000000
 ---------------------------------------------------------------------

 SCF Done:  E(UTPSSh) =  -100.889999189     A.U. after    1 cycles

 The electronic state is 2-A'.
 Alpha  occ. eigenvalues --  -24.65436  -1.14604  -0.51526  -0.40210  -0.38586
 Alpha  occ. eigenvalues --   -0.38358
 Alpha virt. eigenvalues --    0.08552   0.59741   1.12181   1.13899   1.15247
 Alpha virt. eigenvalues --    1.21960   1.36244   1.78768   1.79165   1.81232
 Alpha virt. eigenvalues --    1.83728   1.83730
  Beta  occ. eigenvalues --  -24.62436  -1.06668  -0.44932  -0.35997  -0.35779
  Beta virt. eigenvalues --   -0.21947   0.09466   0.61195   1.14498   1.17212
  Beta virt. eigenvalues --    1.24040   1.24504   1.41007   1.84438   1.84439
  Beta virt. eigenvalues --    1.84510   1.86534   1.86609

 Mulliken charges and spin densities:
               1          2
     1  H    0.043510   0.052115
     2  F   -0.087043   0.895876
     3  H    0.043532   0.052010
 Sum of Mulliken charges =   0.00000   1.00000

 Dipole moment (field-independent basis, Debye):
    X=             -0.0000    Y=             -0.7386    Z=             -0.0000  Tot=              0.7386
 Quadrupole moment (field-independent basis, Debye-Ang):
   XX=             -6.2439   YY=             -4.9844   ZZ=             -6.6674
   XY=             -0.0001   XZ=              0.0000   YZ=             -0.0000

  Exact polarizability:   7.360  -0.002  11.791  -0.000  -0.000   1.528
 Approx polarizability:   9.076  -0.003  14.633  -0.000  -0.000   1.741

 ******    1 imaginary frequencies (negative Signs) ******

                      1                      2                      3
                     A'                     A'                     A'
 Frequencies --   -217.0194               378.5425              4248.0544
 Red. masses --      1.0119                 1.1085                 1.0079
 Frc consts  --      0.0281                 0.0936                10.7160
 IR Inten    --      0.0248                43.4028               109.5747

 - Thermochemistry -
 -------------------
 Temperature   298.150 Kelvin.  Pressure   1.00000 Atm.
 Atom     1 has atomic number  1 and mass   1.00783

 Molecular mass:    21.01405 amu.
 Principal axes and moments of inertia in atomic units:
                           1         2         3
     Eigenvalues --     1.01912  22.24436  23.26348
           X           -0.00002   1.00000   0.00000
           Y            1.00000   0.00002   0.00000
           Z           -0.00000   0.00000   1.00000
 This molecule is an asymmetric top.
 Rotational symmetry number  1.
 Rotational temperatures (Kelvin)     84.98907     3.89375     3.72317
 Rotational constants (GHZ):        1770.88484    81.13251    77.57829
    1 imaginary frequencies ignored.
 Zero-point vibrational energy      27673.2 (Joules/Mol)
                                    6.61405 (Kcal/Mol)
 Warning -- explicit consideration of   1 degrees of freedom as
           vibrations may cause significant error
 Vibrational temperatures:    544.64  6112.00
          (Kelvin)

 Zero-point correction=                           0.010540 (Hartree/Particle)
 Thermal correction to Energy=                    0.013704
 Thermal correction to Enthalpy=                  0.014648
 Thermal correction to Gibbs Free Energy=        -0.009832
 Sum of electronic and zero-point Energies=           -100.879459
 Sum of electronic and thermal Energies=              -100.876296
 Sum of electronic and thermal Enthalpies=            -100.875351
 Sum of electronic and thermal Free Energies=         -100.899831

                     E (Thermal)             CV                S
                      KCal/Mol        Cal/Mol-Kelvin    Cal/Mol-Kelvin
 Total                    8.599              7.477             51.521
 Electronic               0.000              0.000              1.377
 Translational            0.889              2.981             35.068
 Rotational               0.889              2.981             14.031
 Vibrational              6.822              1.516              1.045
 Vibration     1          0.749              1.516              1.045

 Optimization completed.
    -- Stationary point found.

 1\1\GINC-NODE62\Freq\UTPSSh\6-31G(d)\F1H2(2)\RPEVERATI\07-Oct-2020\0\\
 #P Freq TPSSh/6-31G* 5D 7F Integral=UltraFineGrid SCF=(NoSymm,XQC,MaxC
 yc=120) IOp(1/33=1,3/174=1000000,3/175=2238200,3/177=0452900,3/178=465
 5000) EmpiricalDispersion=GD3BJ Geom=Check Guess=Read\\TS search on BH
 76.\\0,2\H,0.454989198,-1.4419739883,0.\F,-0.1640871277,0.3404642227,0
 .\H,-0.2909020703,-1.541869576,0.\\Version=ES64L-G16RevA.03\State=2-A'
 \HF=-100.8899992\S2=0.751355\S2-1=0.\S2A=0.750001\RMSD=0.000e+00\RMSF=
 2.197e-06\ZeroPoint=0.0105402\Thermal=0.0137035\Dipole=0.0386766,-0.28

 Normal termination of Gaussian 16 at Wed Oct  7 14:50:56 2020.
