 Gaussian 16, Revision A.03,

 ----------------------------------------------------------------------
 #P Opt(TS,MaxCyc=50,NoEigenTest,MaxStep=10,AddRedundant) TPSSh/6-31G*
 5D 7F Integral=UltraFineGrid SCF=(NoSymm,XQC,MaxCyc=120) IOp(1/33=1,3/
 174=1000000,3/175=2238200,3/177=0452900,3/178=4655000) EmpiricalDisper
 sion=GD3BJ
 ----------------------------------------------------------------------

 TstMul:  Mul=     2
 TstMul:  ICh=     0
 TstMul:  Mul=     2
 Symbolic Z-matrix:
 Charge =  0 Multiplicity = 2

 SCF Done:  E(UTPSSh) =  -96.3760910243     A.U. after   14 cycles
 SCF Done:  E(UTPSSh) =  -96.3761157133     A.U. after   12 cycles
 SCF Done:  E(UTPSSh) =  -96.3766140268     A.U. after   12 cycles
 SCF Done:  E(UTPSSh) =  -96.3766910612     A.U. after   12 cycles
 SCF Done:  E(UTPSSh) =  -96.3768691576     A.U. after   12 cycles
 SCF Done:  E(UTPSSh) =  -96.3765935826     A.U. after   15 cycles
 SCF Done:  E(UTPSSh) =  -96.3764287008     A.U. after   14 cycles
 SCF Done:  E(UTPSSh) =  -96.3766165085     A.U. after   13 cycles
 SCF Done:  E(UTPSSh) =  -96.3762775836     A.U. after   13 cycles
 SCF Done:  E(UTPSSh) =  -96.3762647339     A.U. after   13 cycles
 SCF Done:  E(UTPSSh) =  -96.3762671863     A.U. after   10 cycles
 SCF Done:  E(UTPSSh) =  -96.3762692957     A.U. after   11 cycles
 SCF Done:  E(UTPSSh) =  -96.3762727135     A.U. after   11 cycles
 SCF Done:  E(UTPSSh) =  -96.3762869215     A.U. after   12 cycles
 SCF Done:  E(UTPSSh) =  -96.3762979632     A.U. after   13 cycles
 SCF Done:  E(UTPSSh) =  -96.3762995173     A.U. after    9 cycles
 SCF Done:  E(UTPSSh) =  -96.3763000201     A.U. after    9 cycles
 Optimization completed.
    -- Stationary point found.
 Normal termination of Gaussian 16 at Wed Oct  7 14:48:33 2020.
 Gaussian 16:  ES64L-G16RevA.03 25-Dec-2016

 ----------------------------------------------------------------------
 #P Freq TPSSh/6-31G* 5D 7F Integral=UltraFineGrid SCF=(NoSymm,XQC,MaxC
 yc=120) IOp(1/33=1,3/174=1000000,3/175=2238200,3/177=0452900,3/178=465
 5000) EmpiricalDispersion=GD3BJ Geom=Check Guess=Read
 ----------------------------------------------------------------------

 TstMul:  Mul=     2
 TstMul:  ICh=     0
 TstMul:  Mul=     2
 Structure from the checkpoint file:  "MN_95_RKT21_BH76_TPSShDBJ_631Gs.chk"
 Charge =  0 Multiplicity = 2

                         Standard orientation:
 ---------------------------------------------------------------------
 Center     Atomic      Atomic             Coordinates (Angstroms)
 Number     Number       Type             X           Y           Z
 ---------------------------------------------------------------------
      1          6           0       -1.269755   -0.000008    0.013732
      2          7           0        1.319487   -0.000010   -0.138572
      3          1           0       -1.607082    0.908286   -0.486254
      4          1           0       -1.440195    0.006777    1.090101
      5          1           0       -1.606042   -0.914958   -0.474656
      6          1           0        0.074391   -0.000041   -0.204714
      7          1           0        1.480493    0.807486    0.481528
      8          1           0        1.480558   -0.807431    0.481608
 ---------------------------------------------------------------------

 SCF Done:  E(UTPSSh) =  -96.3763000201     A.U. after    1 cycles

 The electronic state is 2-A.
 Alpha  occ. eigenvalues --  -14.25774 -10.11984  -0.82813  -0.67545  -0.43674
 Alpha  occ. eigenvalues --   -0.42633  -0.39161  -0.39001  -0.27377  -0.20588
 Alpha virt. eigenvalues --    0.08437   0.13079   0.15590   0.16859   0.17289
 Alpha virt. eigenvalues --    0.28523   0.50978   0.52024   0.55688   0.70871
 Alpha virt. eigenvalues --    0.73110   0.73121   0.89158   0.89192   0.90281

  Beta  occ. eigenvalues --  -14.24503 -10.10932  -0.79918  -0.65221  -0.43051
  Beta  occ. eigenvalues --   -0.39819  -0.38442  -0.38398  -0.24958
  Beta virt. eigenvalues --   -0.09196   0.09296   0.14094   0.16126   0.17752
  Beta virt. eigenvalues --    0.18150   0.30319   0.51532   0.52912   0.60510
  Beta virt. eigenvalues --    0.73061   0.73569   0.76131   0.90626   0.90986

 Mulliken charges and spin densities:
               1          2
     1  C   -0.668821   0.612501
     2  N   -0.785488   0.565449
     3  H    0.187308  -0.017450
     4  H    0.176086  -0.021919
     5  H    0.187214  -0.017489
     6  H    0.298956  -0.091479
     7  H    0.302371  -0.014806
     8  H    0.302374  -0.014807
 Sum of Mulliken charges =   0.00000   1.00000

 Dipole moment (field-independent basis, Debye):
    X=             -0.6363    Y=              0.0001    Z=              1.7166  Tot=              1.8307
 Quadrupole moment (field-independent basis, Debye-Ang):
   XX=            -16.1780   YY=            -13.5762   ZZ=            -15.4967
   XY=              0.0001   XZ=              3.0833   YZ=             -0.0004

  Exact polarizability:  43.479   0.001  21.665   0.621  -0.000  19.196
 Approx polarizability:  55.815   0.001  27.719  -0.598  -0.000  24.473

 ******    1 imaginary frequencies (negative Signs) ******

                      1                      2                      3
                      A                      A                      A
 Frequencies --  -1705.3671                38.7223               382.9992
 Red. masses --      1.0739                 1.0268                 1.2051
 Frc consts  --      1.8402                 0.0009                 0.1042
 IR Inten    --    375.0444                36.1827                 9.1498

                      4                      5                      6
                      A                      A                      A
 Frequencies --    401.0727               558.5496               807.0605
 Red. masses --      1.0245                 2.4929                 1.1076
 Frc consts  --      0.0971                 0.4582                 0.4251
 IR Inten    --      2.7594                 3.8210                 6.4465

                      7                      8                      9
                      A                      A                      A
 Frequencies --    881.0496              1174.7722              1409.9553
 Red. masses --      1.2422                 1.1803                 1.1105
 Frc consts  --      0.5681                 0.9597                 1.3007
 IR Inten    --     89.7586                15.9427               155.4672

                     10                     11                     12
                      A                      A                      A
 Frequencies --   1471.8879              1482.5209              1565.6991
 Red. masses --      1.0947                 1.0613                 1.0305
 Frc consts  --      1.3973                 1.3743                 1.4884
 IR Inten    --      7.3124                 6.8025                 9.8058

                     13                     14                     15
                      A                      A                      A
 Frequencies --   1652.2248              3088.5434              3219.7205
 Red. masses --      1.0636                 1.0199                 1.1095
 Frc consts  --      1.7107                 5.7321                 6.7765
 IR Inten    --     21.0386                 4.0548                15.7233

                     16                     17                     18
                      A                      A                      A
 Frequencies --   3220.7677              3348.8881              3449.7166
 Red. masses --      1.1096                 1.0495                 1.0885
 Frc consts  --      6.7819                 6.9347                 7.6324
 IR Inten    --     18.7770                 8.8116                 5.9192

 - Thermochemistry -
 -------------------
 Temperature   298.150 Kelvin.  Pressure   1.00000 Atm.
 Atom     1 has atomic number  6 and mass  12.00000

 Molecular mass:    32.05002 amu.
 Principal axes and moments of inertia in atomic units:
                           1         2         3
     Eigenvalues --    19.19647 206.34604 208.50001
           X            0.99969   0.00000   0.02510
           Y           -0.00000   1.00000  -0.00001
           Z           -0.02510   0.00001   0.99969
 This molecule is an asymmetric top.
 Rotational symmetry number  1.
 Rotational temperatures (Kelvin)      4.51197     0.41975     0.41541
 Rotational constants (GHZ):          94.01422     8.74619     8.65583
    1 imaginary frequencies ignored.
 Zero-point vibrational energy     168399.2 (Joules/Mol)
                                   40.24838 (Kcal/Mol)
 Warning -- explicit consideration of   4 degrees of freedom as
           vibrations may cause significant error
 Vibrational temperatures:     55.71   551.05   577.05   803.63  1161.18
          (Kelvin)           1267.63  1690.24  2028.61  2117.72  2133.02
                             2252.69  2377.18  4443.73  4632.46  4633.97
                             4818.30  4963.37

 Zero-point correction=                           0.064140 (Hartree/Particle)
 Thermal correction to Energy=                    0.068827
 Thermal correction to Enthalpy=                  0.069771
 Thermal correction to Gibbs Free Energy=         0.037778
 Sum of electronic and zero-point Energies=            -96.312160
 Sum of electronic and thermal Energies=               -96.307473
 Sum of electronic and thermal Enthalpies=             -96.306529
 Sum of electronic and thermal Free Energies=          -96.338522

                     E (Thermal)             CV                S
                      KCal/Mol        Cal/Mol-Kelvin    Cal/Mol-Kelvin
 Total                   43.190             13.794             67.336
 Electronic               0.000              0.000              1.377
 Translational            0.889              2.981             36.326
 Rotational               0.889              2.981             21.340
 Vibrational             41.412              7.832              8.292
 Vibration     1          0.594              1.981              5.323
 Vibration     2          0.752              1.506              1.027
 Vibration     3          0.767              1.468              0.959
 Vibration     4          0.914              1.121              0.527

                           ! Non-Optimized Parameters !
 Normal termination of Gaussian 16 at Wed Oct  7 14:49:15 2020.
