 Gaussian 16, Revision A.03,

 ----------------------------------------------------------------------
 #P Opt(TS,MaxCyc=50,NoEigenTest,MaxStep=10,AddRedundant) TPSSh/6-31G*
 5D 7F Integral=UltraFineGrid SCF=(NoSymm,XQC,MaxCyc=120) IOp(1/33=1,3/
 174=1000000,3/175=2238200,3/177=0452900,3/178=4655000) EmpiricalDisper
 sion=GD3BJ
 ----------------------------------------------------------------------

 TstMul:  Mul=     2
 TstMul:  ICh=     0
 TstMul:  Mul=     2
 Symbolic Z-matrix:
 Charge =  0 Multiplicity = 2

 SCF Done:  E(UTPSSh) =  -399.886140420     A.U. after   14 cycles
 SCF Done:  E(UTPSSh) =  -399.886186954     A.U. after   10 cycles
 SCF Done:  E(UTPSSh) =  -399.886159085     A.U. after   10 cycles
 SCF Done:  E(UTPSSh) =  -399.885668560     A.U. after   12 cycles
 SCF Done:  E(UTPSSh) =  -399.885279952     A.U. after   12 cycles
 SCF Done:  E(UTPSSh) =  -399.884956286     A.U. after   12 cycles
 SCF Done:  E(UTPSSh) =  -399.884637654     A.U. after   12 cycles
 SCF Done:  E(UTPSSh) =  -399.884356790     A.U. after   12 cycles
 SCF Done:  E(UTPSSh) =  -399.884099215     A.U. after   12 cycles
 SCF Done:  E(UTPSSh) =  -399.883854772     A.U. after   12 cycles
 SCF Done:  E(UTPSSh) =  -399.880863697     A.U. after   11 cycles
 SCF Done:  E(UTPSSh) =  -399.880805476     A.U. after   10 cycles
 SCF Done:  E(UTPSSh) =  -399.880774603     A.U. after   11 cycles
 SCF Done:  E(UTPSSh) =  -399.880784744     A.U. after   11 cycles
 SCF Done:  E(UTPSSh) =  -399.880823027     A.U. after   11 cycles
 SCF Done:  E(UTPSSh) =  -399.880806810     A.U. after   11 cycles
 SCF Done:  E(UTPSSh) =  -399.880805296     A.U. after   11 cycles
 SCF Done:  E(UTPSSh) =  -399.880805329     A.U. after    8 cycles
 SCF Done:  E(UTPSSh) =  -399.880805333     A.U. after    8 cycles
 Optimization completed.
    -- Stationary point found.
 Normal termination of Gaussian 16 at Wed Oct  7 14:50:57 2020.
 Gaussian 16:  ES64L-G16RevA.03 25-Dec-2016

 ----------------------------------------------------------------------
 #P Freq TPSSh/6-31G* 5D 7F Integral=UltraFineGrid SCF=(NoSymm,XQC,MaxC
 yc=120) IOp(1/33=1,3/174=1000000,3/175=2238200,3/177=0452900,3/178=465
 5000) EmpiricalDispersion=GD3BJ Geom=Check Guess=Read
 ----------------------------------------------------------------------

 TstMul:  Mul=     2
 TstMul:  ICh=     0
 TstMul:  Mul=     2
 Structure from the checkpoint file:  "MN_90_RKT16_BH76_TPSShDBJ_631Gs.chk"
 Charge =  0 Multiplicity = 2

                         Standard orientation:
 ---------------------------------------------------------------------
 Center     Atomic      Atomic             Coordinates (Angstroms)
 Number     Number       Type             X           Y           Z
 ---------------------------------------------------------------------
      1          1           0        0.975110   -0.670396    0.000000
      2         16           0        0.000000    0.258592    0.000000
      3          1           0       -0.975072   -0.670429    0.000000
      4          1           0       -0.000038   -2.796650    0.000000
 ---------------------------------------------------------------------

 SCF Done:  E(UTPSSh) =  -399.880805333     A.U. after    1 cycles

 The electronic state is 2-A'.
 Alpha  occ. eigenvalues --  -88.71883  -7.87287  -5.82405  -5.82101  -5.81237
 Alpha  occ. eigenvalues --   -0.73237  -0.44275  -0.36857  -0.30586  -0.25113
 Alpha virt. eigenvalues --    0.00751   0.05671   0.31768   0.33759   0.35507
 Alpha virt. eigenvalues --    0.36687   0.67193   0.68770   0.74233   0.74674
 Alpha virt. eigenvalues --    0.74867   0.79760   1.04939   1.21075
  Beta  occ. eigenvalues --  -88.71855  -7.87263  -5.82390  -5.82013  -5.81222
  Beta  occ. eigenvalues --   -0.73049  -0.44211  -0.35892  -0.25071
  Beta virt. eigenvalues --   -0.20146   0.00795   0.05795   0.31810   0.33827
  Beta virt. eigenvalues --    0.35780   0.36702   0.67333   0.69735   0.74275
  Beta virt. eigenvalues --    0.75143   0.75220   0.81080   1.05050   1.21209

 Mulliken charges and spin densities:
               1          2
     1  H    0.125303  -0.003260
     2  S   -0.232559   0.038073
     3  H    0.125302  -0.003261
     4  H   -0.018045   0.968447
 Sum of Mulliken charges =  -0.00000   1.00000

 Dipole moment (field-independent basis, Debye):
    X=              0.0000    Y=             -1.1729    Z=              0.0000  Tot=              1.1729
 Quadrupole moment (field-independent basis, Debye-Ang):
   XX=            -13.4122   YY=            -15.8908   ZZ=            -17.8332
   XY=              0.0000   XZ=              0.0000   YZ=              0.0000

  Exact polarizability:  17.582   0.000  24.228  -0.000   0.000  11.140
 Approx polarizability:  26.465   0.000  35.526  -0.000  -0.000  14.011

 ******    2 imaginary frequencies (negative Signs) ******

                      1                      2                      3
                     A"                     A'                     A'
 Frequencies --   -354.6518              -173.3823               249.6312
 Red. masses --      1.0330                 1.0102                 1.0352
 Frc consts  --      0.0765                 0.0179                 0.0380
 IR Inten    --     65.0834                23.1705                11.3939

                      4                      5                      6
                     A'                     A'                     A'
 Frequencies --   1246.5578              2701.1828              2719.0986
 Red. masses --      1.0398                 1.0352                 1.0402
 Frc consts  --      0.9520                 4.4501                 4.5313
 IR Inten    --      0.3716                18.4740                11.8389

 - Thermochemistry -
 -------------------
 Temperature   298.150 Kelvin.  Pressure   1.00000 Atm.
 Atom     1 has atomic number  1 and mass   1.00783

 Molecular mass:    34.99555 amu.
 Principal axes and moments of inertia in atomic units:
                           1         2         3
     Eigenvalues --     6.84389  37.30517  44.14906
           X            0.00001   1.00000   0.00000
           Y            1.00000  -0.00001   0.00000
           Z            0.00000   0.00000   1.00000
 This molecule is an asymmetric top.
 Rotational symmetry number  1.
 Rotational temperatures (Kelvin)     12.65566     2.32177     1.96185
 Rotational constants (GHZ):         263.70113    48.37778    40.87836
    2 imaginary frequencies ignored.
 Zero-point vibrational energy      41369.7 (Joules/Mol)
                                    9.88759 (Kcal/Mol)
 Warning -- explicit consideration of   1 degrees of freedom as
           vibrations may cause significant error
 Vibrational temperatures:    359.16  1793.52  3886.40  3912.18
          (Kelvin)

 Zero-point correction=                           0.015757 (Hartree/Particle)
 Thermal correction to Energy=                    0.019090
 Thermal correction to Enthalpy=                  0.020035
 Thermal correction to Gibbs Free Energy=        -0.006956
 Sum of electronic and zero-point Energies=           -399.865048
 Sum of electronic and thermal Energies=              -399.861715
 Sum of electronic and thermal Enthalpies=            -399.860771
 Sum of electronic and thermal Free Energies=         -399.887761

                     E (Thermal)             CV                S
                      KCal/Mol        Cal/Mol-Kelvin    Cal/Mol-Kelvin
 Total                   11.979              7.903             56.806
 Electronic               0.000              0.000              1.377
 Translational            0.889              2.981             36.588
 Rotational               0.889              2.981             17.073
 Vibrational             10.202              1.941              1.767
 Vibration     1          0.662              1.763              1.733

 Optimization completed.
    -- Stationary point found.

 1\1\GINC-NODE54\Freq\UTPSSh\6-31G(d)\H3S1(2)\RPEVERATI\07-Oct-2020\0\\
 #P Freq TPSSh/6-31G* 5D 7F Integral=UltraFineGrid SCF=(NoSymm,XQC,MaxC
 yc=120) IOp(1/33=1,3/174=1000000,3/175=2238200,3/177=0452900,3/178=465
 5000) EmpiricalDispersion=GD3BJ Geom=Check Guess=Read\\TS search on BH
 76.\\0,2\H,1.0143831918,-0.7297749918,0.\S,0.2352212903,0.3687529922,0
 .\H,-0.8997119853,-0.3563482562,0.\H,-0.3498935552,-2.6299375452,0.\\V
 ersion=ES64L-G16RevA.03\State=2-A'\HF=-399.8808053\S2=0.750079\S2-1=0.
 \S2A=0.75\RMSD=5.182e-10\RMSF=1.045e-06\ZeroPoint=0.0157569\Thermal=0.

 Normal termination of Gaussian 16 at Wed Oct  7 14:51:24 2020.
