 Gaussian 16, Revision A.03,

 ----------------------------------------------------------------------
 #P Opt(TS,MaxCyc=50,NoEigenTest,MaxStep=10,AddRedundant) TPSSh/6-31G*
 5D 7F Integral=UltraFineGrid SCF=(NoSymm,XQC,MaxCyc=120) IOp(1/33=1,3/
 174=1000000,3/175=2238200,3/177=0452900,3/178=4655000) EmpiricalDisper
 sion=GD3BJ
 ----------------------------------------------------------------------

 TstMul:  Mul=     2
 TstMul:  ICh=     0
 TstMul:  Mul=     2
 Symbolic Z-matrix:
 Charge =  0 Multiplicity = 2

 SCF Done:  E(UTPSSh) =  -135.697993781     A.U. after   14 cycles
 SCF Done:  E(UTPSSh) =  -135.698002648     A.U. after   10 cycles
 SCF Done:  E(UTPSSh) =  -135.698023910     A.U. after   11 cycles
 SCF Done:  E(UTPSSh) =  -135.698164249     A.U. after   13 cycles
 SCF Done:  E(UTPSSh) =  -135.698272338     A.U. after   13 cycles
 SCF Done:  E(UTPSSh) =  -135.698361006     A.U. after   12 cycles
 SCF Done:  E(UTPSSh) =  -135.698364844     A.U. after   10 cycles
 Optimization completed.
    -- Stationary point found.
 Normal termination of Gaussian 16 at Sun Oct 11 11:59:15 2020.
 Gaussian 16:  ES64L-G16RevA.03 25-Dec-2016

 ----------------------------------------------------------------------
 #P Freq TPSSh/6-31G* 5D 7F Integral=UltraFineGrid SCF=(NoSymm,XQC,MaxC
 yc=120) IOp(1/33=1,3/174=1000000,3/175=2238200,3/177=0452900,3/178=465
 5000) EmpiricalDispersion=GD3BJ Geom=Check Guess=Read
 ----------------------------------------------------------------------

 TstMul:  Mul=     2
 TstMul:  ICh=     0
 TstMul:  Mul=     2
 Structure from the checkpoint file:  "MN_94_RKT20_BH76_TPSShDBJ_631Gs.chk"
 Charge =  0 Multiplicity = 2

                         Standard orientation:
 ---------------------------------------------------------------------
 Center     Atomic      Atomic             Coordinates (Angstroms)
 Number     Number       Type             X           Y           Z
 ---------------------------------------------------------------------
      1          6           0       -1.517543   -0.433083   -0.000137
      2          6           0       -0.500745    0.687726   -0.000110
      3          7           0        1.891900   -0.343026    0.000206
      4          1           0       -1.407643   -1.068055   -0.885807
      5          1           0       -1.407351   -1.067904    0.885602
      6          1           0       -2.543796   -0.036597   -0.000010
      7          1           0       -0.496882    1.305109   -0.902405
      8          1           0       -0.496680    1.304536    0.902627
      9          1           0        0.684077    0.079840   -0.000001
     10          1           0        2.267431    0.177842   -0.806665
     11          1           0        2.267272    0.178551    0.806695
 ---------------------------------------------------------------------

 SCF Done:  E(UTPSSh) =  -135.698364844     A.U. after    1 cycles

 The electronic state is 2-A.
 Alpha  occ. eigenvalues --  -14.25270 -10.12225 -10.11055  -0.82148  -0.73463
 Alpha  occ. eigenvalues --   -0.59733  -0.43663  -0.43413  -0.42194  -0.37063
 Alpha  occ. eigenvalues --   -0.35601  -0.33507  -0.26776  -0.19476
 Alpha virt. eigenvalues --    0.08467   0.12232   0.14623   0.15078   0.16612
 Alpha virt. eigenvalues --    0.17344   0.19584   0.23371   0.29532   0.49892
 Alpha virt. eigenvalues --    0.52843   0.55655   0.59877   0.61097   0.66294

  Beta  occ. eigenvalues --  -14.23969 -10.11227 -10.11087  -0.79224  -0.72346
  Beta  occ. eigenvalues --   -0.58456  -0.42865  -0.41750  -0.41477  -0.35628
  Beta  occ. eigenvalues --   -0.35060  -0.33295  -0.24446
  Beta virt. eigenvalues --   -0.08547   0.09232   0.12670   0.15119   0.15879
  Beta virt. eigenvalues --    0.16953   0.17679   0.20163   0.24222   0.31309
  Beta virt. eigenvalues --    0.50572   0.53172   0.56306   0.61384   0.63445

 Mulliken charges and spin densities:
               1          2
     1  C   -0.465308  -0.028560
     2  C   -0.479012   0.559466
     3  N   -0.782544   0.585213
     4  H    0.171984   0.004464
     5  H    0.171987   0.004456
     6  H    0.165447   0.033761
     7  H    0.168820  -0.016836
     8  H    0.168816  -0.016835
     9  H    0.282266  -0.094002
    10  H    0.298775  -0.015563
    11  H    0.298770  -0.015563
 Sum of Mulliken charges =  -0.00000   1.00000

 Dipole moment (field-independent basis, Debye):
    X=             -0.2667    Y=              1.7643    Z=             -0.0006  Tot=              1.7844
 Quadrupole moment (field-independent basis, Debye-Ang):
   XX=            -20.5103   YY=            -23.2502   ZZ=            -20.0083
   XY=              3.7032   XZ=             -0.0014   YZ=              0.0013

  Exact polarizability:  57.292  -4.618  31.106   0.004   0.001  31.236
 Approx polarizability:  71.841  -9.891  41.875   0.006   0.001  42.180

 ******    2 imaginary frequencies (negative Signs) ******

                      1                      2                      3
                      A                      A                      A
 Frequencies --  -1700.3134               -32.0882               147.5288
 Red. masses --      1.0788                 1.0827                 2.7083
 Frc consts  --      1.8376                 0.0007                 0.0347
 IR Inten    --    512.5696                51.7170                 5.4564

                      4                      5                      6
                      A                      A                      A
 Frequencies --    169.6249               434.7278               468.0051
 Red. masses --      1.0834                 1.0191                 2.4787
 Frc consts  --      0.0184                 0.1135                 0.3199
 IR Inten    --      0.2534                 1.6077                 1.1968

                      7                      8                      9
                      A                      A                      A
 Frequencies --    770.3301               773.9878               896.0752
 Red. masses --      1.1112                 1.3353                 1.0554
 Frc consts  --      0.3885                 0.4713                 0.4993
 IR Inten    --      6.0956                52.9248                 0.1424

                     10                     11                     12
                      A                      A                      A
 Frequencies --    946.4397              1057.5319              1207.6174
 Red. masses --      1.2345                 3.0097                 1.4035
 Frc consts  --      0.6515                 1.9832                 1.2059
 IR Inten    --     81.5495                 7.1132                13.0910

                     13                     14                     15
                      A                      A                      A
 Frequencies --   1249.0872              1376.4868              1437.3773
 Red. masses --      1.3886                 1.0887                 1.1968
 Frc consts  --      1.2764                 1.2154                 1.4569
 IR Inten    --      0.4061               111.3306                 0.1940

                     16                     17                     18
                      A                      A                      A
 Frequencies --   1503.0282              1529.4375              1534.1042
 Red. masses --      1.1329                 1.0359                 1.0500
 Frc consts  --      1.5080                 1.4277                 1.4559
 IR Inten    --      1.1970                 2.9803                 3.5261

                     19                     20                     21
                      A                      A                      A
 Frequencies --   1557.2244              1641.7997              3024.4462
 Red. masses --      1.0425                 1.0690                 1.0455
 Frc consts  --      1.4895                 1.6977                 5.6345
 IR Inten    --      9.2517                16.8224                31.9935

                     22                     23                     24
                      A                      A                      A
 Frequencies --   3088.0173              3097.8240              3123.3811
 Red. masses --      1.0635                 1.0776                 1.1025
 Frc consts  --      5.9753                 6.0928                 6.3370
 IR Inten    --      3.9663                46.3886                12.3911

                     25                     26                     27
                      A                      A                      A
 Frequencies --   3165.5897              3341.5176              3443.4594
 Red. masses --      1.1098                 1.0494                 1.0886
 Frc consts  --      6.5523                 6.9037                 7.6051
 IR Inten    --     45.4101                 8.6157                 7.5210

 - Thermochemistry -
 -------------------
 Temperature   298.150 Kelvin.  Pressure   1.00000 Atm.
 Atom     1 has atomic number  6 and mass  12.00000

 Molecular mass:    46.06567 amu.
 Principal axes and moments of inertia in atomic units:
                           1         2         3
     Eigenvalues --    70.76411 382.80750 421.18428
           X            0.99955   0.03006  -0.00009
           Y           -0.03006   0.99955   0.00002
           Z            0.00009  -0.00002   1.00000
 This molecule is an asymmetric top.
 Rotational symmetry number  1.
 Rotational temperatures (Kelvin)      1.22398     0.22626     0.20564
 Rotational constants (GHZ):          25.50362     4.71449     4.28492
    2 imaginary frequencies ignored.
 Zero-point vibrational energy     245142.6 (Joules/Mol)
                                   58.59050 (Kcal/Mol)
 Warning -- explicit consideration of   4 degrees of freedom as
           vibrations may cause significant error
 Vibrational temperatures:    212.26   244.05   625.48   673.35  1108.33
          (Kelvin)           1113.60  1289.25  1361.72  1521.55  1737.49
                             1797.16  1980.46  2068.07  2162.52  2200.52
                             2207.23  2240.50  2362.18  4351.50  4442.97
                             4457.08  4493.85  4554.58  4807.70  4954.37

 Zero-point correction=                           0.093370 (Hartree/Particle)
 Thermal correction to Energy=                    0.098354
 Thermal correction to Enthalpy=                  0.099298
 Thermal correction to Gibbs Free Energy=         0.065841
 Sum of electronic and zero-point Energies=           -135.604995
 Sum of electronic and thermal Energies=              -135.600011
 Sum of electronic and thermal Enthalpies=            -135.599067
 Sum of electronic and thermal Free Energies=         -135.632523

                     E (Thermal)             CV                S
                      KCal/Mol        Cal/Mol-Kelvin    Cal/Mol-Kelvin
 Total                   61.718             16.019             70.415
 Electronic               0.000              0.000              1.377
 Translational            0.889              2.981             37.408
 Rotational               0.889              2.981             23.949
 Vibrational             59.940             10.058              7.681
 Vibration     1          0.617              1.905              2.704
 Vibration     2          0.625              1.880              2.440
 Vibration     3          0.795              1.395              0.843
 Vibration     4          0.825              1.321              0.743

                           ! Non-Optimized Parameters !
 Normal termination of Gaussian 16 at Sun Oct 11 12:00:21 2020.
