 Gaussian 16, Revision A.03,

 ----------------------------------------------------------------------
 #P Opt(TS,MaxCyc=50,NoEigenTest,MaxStep=10,AddRedundant) TPSSh/6-31G*
 5D 7F Integral=UltraFineGrid SCF=(NoSymm,XQC,MaxCyc=120) IOp(1/33=1,3/
 174=1000000,3/175=2238200,3/177=0452900,3/178=4655000) EmpiricalDisper
 sion=GD3BJ
 ----------------------------------------------------------------------

 TstMul:  Mul=     3
 TstMul:  ICh=     0
 TstMul:  Mul=     3
 Symbolic Z-matrix:
 Charge =  0 Multiplicity = 3

 SCF Done:  E(UTPSSh) =  -135.036145475     A.U. after   15 cycles
 SCF Done:  E(UTPSSh) =  -135.036420300     A.U. after   12 cycles
 SCF Done:  E(UTPSSh) =  -135.037311245     A.U. after   15 cycles
 SCF Done:  E(UTPSSh) =  -135.037966498     A.U. after   14 cycles
 SCF Done:  E(UTPSSh) =  -135.038276953     A.U. after   13 cycles
 SCF Done:  E(UTPSSh) =  -135.038433735     A.U. after   14 cycles
 SCF Done:  E(UTPSSh) =  -135.039101781     A.U. after   14 cycles
 SCF Done:  E(UTPSSh) =  -135.038396770     A.U. after   14 cycles
 SCF Done:  E(UTPSSh) =  -135.037937151     A.U. after   15 cycles
 SCF Done:  E(UTPSSh) =  -135.037931699     A.U. after   15 cycles
 SCF Done:  E(UTPSSh) =  -135.037087799     A.U. after   12 cycles
 SCF Done:  E(UTPSSh) =  -135.037149343     A.U. after   16 cycles
 SCF Done:  E(UTPSSh) =  -135.037151649     A.U. after   16 cycles
 SCF Done:  E(UTPSSh) =  -135.037182798     A.U. after   14 cycles
 SCF Done:  E(UTPSSh) =  -135.037184440     A.U. after    9 cycles
 SCF Done:  E(UTPSSh) =  -135.037185608     A.U. after   12 cycles
 SCF Done:  E(UTPSSh) =  -135.037185670     A.U. after    9 cycles
 SCF Done:  E(UTPSSh) =  -135.037185872     A.U. after   12 cycles
 SCF Done:  E(UTPSSh) =  -135.037185884     A.U. after    8 cycles
 Optimization completed.
    -- Stationary point found.
 Normal termination of Gaussian 16 at Wed Oct  7 14:59:45 2020.
 Gaussian 16:  ES64L-G16RevA.03 25-Dec-2016

 ----------------------------------------------------------------------
 #P Freq TPSSh/6-31G* 5D 7F Integral=UltraFineGrid SCF=(NoSymm,XQC,MaxC
 yc=120) IOp(1/33=1,3/174=1000000,3/175=2238200,3/177=0452900,3/178=465
 5000) EmpiricalDispersion=GD3BJ Geom=Check Guess=Read
 ----------------------------------------------------------------------

 TstMul:  Mul=     3
 TstMul:  ICh=     0
 TstMul:  Mul=     3
 Structure from the checkpoint file:  "MN_93_RKT19_BH76_TPSShDBJ_631Gs.chk"
 Charge =  0 Multiplicity = 3

                         Standard orientation:
 ---------------------------------------------------------------------
 Center     Atomic      Atomic             Coordinates (Angstroms)
 Number     Number       Type             X           Y           Z
 ---------------------------------------------------------------------
      1          6           0       -1.425133   -0.440546   -0.000003
      2          6           0       -0.446021    0.706924   -0.000000
      3          7           0        1.966541   -0.370799    0.000007
      4          1           0       -1.300076   -1.071454   -0.886615
      5          1           0       -1.300231   -1.071296    0.886743
      6          1           0       -2.463274   -0.073927   -0.000126
      7          1           0       -0.417066    1.312503   -0.908520
      8          1           0       -0.417225    1.312604    0.908456
      9          1           0        0.843630    0.074836    0.000046
     10          1           0        2.515379    0.514057   -0.000020
 ---------------------------------------------------------------------

 SCF Done:  E(UTPSSh) =  -135.037185884     A.U. after    1 cycles

 The electronic state is 3-A.
 Alpha  occ. eigenvalues --  -14.29124 -10.13062 -10.11591  -0.81545  -0.73887
 Alpha  occ. eigenvalues --   -0.60059  -0.44536  -0.43277  -0.38540  -0.36580
 Alpha  occ. eigenvalues --   -0.34200  -0.32110  -0.28709  -0.19884
 Alpha virt. eigenvalues --    0.09466   0.11935   0.14301   0.14782   0.16785
 Alpha virt. eigenvalues --    0.19245   0.23249   0.27641   0.48908   0.52642
 Alpha virt. eigenvalues --    0.55124   0.58503   0.60914   0.66114   0.70649

  Beta  occ. eigenvalues --  -14.26005 -10.11900 -10.11641  -0.74669  -0.71724
  Beta  occ. eigenvalues --   -0.58448  -0.42834  -0.42005  -0.37111  -0.36036
  Beta  occ. eigenvalues --   -0.33929  -0.27445
  Beta virt. eigenvalues --   -0.08823  -0.07979   0.10585   0.13038   0.15227
  Beta virt. eigenvalues --    0.15429   0.17144   0.19907   0.24264   0.30664
  Beta virt. eigenvalues --    0.49675   0.53777   0.55859   0.62670   0.64500

 Mulliken charges and spin densities:
               1          2
     1  C   -0.469740  -0.041105
     2  C   -0.462966   0.681313
     3  N   -0.525692   1.503353
     4  H    0.175000   0.006285
     5  H    0.174998   0.006284
     6  H    0.170266   0.040328
     7  H    0.176205  -0.021559
     8  H    0.176203  -0.021559
     9  H    0.293248  -0.112764
    10  H    0.292477  -0.040575
 Sum of Mulliken charges =  -0.00000   2.00000

 Dipole moment (field-independent basis, Debye):
    X=             -0.8392    Y=              1.6669    Z=             -0.0000  Tot=              1.8663
 Quadrupole moment (field-independent basis, Debye-Ang):
   XX=            -21.2975   YY=            -21.7545   ZZ=            -20.5221
   XY=              3.9313   XZ=             -0.0002   YZ=              0.0000

  Exact polarizability:  54.391  -3.403  32.044  -0.000   0.000  25.844
 Approx polarizability:  68.777  -8.415  43.430  -0.001   0.000  33.871

 ******    1 imaginary frequencies (negative Signs) ******

                      1                      2                      3
                      A                      A                      A
 Frequencies --  -1473.8843                54.6752               138.6534
 Red. masses --      1.1074                 1.0827                 2.8382
 Frc consts  --      1.4174                 0.0019                 0.0321
 IR Inten    --    440.3466                75.0966                 5.0526

                      4                      5                      6
                      A                      A                      A
 Frequencies --    162.4307               461.9121               482.1343
 Red. masses --      1.0997                 1.0668                 2.0874
 Frc consts  --      0.0171                 0.1341                 0.2859
 IR Inten    --      0.8805                 3.2703                 7.6125

                      7                      8                      9
                      A                      A                      A
 Frequencies --    717.3969               830.3931               923.7826
 Red. masses --      1.4030                 1.0485                 1.1576
 Frc consts  --      0.4254                 0.4260                 0.5820
 IR Inten    --     12.1626                 7.1904                35.6136

                     10                     11                     12
                      A                      A                      A
 Frequencies --   1062.3660              1166.6149              1190.1275
 Red. masses --      3.1136                 1.1037                 1.4810
 Frc consts  --      2.0705                 0.8850                 1.2359
 IR Inten    --      1.4529                24.1657                 4.1203

                     13                     14                     15
                      A                      A                      A
 Frequencies --   1247.3807              1436.3500              1494.9011
 Red. masses --      1.3266                 1.2008                 1.0783
 Frc consts  --      1.2162                 1.4596                 1.4197
 IR Inten    --      4.4649                 4.5396                24.7009

                     16                     17                     18
                      A                      A                      A
 Frequencies --   1508.1049              1529.0301              1532.0365
 Red. masses --      1.1150                 1.0375                 1.0504
 Frc consts  --      1.4941                 1.4292                 1.4526
 IR Inten    --     40.9114                 4.8561                 7.9530

                     19                     20                     21
                      A                      A                      A
 Frequencies --   3017.0483              3089.9654              3102.3802
 Red. masses --      1.0485                 1.0806                 1.0561
 Frc consts  --      5.6231                 6.0788                 5.9890
 IR Inten    --     29.8486                10.8366                33.3464

                     22                     23                     24
                      A                      A                      A
 Frequencies --   3124.8750              3181.8073              3290.2374
 Red. masses --      1.1026                 1.1119                 1.0726
 Frc consts  --      6.3433                 6.6325                 6.8414
 IR Inten    --     15.9609                37.9324                25.6931

 - Thermochemistry -
 -------------------
 Temperature   298.150 Kelvin.  Pressure   1.00000 Atm.
 Atom     1 has atomic number  6 and mass  12.00000

 Molecular mass:    45.05785 amu.
 Principal axes and moments of inertia in atomic units:
                           1         2         3
     Eigenvalues --    69.34898 361.06587 407.21492
           X            0.99925   0.03860  -0.00000
           Y           -0.03860   0.99925   0.00000
           Z            0.00000  -0.00000   1.00000
 This molecule is an asymmetric top.
 Rotational symmetry number  1.
 Rotational temperatures (Kelvin)      1.24896     0.23988     0.21270
 Rotational constants (GHZ):          26.02405     4.99837     4.43191
    1 imaginary frequencies ignored.
 Zero-point vibrational energy     207818.9 (Joules/Mol)
                                   49.66990 (Kcal/Mol)
 Warning -- explicit consideration of   5 degrees of freedom as
           vibrations may cause significant error
 Vibrational temperatures:     78.67   199.49   233.70   664.59   693.68
          (Kelvin)           1032.17  1194.75  1329.12  1528.51  1678.50
                             1712.33  1794.70  2066.59  2150.83  2169.83
                             2199.93  2204.26  4340.86  4445.77  4463.63
                             4496.00  4577.91  4733.92

 Zero-point correction=                           0.079154 (Hartree/Particle)
 Thermal correction to Energy=                    0.084918
 Thermal correction to Enthalpy=                  0.085862
 Thermal correction to Gibbs Free Energy=         0.049911
 Sum of electronic and zero-point Energies=           -134.958032
 Sum of electronic and thermal Energies=              -134.952268
 Sum of electronic and thermal Enthalpies=            -134.951324
 Sum of electronic and thermal Free Energies=         -134.987275

                     E (Thermal)             CV                S
                      KCal/Mol        Cal/Mol-Kelvin    Cal/Mol-Kelvin
 Total                   53.287             17.538             75.665
 Electronic               0.000              0.000              2.183
 Translational            0.889              2.981             37.342
 Rotational               0.889              2.981             23.837
 Vibrational             51.509             11.576             12.303
 Vibration     1          0.596              1.976              4.641
 Vibration     2          0.614              1.915              2.822
 Vibration     3          0.623              1.889              2.521
 Vibration     4          0.820              1.335              0.761
 Vibration     5          0.838              1.290              0.704

 Optimization completed.
    -- Stationary point found.
 Normal termination of Gaussian 16 at Wed Oct  7 15:00:30 2020.
