 Gaussian 16, Revision A.03,

 ----------------------------------------------------------------------
 #P Opt(TS,MaxCyc=50,NoEigenTest,MaxStep=10,AddRedundant) TPSSh/6-31G*
 5D 7F Integral=UltraFineGrid SCF=(NoSymm,XQC,MaxCyc=120) IOp(1/33=1,3/
 174=1000000,3/175=2238200,3/177=0452900,3/178=4655000) EmpiricalDisper
 sion=GD3BJ
 ----------------------------------------------------------------------

 TstMul:  Mul=     1
 TstMul:  ICh=     0
 TstMul:  Mul=     1
 Symbolic Z-matrix:
 Charge =  0 Multiplicity = 1

 SCF Done:  E(RTPSSh) =  -195.274314872     A.U. after   13 cycles
 SCF Done:  E(RTPSSh) =  -195.274643967     A.U. after   11 cycles
 SCF Done:  E(RTPSSh) =  -195.274630562     A.U. after    9 cycles
 SCF Done:  E(RTPSSh) =  -195.274579455     A.U. after   10 cycles
 SCF Done:  E(RTPSSh) =  -195.274537019     A.U. after    9 cycles
 SCF Done:  E(RTPSSh) =  -195.274479885     A.U. after   10 cycles
 SCF Done:  E(RTPSSh) =  -195.274430904     A.U. after   11 cycles
 SCF Done:  E(RTPSSh) =  -195.274616621     A.U. after   11 cycles
 SCF Done:  E(RTPSSh) =  -195.274660642     A.U. after   11 cycles
 SCF Done:  E(RTPSSh) =  -195.274717100     A.U. after   10 cycles
 SCF Done:  E(RTPSSh) =  -195.274742593     A.U. after   11 cycles
 SCF Done:  E(RTPSSh) =  -195.274745517     A.U. after    9 cycles
 SCF Done:  E(RTPSSh) =  -195.274747115     A.U. after    9 cycles
 Optimization completed.
    -- Stationary point found.
 Normal termination of Gaussian 16 at Wed Oct  7 14:49:36 2020.
 Gaussian 16:  ES64L-G16RevA.03 25-Dec-2016

 ----------------------------------------------------------------------
 #P Freq TPSSh/6-31G* 5D 7F Integral=UltraFineGrid SCF=(NoSymm,XQC,MaxC
 yc=120) IOp(1/33=1,3/174=1000000,3/175=2238200,3/177=0452900,3/178=465
 5000) EmpiricalDispersion=GD3BJ Geom=Check Guess=Read
 ----------------------------------------------------------------------

 TstMul:  Mul=     1
 TstMul:  ICh=     0
 TstMul:  Mul=     1
 Structure from the checkpoint file:  "MN_96_RKT22_BH76_TPSShDBJ_631Gs.chk"
 Charge =  0 Multiplicity = 1

                         Standard orientation:
 ---------------------------------------------------------------------
 Center     Atomic      Atomic             Coordinates (Angstroms)
 Number     Number       Type             X           Y           Z
 ---------------------------------------------------------------------
      1          6           0       -1.310191   -0.907753   -0.021436
      2          6           0       -1.213041    0.508225   -0.011771
      3          6           0       -0.000134    1.185728    0.151853
      4          6           0        1.212745    0.508500   -0.011738
      5          6           0        1.310353   -0.907602   -0.021589
      6          1           0        2.182139   -1.332581   -0.522545
      7          1           0        1.059708   -1.457086    0.885563
      8          1           0        2.045316    1.093309   -0.401881
      9          1           0       -0.000155    2.271040    0.087668
     10          1           0       -2.045441    1.092764   -0.402632
     11          1           0       -2.181877   -1.333199   -0.522166
     12          1           0        0.000703   -1.199643   -0.521461
     13          1           0       -1.058785   -1.457193    0.885537
 ---------------------------------------------------------------------

 SCF Done:  E(RTPSSh) =  -195.274747115     A.U. after    1 cycles

 The electronic state is 1-A.
 Alpha  occ. eigenvalues --  -10.12329 -10.12329 -10.11670 -10.11670 -10.11624
 Alpha  occ. eigenvalues --   -0.79786  -0.71470  -0.66788  -0.56800  -0.50888
 Alpha  occ. eigenvalues --   -0.47376  -0.40377  -0.39066  -0.39036  -0.36729
 Alpha  occ. eigenvalues --   -0.34224  -0.33098  -0.24272  -0.20497
 Alpha virt. eigenvalues --   -0.03019   0.02250   0.09573   0.12736   0.14447
 Alpha virt. eigenvalues --    0.17346   0.18524   0.18640   0.21694   0.23547
 Alpha virt. eigenvalues --    0.27547   0.29235   0.34914   0.41524   0.51232

 Mulliken charges:
               1
     1  C   -0.511545
     2  C   -0.095209
     3  C   -0.156836
     4  C   -0.095235
     5  C   -0.511707
     6  H    0.161817
     7  H    0.197032
     8  H    0.161534
     9  H    0.149470
    10  H    0.161538
    11  H    0.161801
    12  H    0.180295
    13  H    0.197046
 Sum of Mulliken charges =  -0.00000

 Dipole moment (field-independent basis, Debye):
    X=              0.0006    Y=              0.0119    Z=             -0.1442  Tot=              0.1447
 Quadrupole moment (field-independent basis, Debye-Ang):
   XX=            -29.9718   YY=            -29.7406   ZZ=            -33.5552
   XY=             -0.0002   XZ=              0.0012   YZ=             -1.3958

  Exact polarizability:  73.980   0.002  62.997   0.003  -0.556  29.681
 Approx polarizability: 133.724   0.006 112.439   0.003   4.145  44.432

 ******    1 imaginary frequencies (negative Signs) ******

                      1                      2                      3
                      A                      A                      A
 Frequencies --  -1563.4456               268.9025               458.9490
 Red. masses --      1.1847                 2.1178                 2.4797
 Frc consts  --      1.7062                 0.0902                 0.3077
 IR Inten    --     16.9839                 0.1548                 0.6971

                      4                      5                      6
                      A                      A                      A
 Frequencies --    504.4406               555.4510               612.1370
 Red. masses --      2.3218                 3.6135                 1.3196
 Frc consts  --      0.3481                 0.6569                 0.2913
 IR Inten    --      3.7194                 3.8200                28.9741

                      7                      8                      9
                      A                      A                      A
 Frequencies --    738.4702               797.4852               813.9865
 Red. masses --      2.0169                 1.2433                 1.2520
 Frc consts  --      0.6481                 0.4659                 0.4888
 IR Inten    --      9.7998                 4.3890                45.8608

                     10                     11                     12
                      A                      A                      A
 Frequencies --    978.4726               985.0113              1007.9689
 Red. masses --      1.3866                 1.3124                 1.4931
 Frc consts  --      0.7822                 0.7502                 0.8938
 IR Inten    --      8.0374                 1.4110                18.1726

                     13                     14                     15
                      A                      A                      A
 Frequencies --   1014.7777              1018.1017              1109.7678
 Red. masses --      2.1155                 1.3459                 1.3266
 Frc consts  --      1.2835                 0.8219                 0.9626
 IR Inten    --      3.3503                 0.3334                 2.8397

                     16                     17                     18
                      A                      A                      A
 Frequencies --   1142.1720              1196.0841              1268.4888
 Red. masses --      1.5962                 1.1964                 1.5141
 Frc consts  --      1.2269                 1.0084                 1.4354
 IR Inten    --      1.6718                 6.1388                 6.9476

                     19                     20                     21
                      A                      A                      A
 Frequencies --   1284.4072              1419.2567              1453.5692
 Red. masses --      1.2424                 1.0923                 1.4017
 Frc consts  --      1.2076                 1.2963                 1.7449
 IR Inten    --     10.8673                 8.2793                 2.4381

                     22                     23                     24
                      A                      A                      A
 Frequencies --   1481.5135              1544.5131              1557.8652
 Red. masses --      1.0777                 1.5164                 1.6484
 Frc consts  --      1.3936                 2.1313                 2.3571
 IR Inten    --      3.7953                 0.1017                 0.8617

                     25                     26                     27
                      A                      A                      A
 Frequencies --   1563.6458              1614.0667              3111.3149
 Red. masses --      3.5559                 1.5548                 1.0565
 Frc consts  --      5.1225                 2.3865                 6.0258
 IR Inten    --      7.7528                 4.2284                33.0937

                     28                     29                     30
                      A                      A                      A
 Frequencies --   3112.3123              3151.5662              3155.8348
 Red. masses --      1.0565                 1.0875                 1.0926
 Frc consts  --      6.0298                 6.3638                 6.4114
 IR Inten    --     15.5495                 0.4794                10.0122

                     31                     32                     33
                      A                      A                      A
 Frequencies --   3174.3044              3178.6100              3192.8379
 Red. masses --      1.1103                 1.1073                 1.0946
 Frc consts  --      6.5918                 6.5916                 6.5747
 IR Inten    --     35.6940                19.6684                32.1175

 - Thermochemistry -
 -------------------
 Temperature   298.150 Kelvin.  Pressure   1.00000 Atm.
 Atom     1 has atomic number  6 and mass  12.00000

 Molecular mass:    68.06260 amu.
 Principal axes and moments of inertia in atomic units:
                           1         2         3
     Eigenvalues --   223.94892 356.39586 558.91941
           X            1.00000  -0.00001   0.00001
           Y            0.00001   0.99977  -0.02145
           Z           -0.00001   0.02145   0.99977
 This molecule is an asymmetric top.
 Rotational symmetry number  1.
 Rotational temperatures (Kelvin)      0.38676     0.24303     0.15497
 Rotational constants (GHZ):           8.05872     5.06387     3.22898
    1 imaginary frequencies ignored.
 Zero-point vibrational energy     289892.8 (Joules/Mol)
                                   69.28603 (Kcal/Mol)
 Warning -- explicit consideration of   5 degrees of freedom as
           vibrations may cause significant error
 Vibrational temperatures:    386.89   660.33   725.78   799.17   880.73
          (Kelvin)           1062.49  1147.40  1171.15  1407.80  1417.21
                             1450.24  1460.04  1464.82  1596.71  1643.33
                             1720.90  1825.07  1847.98  2041.99  2091.36
                             2131.57  2222.21  2241.42  2249.74  2322.28
                             4476.49  4477.92  4534.40  4540.54  4567.12
                             4573.31  4593.78

 Zero-point correction=                           0.110414 (Hartree/Particle)
 Thermal correction to Energy=                    0.115079
 Thermal correction to Enthalpy=                  0.116024
 Thermal correction to Gibbs Free Energy=         0.083103
 Sum of electronic and zero-point Energies=           -195.164333
 Sum of electronic and thermal Energies=              -195.159668
 Sum of electronic and thermal Enthalpies=            -195.158723
 Sum of electronic and thermal Free Energies=         -195.191644

                     E (Thermal)             CV                S
                      KCal/Mol        Cal/Mol-Kelvin    Cal/Mol-Kelvin
 Total                   72.213             17.878             69.286
 Electronic               0.000              0.000              0.000
 Translational            0.889              2.981             38.571
 Rotational               0.889              2.981             25.304
 Vibrational             70.436             11.917              5.412
 Vibration     1          0.673              1.730              1.603
 Vibration     2          0.817              1.341              0.769
 Vibration     3          0.860              1.240              0.647
 Vibration     4          0.911              1.128              0.533
 Vibration     5          0.971              1.006              0.429

 Optimization completed.
    -- Stationary point found.
 Normal termination of Gaussian 16 at Wed Oct  7 14:51:32 2020.
