 Gaussian 16, Revision A.03,

 ----------------------------------------------------------------------
 #P Opt(TS,MaxCyc=50,NoEigenTest,MaxStep=10,AddRedundant) TPSSh/6-31G*
 5D 7F Integral=UltraFineGrid SCF=(NoSymm,XQC,MaxCyc=120) IOp(1/33=1,3/
 174=1000000,3/175=2238200,3/177=0452900,3/178=4655000) EmpiricalDisper
 sion=GD3BJ
 ----------------------------------------------------------------------

 TstMul:  Mul=     3
 TstMul:  ICh=     0
 TstMul:  Mul=     3
 Symbolic Z-matrix:
 Charge =  0 Multiplicity = 3

 SCF Done:  E(UTPSSh) =  -95.7144517222     A.U. after   14 cycles
 SCF Done:  E(UTPSSh) =  -95.7145713705     A.U. after   13 cycles
 SCF Done:  E(UTPSSh) =  -95.7150903718     A.U. after   14 cycles
 SCF Done:  E(UTPSSh) =  -95.7145188716     A.U. after   14 cycles
 SCF Done:  E(UTPSSh) =  -95.7142854605     A.U. after   14 cycles
 SCF Done:  E(UTPSSh) =  -95.7141725648     A.U. after   14 cycles
 SCF Done:  E(UTPSSh) =  -95.7140845255     A.U. after   14 cycles
 SCF Done:  E(UTPSSh) =  -95.7140821984     A.U. after   13 cycles
 SCF Done:  E(UTPSSh) =  -95.7140829768     A.U. after    9 cycles
 SCF Done:  E(UTPSSh) =  -95.7140901268     A.U. after   13 cycles
 SCF Done:  E(UTPSSh) =  -95.7140844487     A.U. after   13 cycles
 SCF Done:  E(UTPSSh) =  -95.7140875191     A.U. after   12 cycles
 SCF Done:  E(UTPSSh) =  -95.7140975802     A.U. after   13 cycles
 SCF Done:  E(UTPSSh) =  -95.7141062671     A.U. after   14 cycles
 SCF Done:  E(UTPSSh) =  -95.7141114930     A.U. after   13 cycles
 SCF Done:  E(UTPSSh) =  -95.7141134021     A.U. after   13 cycles
 SCF Done:  E(UTPSSh) =  -95.7141138152     A.U. after    9 cycles
 Optimization completed.
    -- Stationary point found.
 Normal termination of Gaussian 16 at Wed Oct  7 14:47:56 2020.
 Gaussian 16:  ES64L-G16RevA.03 25-Dec-2016

 ----------------------------------------------------------------------
 #P Freq TPSSh/6-31G* 5D 7F Integral=UltraFineGrid SCF=(NoSymm,XQC,MaxC
 yc=120) IOp(1/33=1,3/174=1000000,3/175=2238200,3/177=0452900,3/178=465
 5000) EmpiricalDispersion=GD3BJ Geom=Check Guess=Read
 ----------------------------------------------------------------------

 TstMul:  Mul=     3
 TstMul:  ICh=     0
 TstMul:  Mul=     3
 Structure from the checkpoint file:  "MN_92_RKT18_BH76_TPSShDBJ_631Gs.chk"
 Charge =  0 Multiplicity = 3

                         Standard orientation:
 ---------------------------------------------------------------------
 Center     Atomic      Atomic             Coordinates (Angstroms)
 Number     Number       Type             X           Y           Z
 ---------------------------------------------------------------------
      1          6           0       -1.228078   -0.012483    0.000033
      2          7           0        1.421241    0.128887    0.000098
      3          1           0       -1.432901   -0.531841    0.934560
      4          1           0       -1.427033   -0.587566   -0.902604
      5          1           0       -1.551651    1.026239   -0.032559
      6          1           0        0.247782    0.164576   -0.000214
      7          1           0        1.583581   -0.898722   -0.000067
 ---------------------------------------------------------------------

 SCF Done:  E(UTPSSh) =  -95.7141138152     A.U. after    1 cycles

 The electronic state is 3-A.
 Alpha  occ. eigenvalues --  -14.29605 -10.13109  -0.82278  -0.67953  -0.44140
 Alpha  occ. eigenvalues --   -0.40235  -0.40101  -0.32916  -0.29249  -0.21446
 Alpha virt. eigenvalues --    0.09285   0.12389   0.16511   0.16681   0.26408
 Alpha virt. eigenvalues --    0.50917   0.51015   0.54613   0.68315   0.69674
 Alpha virt. eigenvalues --    0.71825   0.83141   0.89639   0.89914   0.90191

  Beta  occ. eigenvalues --  -14.26551 -10.11871  -0.74798  -0.64904  -0.41340
  Beta  occ. eigenvalues --   -0.39553  -0.39327  -0.28041
  Beta virt. eigenvalues --   -0.09386  -0.08888   0.10831   0.14004   0.17572
  Beta virt. eigenvalues --    0.17736   0.29567   0.52129   0.52947   0.60392
  Beta virt. eigenvalues --    0.73221   0.74878   0.78137   0.86590   0.92464

 Mulliken charges and spin densities:
               1          2
     1  C   -0.645652   0.758818
     2  N   -0.530396   1.469203
     3  H    0.188063  -0.026642
     4  H    0.187648  -0.026769
     5  H    0.196868  -0.025344
     6  H    0.308253  -0.109075
     7  H    0.295216  -0.040191
 Sum of Mulliken charges =   0.00000   2.00000

 Dipole moment (field-independent basis, Debye):
    X=             -1.2041    Y=             -1.4410    Z=             -0.0007  Tot=              1.8778
 Quadrupole moment (field-independent basis, Debye-Ang):
   XX=            -16.5992   YY=            -13.7878   ZZ=            -14.1499
   XY=             -2.8109   XZ=             -0.0019   YZ=             -0.0018

  Exact polarizability:  40.363  -0.812  20.458  -0.005   0.001  16.139
 Approx polarizability:  52.538   0.585  26.176  -0.010   0.002  19.532

 ******    1 imaginary frequencies (negative Signs) ******

                      1                      2                      3
                      A                      A                      A
 Frequencies --  -1181.3402                61.7052               358.4960
 Red. masses --      1.1827                 1.0515                 1.0646
 Frc consts  --      0.9725                 0.0024                 0.0806
 IR Inten    --    333.8572                62.9313                12.4490

                      4                      5                      6
                      A                      A                      A
 Frequencies --    412.1225               587.5862               791.0528
 Red. masses --      1.0770                 2.2475                 1.2028
 Frc consts  --      0.1078                 0.4572                 0.4434
 IR Inten    --      5.0427                 5.2241                21.9412

                      7                      8                      9
                      A                      A                      A
 Frequencies --   1100.6693              1173.9208              1465.4872
 Red. masses --      1.0588                 1.2983                 1.0904
 Frc consts  --      0.7558                 1.0541                 1.3797
 IR Inten    --     45.9560                 4.5504                 8.3273

                     10                     11                     12
                      A                      A                      A
 Frequencies --   1469.2463              1539.3769              3100.0370
 Red. masses --      1.0819                 1.0466                 1.0164
 Frc consts  --      1.3761                 1.4612                 5.7551
 IR Inten    --      2.8125               128.0091                 0.5972

                     13                     14                     15
                      A                      A                      A
 Frequencies --   3243.6282              3246.4997              3301.9627
 Red. masses --      1.1121                 1.1121                 1.0723
 Frc consts  --      6.8937                 6.9058                 6.8880
 IR Inten    --     14.9348                10.0666                23.3392

 - Thermochemistry -
 -------------------
 Temperature   298.150 Kelvin.  Pressure   1.00000 Atm.
 Atom     1 has atomic number  6 and mass  12.00000

 Molecular mass:    31.04220 amu.
 Principal axes and moments of inertia in atomic units:
                           1         2         3
     Eigenvalues --    15.78024 203.70451 207.32617
           X            0.99970  -0.02464  -0.00001
           Y            0.02464   0.99970  -0.00005
           Z            0.00001   0.00005   1.00000
 This molecule is an asymmetric top.
 Rotational symmetry number  1.
 Rotational temperatures (Kelvin)      5.48876     0.42519     0.41777
 Rotational constants (GHZ):         114.36717     8.85960     8.70484
    1 imaginary frequencies ignored.
 Zero-point vibrational energy     130702.7 (Joules/Mol)
                                   31.23870 (Kcal/Mol)
 Warning -- explicit consideration of   4 degrees of freedom as
           vibrations may cause significant error
 Vibrational temperatures:     88.78   515.80   592.95   845.41  1138.15
          (Kelvin)           1583.62  1689.01  2108.51  2113.92  2214.82
                             4460.26  4666.86  4670.99  4750.79

 Zero-point correction=                           0.049782 (Hartree/Particle)
 Thermal correction to Energy=                    0.054382
 Thermal correction to Enthalpy=                  0.055326
 Thermal correction to Gibbs Free Energy=         0.023577
 Sum of electronic and zero-point Energies=            -95.664332
 Sum of electronic and thermal Energies=               -95.659732
 Sum of electronic and thermal Enthalpies=             -95.658788
 Sum of electronic and thermal Free Energies=          -95.690537

                     E (Thermal)             CV                S
                      KCal/Mol        Cal/Mol-Kelvin    Cal/Mol-Kelvin
 Total                   34.125             13.395             66.822
 Electronic               0.000              0.000              2.183
 Translational            0.889              2.981             36.231
 Rotational               0.889              2.981             21.127
 Vibrational             32.348              7.434              7.281
 Vibration     1          0.597              1.973              4.402
 Vibration     2          0.733              1.558              1.129
 Vibration     3          0.776              1.444              0.919
 Vibration     4          0.945              1.058              0.472

                           ! Non-Optimized Parameters !
 Normal termination of Gaussian 16 at Wed Oct  7 14:48:33 2020.
