 Gaussian 16, Revision A.03,

 ----------------------------------------------------------------------
 #P Opt(TS,MaxCyc=50,NoEigenTest,MaxStep=10,AddRedundant) TPSSh/6-31G*
 5D 7F Integral=UltraFineGrid SCF=(NoSymm,XQC,MaxCyc=120) IOp(1/33=1,3/
 174=1000000,3/175=2238200,3/177=0452900,3/178=4655000) EmpiricalDisper
 sion=GD3BJ
 ----------------------------------------------------------------------

 TstMul:  Mul=     3
 TstMul:  ICh=     0
 TstMul:  Mul=     3
 Symbolic Z-matrix:
 Charge =  0 Multiplicity = 3

 SCF Done:  E(UTPSSh) =  -535.853295866     A.U. after   21 cycles
 SCF Done:  E(UTPSSh) =  -535.853179466     A.U. after   13 cycles
 SCF Done:  E(UTPSSh) =  -535.854068555     A.U. after   17 cycles
 SCF Done:  E(UTPSSh) =  -535.853182864     A.U. after   18 cycles
 SCF Done:  E(UTPSSh) =  -535.852583132     A.U. after   19 cycles
 SCF Done:  E(UTPSSh) =  -535.852440874     A.U. after   19 cycles
 SCF Done:  E(UTPSSh) =  -535.852502854     A.U. after   13 cycles
 SCF Done:  E(UTPSSh) =  -535.852534471     A.U. after   13 cycles
 SCF Done:  E(UTPSSh) =  -535.852582495     A.U. after   17 cycles
 SCF Done:  E(UTPSSh) =  -535.852582861     A.U. after   11 cycles
 Optimization completed.
    -- Stationary point found.
 Normal termination of Gaussian 16 at Wed Oct  7 14:45:34 2020.
 Gaussian 16:  ES64L-G16RevA.03 25-Dec-2016

 ----------------------------------------------------------------------
 #P Freq TPSSh/6-31G* 5D 7F Integral=UltraFineGrid SCF=(NoSymm,XQC,MaxC
 yc=120) IOp(1/33=1,3/174=1000000,3/175=2238200,3/177=0452900,3/178=465
 5000) EmpiricalDispersion=GD3BJ Geom=Check Guess=Read
 ----------------------------------------------------------------------

 TstMul:  Mul=     3
 TstMul:  ICh=     0
 TstMul:  Mul=     3
 Structure from the checkpoint file:  "MN_91_RKT17_BH76_TPSShDBJ_631Gs.chk"
 Charge =  0 Multiplicity = 3

                         Standard orientation:
 ---------------------------------------------------------------------
 Center     Atomic      Atomic             Coordinates (Angstroms)
 Number     Number       Type             X           Y           Z
 ---------------------------------------------------------------------
      1         17           0        0.019391   -0.832925    0.000000
      2          1           0       -0.484779    0.506598    0.000000
      3          8           0        0.019391    1.706642    0.000000
 ---------------------------------------------------------------------

 SCF Done:  E(UTPSSh) =  -535.852582861     A.U. after    1 cycles

 The electronic state is 3-A".
 Alpha  occ. eigenvalues -- -101.38253 -19.24069  -9.38965  -7.14008  -7.12922
 Alpha  occ. eigenvalues --   -7.12837  -1.03717  -0.81925  -0.52442  -0.45853
 Alpha  occ. eigenvalues --   -0.41032  -0.35387  -0.32396  -0.32189
 Alpha virt. eigenvalues --    0.06466   0.38132   0.43231   0.43560   0.44346
 Alpha virt. eigenvalues --    0.60681   0.74852   0.78648   0.83051   0.83452
 Alpha virt. eigenvalues --    0.83884   0.84417   0.90564   1.03373   1.22944

  Beta  occ. eigenvalues -- -101.37983 -19.19297  -9.38733  -7.13365  -7.12692
  Beta  occ. eigenvalues --   -7.12632  -0.91438  -0.79434  -0.47584  -0.33494
  Beta  occ. eigenvalues --   -0.31823  -0.31690
  Beta virt. eigenvalues --   -0.22345  -0.21496   0.08120   0.38958   0.44024
  Beta virt. eigenvalues --    0.44073   0.46314   0.63621   0.81270   0.81424
  Beta virt. eigenvalues --    0.84621   0.84668   0.87675   0.90957   0.97035

 Mulliken charges and spin densities:
               1          2
     1  Cl  -0.228796   0.336037
     2  H    0.334813  -0.042655
     3  O   -0.106018   1.706617
 Sum of Mulliken charges =  -0.00000   2.00000

 Dipole moment (field-independent basis, Debye):
    X=             -0.7099    Y=              1.0947    Z=              0.0000  Tot=              1.3047
 Quadrupole moment (field-independent basis, Debye-Ang):
   XX=            -18.8417   YY=            -18.2260   ZZ=            -18.4488
   XY=             -0.7216   XZ=              0.0000   YZ=              0.0000

  Exact polarizability:   9.390  -1.087  49.067   0.000   0.000   8.382
 Approx polarizability:  12.067  -1.528 104.413   0.000  -0.000  10.614

 ******    1 imaginary frequencies (negative Signs) ******

                      1                      2                      3
                     A'                     A'                     A'
 Frequencies --  -1181.0923               298.7020              1332.8648
 Red. masses --      1.0959                 5.3704                 1.1186
 Frc consts  --      0.9007                 0.2823                 1.1708
 IR Inten    --     30.0158                16.2994                48.3865

 - Thermochemistry -
 -------------------
 Temperature   298.150 Kelvin.  Pressure   1.00000 Atm.
 Atom     1 has atomic number 17 and mass  34.96885

 Molecular mass:    51.97159 amu.
 Principal axes and moments of inertia in atomic units:
                           1         2         3
     Eigenvalues --     0.89340 253.80847 254.70187
           X           -0.00382   0.99999   0.00000
           Y            0.99999   0.00382   0.00000
           Z            0.00000   0.00000   1.00000
 This molecule is an asymmetric top.
 Rotational symmetry number  1.
 Rotational temperatures (Kelvin)     96.94881     0.34126     0.34006
 Rotational constants (GHZ):        2020.08529     7.11064     7.08570
    1 imaginary frequencies ignored.
 Zero-point vibrational energy       9758.9 (Joules/Mol)
                                    2.33244 (Kcal/Mol)
 Warning -- explicit consideration of   1 degrees of freedom as
           vibrations may cause significant error
 Vibrational temperatures:    429.77  1917.70
          (Kelvin)

 Zero-point correction=                           0.003717 (Hartree/Particle)
 Thermal correction to Energy=                    0.006981
 Thermal correction to Enthalpy=                  0.007925
 Thermal correction to Gibbs Free Energy=        -0.020628
 Sum of electronic and zero-point Energies=           -535.848866
 Sum of electronic and thermal Energies=              -535.845602
 Sum of electronic and thermal Enthalpies=            -535.844658
 Sum of electronic and thermal Free Energies=         -535.873211

                     E (Thermal)             CV                S
                      KCal/Mol        Cal/Mol-Kelvin    Cal/Mol-Kelvin
 Total                    4.381              7.770             60.095
 Electronic               0.000              0.000              2.183
 Translational            0.889              2.981             37.767
 Rotational               0.889              2.981             18.697
 Vibrational              2.603              1.809              1.448
 Vibration     1          0.692              1.676              1.424

 Optimization completed.
    -- Stationary point found.
 Normal termination of Gaussian 16 at Wed Oct  7 14:46:00 2020.
