 Gaussian 16, Revision A.03,
 Gaussian 16:  ES64L-G16RevA.03 25-Dec-2016

 ----------------------------------------------------------------------
 #P Opt(MaxCyc=150) PM7 5D 7F Integral=UltraFineGrid SCF=(NoSymm,XQC,Ma
 xCyc=120) IOp(1/33=1)
 ----------------------------------------------------------------------

 TstMul:  Mul=     2
 TstMul:  ICh=     0
 TstMul:  Mul=     2
 Symbolic Z-matrix:
 Charge =  0 Multiplicity = 2

 SCF Done:  E(UPM7) =  0.265579001500E-01 A.U. after   13 cycles
 SCF Done:  E(UPM7) =  0.254471389862E-01 A.U. after   12 cycles
 SCF Done:  E(UPM7) =  0.252701265873E-01 A.U. after   11 cycles
 SCF Done:  E(UPM7) =  0.252661344678E-01 A.U. after   10 cycles
 SCF Done:  E(UPM7) =  0.252653770573E-01 A.U. after    9 cycles
 Optimization completed.
    -- Stationary point found.

                         Standard orientation:
 ---------------------------------------------------------------------
 Center     Atomic      Atomic             Coordinates (Angstroms)
 Number     Number       Type             X           Y           Z
 ---------------------------------------------------------------------
      1          6           0       -0.003486   -0.680605    0.000000
      2          6           0       -0.003486    0.782399   -0.000000
      3          1           0        1.032228   -1.067691    0.000000
      4          1           0       -0.497684   -1.104627    0.886834
      5          1           0       -0.497684   -1.104627   -0.886834
      6          1           0        0.002484    1.333089   -0.911136
      7          1           0        0.002484    1.333089    0.911136
 ---------------------------------------------------------------------

 The electronic state is 2-A'.
 Alpha  occ. eigenvalues --   -0.98383  -0.76473  -0.57585  -0.52673  -0.50694
 Alpha  occ. eigenvalues --   -0.44992  -0.33435
 Alpha virt. eigenvalues --    0.17501   0.20173   0.20413   0.23691   0.23923
 Alpha virt. eigenvalues --    0.25150
  Beta  occ. eigenvalues --   -0.97652  -0.75310  -0.56982  -0.51140  -0.49918
  Beta  occ. eigenvalues --   -0.44570
  Beta virt. eigenvalues --    0.03241   0.18690   0.20296   0.20857   0.24319
  Beta virt. eigenvalues --    0.24887   0.25378

 Mulliken charges and spin densities:
               1          2
     1  C   -0.436212  -0.044013
     2  C   -0.292591   1.039369
     3  H    0.162025   0.041579
     4  H    0.151123   0.011079
     5  H    0.151123   0.011079
     6  H    0.132266  -0.029547
     7  H    0.132266  -0.029547
 Sum of Mulliken charges =   0.00000   1.00000

 Dipole moment (field-independent basis, Debye):
    X=              0.1096    Y=             -0.4899    Z=             -0.0000  Tot=              0.5020
 N-N= 3.058230857902D+01 E-N=-3.503456599892D+01  KE=-1.818143920080D+01
 Leave Link  601 at Wed Oct 21 14:34:26 2020, MaxMem=  2684354560 cpu:               3.3 elap:               1.4
 (Enter /udrive/faculty/rpeverati/g16/g16/l9999.exe)

 Test job not archived.
 1\1\GINC-NODE61\FOpt\UPM7\ZDO\C2H5(2)\RPEVERATI\21-Oct-2020\0\\#P Opt(
 MaxCyc=150) PM7 5D 7F Integral=UltraFineGrid SCF=(NoSymm,XQC,MaxCyc=12
 0) IOp(1/33=1)\\TS search on BH76.\\0,2\C,-0.0100744504,-0.6783791916,
 0.\C,0.0301647299,0.784070817,0.\H,1.0146010682,-1.0938054683,0.\H,-0.
 5157489034,-1.0886481536,0.8868337294\H,-0.5157489034,-1.0886481536,-0

 Normal termination of Gaussian 16 at Wed Oct 21 14:34:29 2020.
