 Gaussian 16, Revision A.03,
 Gaussian 16:  ES64L-G16RevA.03 25-Dec-2016

 ----------------------------------------------------------------------
 #P Opt(MaxCyc=150) PM7 5D 7F Integral=UltraFineGrid SCF=(NoSymm,XQC,Ma
 xCyc=120) IOp(1/33=1)
 ----------------------------------------------------------------------

 TstMul:  Mul=     1
 TstMul:  ICh=     0
 TstMul:  Mul=     1
 Symbolic Z-matrix:
 Charge =  0 Multiplicity = 1

 SCF Done:  E(RPM7) =  0.309132133653E-01 A.U. after   13 cycles
 SCF Done:  E(RPM7) =  0.295405429798E-01 A.U. after   11 cycles
 SCF Done:  E(RPM7) =  0.293759374996E-01 A.U. after   11 cycles
 SCF Done:  E(RPM7) =  0.293632677196E-01 A.U. after    9 cycles
 SCF Done:  E(RPM7) =  0.293616232659E-01 A.U. after    8 cycles
 Optimization completed.
    -- Stationary point found.

                         Standard orientation:
 ---------------------------------------------------------------------
 Center     Atomic      Atomic             Coordinates (Angstroms)
 Number     Number       Type             X           Y           Z
 ---------------------------------------------------------------------
      1          6           0       -2.015484   -0.616904    0.000006
      2          6           0       -1.232894    0.647275    0.000049
      3          6           0        0.104004    0.749493    0.000027
      4          6           0        1.034229   -0.371253   -0.000044
      5          6           0        2.360888   -0.204606   -0.000036
      6          1           0       -2.666485   -0.677508    0.885711
      7          1           0       -2.666531   -0.677420   -0.885671
      8          1           0       -1.391151   -1.519999   -0.000054
      9          1           0       -1.851586    1.548292    0.000103
     10          1           0        0.570856    1.738771    0.000064
     11          1           0        0.593756   -1.370402   -0.000104
     12          1           0        3.061217   -1.024426   -0.000087
     13          1           0        2.845467    0.758662    0.000022
 ---------------------------------------------------------------------

 The electronic state is 1-A.
 Alpha  occ. eigenvalues --   -1.05574  -0.97828  -0.87632  -0.75497  -0.67256
 Alpha  occ. eigenvalues --   -0.60570  -0.56511  -0.53071  -0.50511  -0.47951
 Alpha  occ. eigenvalues --   -0.46704  -0.43031  -0.42342  -0.33868
 Alpha virt. eigenvalues --    0.00849   0.07401   0.15514   0.17478   0.19709
 Alpha virt. eigenvalues --    0.19936   0.20415   0.21640   0.22545   0.22850
 Alpha virt. eigenvalues --    0.23003   0.23708   0.24416   0.25184

 Mulliken charges:
               1
     1  C   -0.449564
     2  C   -0.103191
     3  C   -0.202710
     4  C   -0.110716
     5  C   -0.321640
     6  H    0.157314
     7  H    0.157314
     8  H    0.152984
     9  H    0.139387
    10  H    0.149739
    11  H    0.142509
    12  H    0.143554
    13  H    0.145020
 Sum of Mulliken charges =   0.00000

 Dipole moment (field-independent basis, Debye):
    X=             -0.7409    Y=             -0.2428    Z=              0.0000  Tot=              0.7796
 N-N= 1.007798116191D+02 E-N=-1.420017985736D+02  KE=-4.213216073789D+01
 Leave Link  601 at Wed Oct 21 14:35:33 2020, MaxMem=  2684354560 cpu:               3.4 elap:               1.5
 (Enter /udrive/faculty/rpeverati/g16/g16/l9999.exe)

 Test job not archived.
 1\1\GINC-NODE51\FOpt\RPM7\ZDO\C5H8\RPEVERATI\21-Oct-2020\0\\#P Opt(Max
 Cyc=150) PM7 5D 7F Integral=UltraFineGrid SCF=(NoSymm,XQC,MaxCyc=120)
 IOp(1/33=1)\\TS search on BH76.\\0,1\C,-2.0212082553,-0.6034533184,0.0
 000061175\C,-1.2335416935,0.6575692929,0.0000487699\C,0.1037563109,0.7
 544106481,0.0000271029\C,1.0294677576,-0.3700664349,-0.000043538\C,2.3

 Normal termination of Gaussian 16 at Wed Oct 21 14:35:37 2020.
