 Gaussian 16, Revision A.03,

 ----------------------------------------------------------------------
 #P Opt(TS,MaxCyc=50,NoEigenTest,MaxStep=10,AddRedundant) PM7 5D 7F Int
 egral=UltraFineGrid SCF=(NoSymm,XQC,MaxCyc=120) IOp(1/33=1)
 ----------------------------------------------------------------------

 TstMul:  Mul=     2
 TstMul:  ICh=     0
 TstMul:  Mul=     2
 Symbolic Z-matrix:
 Charge =  0 Multiplicity = 2

 SCF Done:  E(UPM7) =  0.104827100518     A.U. after   18 cycles
 SCF Done:  E(UPM7) =  0.103919062182     A.U. after   14 cycles
 SCF Done:  E(UPM7) =  0.103772921960     A.U. after   13 cycles
 SCF Done:  E(UPM7) =  0.103679666969     A.U. after   14 cycles
 SCF Done:  E(UPM7) =  0.103739629313     A.U. after   14 cycles
 SCF Done:  E(UPM7) =  0.103600342128     A.U. after   13 cycles
 SCF Done:  E(UPM7) =  0.103564308900     A.U. after   13 cycles
 SCF Done:  E(UPM7) =  0.103539520895     A.U. after   12 cycles
 SCF Done:  E(UPM7) =  0.103510000289     A.U. after   13 cycles
 SCF Done:  E(UPM7) =  0.103484095129     A.U. after   12 cycles
 SCF Done:  E(UPM7) =  0.103445154695     A.U. after   13 cycles
 SCF Done:  E(UPM7) =  0.103445349556     A.U. after   13 cycles
 SCF Done:  E(UPM7) =  0.103445068910     A.U. after   11 cycles
 SCF Done:  E(UPM7) =  0.103444915942     A.U. after   11 cycles
 SCF Done:  E(UPM7) =  0.103444856791     A.U. after   11 cycles
 SCF Done:  E(UPM7) =  0.103535366764     A.U. after   13 cycles
 SCF Done:  E(UPM7) =  0.103464380780     A.U. after   13 cycles
 SCF Done:  E(UPM7) =  0.103443961522     A.U. after   13 cycles
 SCF Done:  E(UPM7) =  0.103444048259     A.U. after   11 cycles
 Optimization completed.
    -- Stationary point found.
 Normal termination of Gaussian 16 at Wed Oct 21 14:41:08 2020.
 Gaussian 16:  ES64L-G16RevA.03 25-Dec-2016

 ----------------------------------------------------------------------
 #P Freq PM7 5D 7F Integral=UltraFineGrid SCF=(NoSymm,XQC,MaxCyc=120) I
 Op(1/33=1) Geom=Check Guess=Read
 ----------------------------------------------------------------------

 TstMul:  Mul=     2
 TstMul:  ICh=     0
 TstMul:  Mul=     2
 Structure from the checkpoint file:  "MN_13_c2h5ts_BH76_PM7_SE.chk"
 Charge =  0 Multiplicity = 2

                         Standard orientation:
 ---------------------------------------------------------------------
 Center     Atomic      Atomic             Coordinates (Angstroms)
 Number     Number       Type             X           Y           Z
 ---------------------------------------------------------------------
      1          6           0       -0.589319   -0.215860    0.002596
      2          6           0        0.727937    0.009418   -0.000083
      3          1           0       -1.118336    1.702455   -0.020821
      4          1           0       -1.171723   -0.355387   -0.897664
      5          1           0       -1.172032   -0.331975    0.906001
      6          1           0        1.315034    0.123374    0.898033
      7          1           0        1.315352    0.100184   -0.900627
 ---------------------------------------------------------------------

 SCF Done:  E(UPM7) =  0.103444048259     A.U. after    2 cycles

 The electronic state is 2-A.
 Alpha  occ. eigenvalues --   -0.98999  -0.75008  -0.59372  -0.53479  -0.44493
 Alpha  occ. eigenvalues --   -0.43830  -0.34606
 Alpha virt. eigenvalues --    0.03727   0.19732   0.20786   0.23379   0.23531
 Alpha virt. eigenvalues --    0.23695
  Beta  occ. eigenvalues --   -0.98787  -0.74797  -0.59328  -0.53388  -0.44456
  Beta  occ. eigenvalues --   -0.40109
  Beta virt. eigenvalues --    0.03175   0.13144   0.19739   0.20823   0.23294
  Beta virt. eigenvalues --    0.23563   0.23869

 Mulliken charges and spin densities:
               1          2
     1  C   -0.263566  -0.201800
     2  C   -0.287879   0.254374
     3  H   -0.013810   0.947304
     4  H    0.141596   0.007518
     5  H    0.141603   0.007526
     6  H    0.141029  -0.007461
     7  H    0.141029  -0.007461
 Sum of Mulliken charges =   0.00000   1.00000

 Dipole moment (field-independent basis, Debye):
    X=             -0.0126    Y=             -0.1250    Z=              0.0016  Tot=              0.1256
 N-N= 3.013541064571D+01 E-N=-3.442219472668D+01  KE=-1.783520728041D+01
  Exact polarizability:  30.943   0.762   8.138  -0.009   0.047  11.543
 Approx polarizability:  20.602   1.218   4.877  -0.015   0.034   7.378
 Leave Link  601 at Wed Oct 21 14:41:39 2020, MaxMem=  2684354560 cpu:               3.3 elap:               1.2
 (Enter /udrive/faculty/rpeverati/g16/g16/l701.exe)
 ... and contract with generalized density number  0.
 Compute integral second derivatives.
 R6Disp: Adding PM7 dispersion energy 2nd derivatives to the Hessian.
 Leave Link  701 at Wed Oct 21 14:41:40 2020, MaxMem=  2684354560 cpu:               4.3 elap:               1.2
 (Enter /udrive/faculty/rpeverati/g16/g16/l702.exe)

 ******    1 imaginary frequencies (negative Signs) ******

                      1                      2                      3
                      A                      A                      A
 Frequencies --   -432.4299               204.2736               242.5273
 Red. masses --      1.1266                 1.0294                 1.1346
 Frc consts  --      0.1241                 0.0253                 0.0393
 IR Inten    --      8.3616                 0.0000                 1.9956

                      4                      5                      6
                      A                      A                      A
 Frequencies --    864.9978               872.7098              1065.5806
 Red. masses --      1.0236                 1.0388                 1.1438
 Frc consts  --      0.4512                 0.4662                 0.7652
 IR Inten    --      8.4391                17.1816               106.7679

                      7                      8                      9
                      A                      A                      A
 Frequencies --   1088.9332              1166.2164              1368.9054
 Red. masses --      1.4742                 1.5959                 1.0105
 Frc consts  --      1.0299                 1.2788                 1.1157
 IR Inten    --     18.5162                 0.0130                 0.1193

                     10                     11                     12
                      A                      A                      A
 Frequencies --   1387.1864              1766.0160              2698.3804
 Red. masses --      1.1024                 7.4760                 1.0808
 Frc consts  --      1.2499                13.7375                 4.6367
 IR Inten    --     29.9840                 3.0505                 0.3979

                     13                     14                     15
                      A                      A                      A
 Frequencies --   2735.5882              2776.3812              2788.4210
 Red. masses --      1.1035                 1.0506                 1.0560
 Frc consts  --      4.8657                 4.7714                 4.8378
 IR Inten    --    115.2752                 5.0857               151.1387

 - Thermochemistry -
 -------------------
 Temperature   298.150 Kelvin.  Pressure   1.00000 Atm.
 Atom     1 has atomic number  6 and mass  12.00000

 Molecular mass:    29.03913 amu.
 Principal axes and moments of inertia in atomic units:
                           1         2         3
     Eigenvalues --    24.69350  76.19332  77.53129
           X            0.99832  -0.05786   0.00035
           Y            0.05786   0.99831   0.00572
           Z           -0.00068  -0.00569   0.99998
 This molecule is an asymmetric top.
 Rotational symmetry number  1.
 Rotational temperatures (Kelvin)      3.50756     1.13677     1.11715
 Rotational constants (GHZ):          73.08568    23.68634    23.27758
    1 imaginary frequencies ignored.
 Zero-point vibrational energy     125764.1 (Joules/Mol)
                                   30.05834 (Kcal/Mol)
 Warning -- explicit consideration of   2 degrees of freedom as
           vibrations may cause significant error
 Vibrational temperatures:    293.90   348.94  1244.54  1255.63  1533.13
          (Kelvin)           1566.73  1677.93  1969.55  1995.85  2540.90
                             3882.37  3935.90  3994.59  4011.92

 Zero-point correction=                           0.047901 (Hartree/Particle)
 Thermal correction to Energy=                    0.051998
 Thermal correction to Enthalpy=                  0.052942
 Thermal correction to Gibbs Free Energy=         0.023745
 Sum of electronic and zero-point Energies=              0.151345
 Sum of electronic and thermal Energies=                 0.155442
 Sum of electronic and thermal Enthalpies=               0.156386
 Sum of electronic and thermal Free Energies=            0.127190

                     E (Thermal)             CV                S
                      KCal/Mol        Cal/Mol-Kelvin    Cal/Mol-Kelvin
 Total                   32.629             11.746             61.449
 Electronic               0.000              0.000              1.377
 Translational            0.889              2.981             36.032
 Rotational               0.889              2.981             19.617
 Vibrational             30.852              5.784              4.422
 Vibration     1          0.640              1.834              2.094
 Vibration     2          0.659              1.775              1.784

 Optimization completed.
    -- Stationary point found.
 Normal termination of Gaussian 16 at Wed Oct 21 14:41:50 2020.
