 Gaussian 16, Revision A.03,
 Gaussian 16:  ES64L-G16RevA.03 25-Dec-2016

 ----------------------------------------------------------------------
 #P Opt(MaxCyc=150) PM7 5D 7F Integral=UltraFineGrid SCF=(NoSymm,XQC,Ma
 xCyc=120) IOp(1/33=1)
 ----------------------------------------------------------------------

 TstMul:  Mul=     1
 TstMul:  ICh=     0
 TstMul:  Mul=     1
 Symbolic Z-matrix:
 Charge =  0 Multiplicity = 1

 SCF Done:  E(RPM7) = -0.261596310916E-01 A.U. after   11 cycles
 SCF Done:  E(RPM7) = -0.263473186757E-01 A.U. after   10 cycles
 SCF Done:  E(RPM7) = -0.263574188018E-01 A.U. after    9 cycles
 SCF Done:  E(RPM7) = -0.263584643652E-01 A.U. after    8 cycles
 Optimization completed.
    -- Stationary point found.

                         Standard orientation:
 ---------------------------------------------------------------------
 Center     Atomic      Atomic             Coordinates (Angstroms)
 Number     Number       Type             X           Y           Z
 ---------------------------------------------------------------------
      1          6           0        0.000000    0.000000   -1.117325
      2         17           0        0.000000    0.000000    0.651789
      3          1           0        0.000000    1.037587   -1.458822
      4          1           0        0.898577   -0.518793   -1.458822
      5          1           0       -0.898577   -0.518793   -1.458822
 ---------------------------------------------------------------------

 The electronic state is 1-A1.
 Alpha  occ. eigenvalues --   -1.00115  -0.84989  -0.55911  -0.55911  -0.51391
 Alpha  occ. eigenvalues --   -0.40226  -0.40226
 Alpha virt. eigenvalues --    0.03107   0.18026   0.18026   0.20772   2.57783
 Alpha virt. eigenvalues --    2.57783   2.57832   2.58628   2.58628

 Mulliken charges:
               1
     1  C   -0.339714
     2  Cl  -0.137608
     3  H    0.159107
     4  H    0.159107
     5  H    0.159107
 Sum of Mulliken charges =  -0.00000

 Dipole moment (field-independent basis, Debye):
    X=             -0.0000    Y=             -0.0018    Z=             -2.0941  Tot=              2.0941
 N-N= 3.258909274139D+01 E-N=-3.135183389321D+01  KE=-2.530365817048D+01
 Leave Link  601 at Wed Oct 21 14:34:41 2020, MaxMem=  2684354560 cpu:               3.5 elap:               0.8
 (Enter /udrive/faculty/rpeverati/g16/g16/l9999.exe)

 Test job not archived.
 1\1\GINC-NODE59\FOpt\RPM7\ZDO\C1H3Cl1\RPEVERATI\21-Oct-2020\0\\#P Opt(
 MaxCyc=150) PM7 5D 7F Integral=UltraFineGrid SCF=(NoSymm,XQC,MaxCyc=12
 0) IOp(1/33=1)\\TS search on BH76.\\0,1\C,0.,0.,-0.1489724603\Cl,0.,0.
 ,1.6201419391\H,-0.5187934359,-0.8985765896,-0.4904689359\H,-0.5187934
 359,0.8985765896,-0.4904689359\H,1.0375868718,0.,-0.4904689359\\Versio

 Normal termination of Gaussian 16 at Wed Oct 21 14:34:42 2020.
