 Gaussian 16, Revision A.03,
 Gaussian 16:  ES64L-G16RevA.03 25-Dec-2016

 ----------------------------------------------------------------------
 #P Opt(MaxCyc=150) PM7 5D 7F Integral=UltraFineGrid SCF=(NoSymm,XQC,Ma
 xCyc=120) IOp(1/33=1)
 ----------------------------------------------------------------------

 TstMul:  Mul=     2
 TstMul:  ICh=     0
 TstMul:  Mul=     2
 Symbolic Z-matrix:
 Charge =  0 Multiplicity = 2

 SCF Done:  E(UPM7) =  0.208092172786E-01 A.U. after   13 cycles
 SCF Done:  E(UPM7) =  0.191758386256E-01 A.U. after   12 cycles
 SCF Done:  E(UPM7) =  0.190249852030E-01 A.U. after   11 cycles
 SCF Done:  E(UPM7) =  0.190114808326E-01 A.U. after   11 cycles
 SCF Done:  E(UPM7) =  0.190089982583E-01 A.U. after   10 cycles
 Optimization completed.
    -- Stationary point found.

                         Standard orientation:
 ---------------------------------------------------------------------
 Center     Atomic      Atomic             Coordinates (Angstroms)
 Number     Number       Type             X           Y           Z
 ---------------------------------------------------------------------
      1          6           0        1.182953   -0.288778    0.000049
      2          6           0       -0.076695    0.592045   -0.000056
      3          6           0       -1.269855   -0.266166    0.000003
      4          1           0        1.214196   -0.935699    0.883827
      5          1           0        1.214228   -0.935871   -0.883601
      6          1           0        2.090649    0.323151    0.000007
      7          1           0       -0.061994    1.262675   -0.884609
      8          1           0       -0.062013    1.262866    0.884347
      9          1           0       -1.706956   -0.599520    0.911403
     10          1           0       -1.706534   -0.600210   -0.911347
 ---------------------------------------------------------------------

 The electronic state is 2-A.
 Alpha  occ. eigenvalues --   -1.03049  -0.85429  -0.73312  -0.59521  -0.55220
 Alpha  occ. eigenvalues --   -0.49887  -0.49607  -0.45472  -0.42469  -0.33684
 Alpha virt. eigenvalues --    0.15388   0.17803   0.19802   0.21450   0.21719
 Alpha virt. eigenvalues --    0.23765   0.23791   0.24154   0.25536
  Beta  occ. eigenvalues --   -1.02611  -0.84585  -0.72646  -0.59122  -0.54640
  Beta  occ. eigenvalues --   -0.49411  -0.48574  -0.44997  -0.42274
  Beta virt. eigenvalues --    0.02915   0.15979   0.18727   0.19889   0.21550
  Beta virt. eigenvalues --    0.21789   0.24100   0.24364   0.24979   0.25588

 Mulliken charges and spin densities:
               1          2
     1  C   -0.421685   0.051075
     2  C   -0.256452  -0.054415
     3  C   -0.298808   1.045924
     4  H    0.144777  -0.001511
     5  H    0.144776  -0.001510
     6  H    0.140484   0.000133
     7  H    0.141319   0.009780
     8  H    0.141311   0.009758
     9  H    0.132139  -0.029617
    10  H    0.132139  -0.029617
 Sum of Mulliken charges =   0.00000   1.00000

 Dipole moment (field-independent basis, Debye):
    X=              0.4004    Y=              0.0663    Z=             -0.0000  Tot=              0.4058
 N-N= 5.558514981015D+01 E-N=-7.269064294110D+01  KE=-2.687653960226D+01
 Leave Link  601 at Wed Oct 21 14:35:41 2020, MaxMem=  2684354560 cpu:               4.3 elap:               1.3
 (Enter /udrive/faculty/rpeverati/g16/g16/l9999.exe)

 Test job not archived.
 1\1\GINC-NODE55\FOpt\UPM7\ZDO\C3H7(2)\RPEVERATI\21-Oct-2020\0\\#P Opt(
 MaxCyc=150) PM7 5D 7F Integral=UltraFineGrid SCF=(NoSymm,XQC,MaxCyc=12
 0) IOp(1/33=1)\\TS search on BH76.\\0,2\C,1.1877351436,-0.2919613133,0
 .00005277\C,-0.0742902992,0.5854514524,-0.0000527995\C,-1.2651251045,-
 0.2759825217,0.0000064825\H,1.2207269043,-0.9387954525,0.883830898\H,1

 Normal termination of Gaussian 16 at Wed Oct 21 14:35:45 2020.
