 Gaussian 16, Revision A.03,
 Gaussian 16:  ES64L-G16RevA.03 25-Dec-2016

 ----------------------------------------------------------------------
 #P Opt(MaxCyc=150) PM7 5D 7F Integral=UltraFineGrid SCF=(NoSymm,XQC,Ma
 xCyc=120) IOp(1/33=1)
 ----------------------------------------------------------------------

 TstMul:  Mul=     1
 TstMul:  ICh=     0
 TstMul:  Mul=     1
 Symbolic Z-matrix:
 Charge =  0 Multiplicity = 1

 SCF Done:  E(RPM7) = -0.289025452226E-01 A.U. after   10 cycles
 SCF Done:  E(RPM7) = -0.289953582422E-01 A.U. after    9 cycles
 SCF Done:  E(RPM7) = -0.290036710245E-01 A.U. after    8 cycles
 SCF Done:  E(RPM7) = -0.290048310664E-01 A.U. after    6 cycles
 Optimization completed.
    -- Stationary point found.

                         Standard orientation:
 ---------------------------------------------------------------------
 Center     Atomic      Atomic             Coordinates (Angstroms)
 Number     Number       Type             X           Y           Z
 ---------------------------------------------------------------------
      1          6           0       -0.762269    0.000000    0.000000
      2          6           0        0.762269   -0.000000    0.000000
      3          1           0        1.161734   -1.015510    0.102537
      4          1           0       -1.161734   -0.419777    0.930356
      5          1           0        1.161734    0.596555    0.828189
      6          1           0        1.161734    0.418955   -0.930726
      7          1           0       -1.161734    1.015600   -0.101640
      8          1           0       -1.161734   -0.595823   -0.828716
 ---------------------------------------------------------------------

 The electronic state is 1-A.
 Alpha  occ. eigenvalues --   -0.99637  -0.78545  -0.55496  -0.55496  -0.48385
 Alpha  occ. eigenvalues --   -0.43987  -0.43987
 Alpha virt. eigenvalues --    0.16558   0.20651   0.20651   0.22559   0.22559
 Alpha virt. eigenvalues --    0.25641   0.26120

 Mulliken charges:
               1
     1  C   -0.418474
     2  C   -0.418474
     3  H    0.139491
     4  H    0.139491
     5  H    0.139491
     6  H    0.139491
     7  H    0.139491
     8  H    0.139491
 Sum of Mulliken charges =   0.00000

 Dipole moment (field-independent basis, Debye):
    X=             -0.0000    Y=              0.0000    Z=              0.0000  Tot=              0.0000
 N-N= 3.438727794237D+01 E-N=-4.131419030993D+01  KE=-1.900770588167D+01
 Leave Link  601 at Wed Oct 21 14:34:41 2020, MaxMem=  2684354560 cpu:               3.5 elap:               1.2
 (Enter /udrive/faculty/rpeverati/g16/g16/l9999.exe)

 Test job not archived.
 1\1\GINC-NODE60\FOpt\RPM7\ZDO\C2H6\RPEVERATI\21-Oct-2020\0\\#P Opt(Max
 Cyc=150) PM7 5D 7F Integral=UltraFineGrid SCF=(NoSymm,XQC,MaxCyc=120)
 IOp(1/33=1)\\TS search on BH76.\\0,1\C,-0.7622694559,-0.0000003814,0.0
 000004634\C,0.7622694595,-0.0000002877,0.0000013584\H,1.1617343342,-0.
 4452440296,-0.9184389153\H,-1.1617337551,-1.017949544,-0.0745270153\H,

 Normal termination of Gaussian 16 at Wed Oct 21 14:34:44 2020.
