 Gaussian 16, Revision A.03,
 Gaussian 16:  ES64L-G16RevA.03 25-Dec-2016

 ----------------------------------------------------------------------
 #P Opt(MaxCyc=150) PM7 5D 7F Integral=UltraFineGrid SCF=(NoSymm,XQC,Ma
 xCyc=120) IOp(1/33=1)
 ----------------------------------------------------------------------

 TstMul:  Mul=     1
 TstMul:  ICh=     0
 TstMul:  Mul=     1
 Symbolic Z-matrix:
 Charge =  0 Multiplicity = 1

 SCF Done:  E(RPM7) =  0.228615341477E-01 A.U. after    9 cycles
 SCF Done:  E(RPM7) =  0.222188328417E-01 A.U. after    8 cycles
 SCF Done:  E(RPM7) =  0.220818054106E-01 A.U. after    7 cycles
 SCF Done:  E(RPM7) =  0.220773155881E-01 A.U. after    7 cycles
 Optimization completed.
    -- Stationary point found.

                         Standard orientation:
 ---------------------------------------------------------------------
 Center     Atomic      Atomic             Coordinates (Angstroms)
 Number     Number       Type             X           Y           Z
 ---------------------------------------------------------------------
      1          6           0        0.000000   -0.000000    0.664966
      2          6           0        0.000000   -0.000000   -0.664966
      3          1           0        0.000000    0.898721    1.263263
      4          1           0       -0.000000   -0.898721    1.263263
      5          1           0        0.000000    0.898721   -1.263263
      6          1           0       -0.000000   -0.898721   -1.263263
 ---------------------------------------------------------------------

 The electronic state is 1-AG.
 Alpha  occ. eigenvalues --   -0.98655  -0.74644  -0.59294  -0.53376  -0.44263
 Alpha  occ. eigenvalues --   -0.39517
 Alpha virt. eigenvalues --    0.03716   0.19812   0.21028   0.23661   0.23667
 Alpha virt. eigenvalues --    0.23861

 Mulliken charges:
               1
     1  C   -0.280359
     2  C   -0.280359
     3  H    0.140179
     4  H    0.140179
     5  H    0.140179
     6  H    0.140179
 Sum of Mulliken charges =   0.00000

 Dipole moment (field-independent basis, Debye):
    X=             -0.0000    Y=              0.0000    Z=             -0.0000  Tot=              0.0000
 N-N= 2.719126593414D+01 E-N=-2.952178207331D+01  KE=-1.742160068327D+01
 Leave Link  601 at Wed Oct 21 14:33:26 2020, MaxMem=  2684354560 cpu:               3.2 elap:               0.9
 (Enter /udrive/faculty/rpeverati/g16/g16/l9999.exe)

 Test job not archived.
 1\1\GINC-NODE59\FOpt\RPM7\ZDO\C2H4\RPEVERATI\21-Oct-2020\0\\#P Opt(Max
 Cyc=150) PM7 5D 7F Integral=UltraFineGrid SCF=(NoSymm,XQC,MaxCyc=120)
 IOp(1/33=1)\\TS search on BH76.\\0,1\C,0.,0.,0.664965515\C,0.,0.,-0.66
 4965515\H,0.,0.8987210013,1.263262534\H,0.,-0.8987210013,1.263262534\H
 ,0.,0.8987210013,-1.263262534\H,0.,-0.8987210013,-1.263262534\\Version

 Normal termination of Gaussian 16 at Wed Oct 21 14:33:28 2020.
