 Gaussian 16, Revision A.03,
 Gaussian 16:  ES64L-G16RevA.03 25-Dec-2016

 ----------------------------------------------------------------------
 #P Opt(MaxCyc=150) PM7 5D 7F Integral=UltraFineGrid SCF=(NoSymm,XQC,Ma
 xCyc=120) IOp(1/33=1)
 ----------------------------------------------------------------------

 TstMul:  Mul=     2
 TstMul:  ICh=     0
 TstMul:  Mul=     2
 Symbolic Z-matrix:
 Charge =  0 Multiplicity = 2

 SCF Done:  E(UPM7) =  0.265407359971E-01 A.U. after   13 cycles
 SCF Done:  E(UPM7) =  0.254392965450E-01 A.U. after   12 cycles
 SCF Done:  E(UPM7) =  0.252692887629E-01 A.U. after   11 cycles
 SCF Done:  E(UPM7) =  0.252658382626E-01 A.U. after   10 cycles
 SCF Done:  E(UPM7) =  0.252653789247E-01 A.U. after    9 cycles
 Optimization completed.
    -- Stationary point found.

                         Standard orientation:
 ---------------------------------------------------------------------
 Center     Atomic      Atomic             Coordinates (Angstroms)
 Number     Number       Type             X           Y           Z
 ---------------------------------------------------------------------
      1          6           0        0.782365    0.000072   -0.003627
      2          6           0       -0.680600    0.000151   -0.003378
      3          1           0       -1.105048    0.892937   -0.486195
      4          1           0        1.332856   -0.911223    0.002272
      5          1           0       -1.067459   -0.013459    1.032303
      6          1           0       -1.104282   -0.880627   -0.508699
      7          1           0        1.333343    0.911033    0.002345
 ---------------------------------------------------------------------

 The electronic state is 2-A.
 Alpha  occ. eigenvalues --   -0.98385  -0.76472  -0.57585  -0.52674  -0.50695
 Alpha  occ. eigenvalues --   -0.44992  -0.33435
 Alpha virt. eigenvalues --    0.17501   0.20173   0.20413   0.23691   0.23922
 Alpha virt. eigenvalues --    0.25150
  Beta  occ. eigenvalues --   -0.97654  -0.75309  -0.56983  -0.51141  -0.49919
  Beta  occ. eigenvalues --   -0.44569
  Beta virt. eigenvalues --    0.03241   0.18691   0.20297   0.20857   0.24319
  Beta virt. eigenvalues --    0.24887   0.25378

 Mulliken charges and spin densities:
               1          2
     1  C   -0.292607   1.039361
     2  C   -0.436208  -0.044009
     3  H    0.150975   0.010665
     4  H    0.132241  -0.029553
     5  H    0.162023   0.041577
     6  H    0.151282   0.011502
     7  H    0.132293  -0.029543
 Sum of Mulliken charges =   0.00000   1.00000

 Dipole moment (field-independent basis, Debye):
    X=             -0.4897    Y=             -0.0037    Z=              0.1098  Tot=              0.5019
 N-N= 3.058250630022D+01 E-N=-3.503487342551D+01  KE=-1.818147660737D+01
 Leave Link  601 at Wed Oct 21 14:34:18 2020, MaxMem=  2684354560 cpu:               2.9 elap:               0.9
 (Enter /udrive/faculty/rpeverati/g16/g16/l9999.exe)

 Test job not archived.
 1\1\GINC-NODE22\FOpt\UPM7\ZDO\C2H5(2)\RPEVERATI\21-Oct-2020\0\\#P Opt(
 MaxCyc=150) PM7 5D 7F Integral=UltraFineGrid SCF=(NoSymm,XQC,MaxCyc=12
 0) IOp(1/33=1)\\TS search on BH76.\\0,2\C,0.7842128654,-0.0001211132,0
 .0190477683\C,-0.678626794,0.0003476753,-0.0001249\H,-1.0963907184,0.8
 932922741,-0.4884464916\H,1.3343348144,-0.9115638268,0.0321649676\H,-1

 Normal termination of Gaussian 16 at Wed Oct 21 14:34:20 2020.
