 Gaussian 16, Revision A.03,

 ----------------------------------------------------------------------
 #P Opt(TS,MaxCyc=50,NoEigenTest,MaxStep=10,AddRedundant) PM7 5D 7F Int
 egral=UltraFineGrid SCF=(NoSymm,XQC,MaxCyc=120) IOp(1/33=1)
 ----------------------------------------------------------------------

 TstMul:  Mul=     2
 TstMul:  ICh=     0
 TstMul:  Mul=     2
 Symbolic Z-matrix:
 Charge =  0 Multiplicity = 2

 SCF Done:  E(UPM7) =  0.734946747985E-01 A.U. after   16 cycles
 SCF Done:  E(UPM7) =  0.710216132608E-01 A.U. after   13 cycles
 SCF Done:  E(UPM7) =  0.698264664940E-01 A.U. after   14 cycles
 SCF Done:  E(UPM7) =  0.695165888078E-01 A.U. after   14 cycles
 SCF Done:  E(UPM7) =  0.693742491953E-01 A.U. after   13 cycles
 SCF Done:  E(UPM7) =  0.692123103299E-01 A.U. after   14 cycles
 SCF Done:  E(UPM7) =  0.690580440897E-01 A.U. after   14 cycles
 SCF Done:  E(UPM7) =  0.688530541365E-01 A.U. after   14 cycles
 SCF Done:  E(UPM7) =  0.690593683493E-01 A.U. after   14 cycles
 SCF Done:  E(UPM7) =  0.691344853200E-01 A.U. after   15 cycles
 SCF Done:  E(UPM7) =  0.691122250186E-01 A.U. after   13 cycles
 SCF Done:  E(UPM7) =  0.691115614028E-01 A.U. after   13 cycles
 SCF Done:  E(UPM7) =  0.691115232659E-01 A.U. after   12 cycles
 SCF Done:  E(UPM7) =  0.691112682838E-01 A.U. after   12 cycles
 SCF Done:  E(UPM7) =  0.691112066436E-01 A.U. after   11 cycles
 SCF Done:  E(UPM7) =  0.691111833601E-01 A.U. after   12 cycles
 SCF Done:  E(UPM7) =  0.691111786034E-01 A.U. after   10 cycles
 SCF Done:  E(UPM7) =  0.691132542737E-01 A.U. after   13 cycles
 SCF Done:  E(UPM7) =  0.691111777289E-01 A.U. after   13 cycles
 Optimization completed.
    -- Stationary point found.
 Normal termination of Gaussian 16 at Wed Oct 21 14:41:48 2020.
 Gaussian 16:  ES64L-G16RevA.03 25-Dec-2016

 ----------------------------------------------------------------------
 #P Freq PM7 5D 7F Integral=UltraFineGrid SCF=(NoSymm,XQC,MaxCyc=120) I
 Op(1/33=1) Geom=Check Guess=Read
 ----------------------------------------------------------------------

 TstMul:  Mul=     2
 TstMul:  ICh=     0
 TstMul:  Mul=     2
 Structure from the checkpoint file:  "MN_17_c3h7ts_BH76_PM7_SE.chk"
 Charge =  0 Multiplicity = 2

                         Standard orientation:
 ---------------------------------------------------------------------
 Center     Atomic      Atomic             Coordinates (Angstroms)
 Number     Number       Type             X           Y           Z
 ---------------------------------------------------------------------
      1          6           0       -0.481612    0.711178   -0.000005
      2          6           0       -1.228695   -0.412757   -0.000001
      3          1           0       -0.239016    1.253103   -0.905068
      4          1           0       -0.239022    1.253120    0.905050
      5          1           0       -1.547887   -0.910497    0.900198
      6          1           0       -1.547894   -0.910497   -0.900197
      7          6           0        1.498319   -0.257603    0.000003
      8          1           0        2.036921    0.655499    0.000658
      9          1           0        1.404692   -0.792322   -0.910639
     10          1           0        1.404135   -0.793307    0.910010
 ---------------------------------------------------------------------

 SCF Done:  E(UPM7) =  0.691111777288E-01 A.U. after    2 cycles

 The electronic state is 2-A.
 Alpha  occ. eigenvalues --   -0.99977  -0.85896  -0.74272  -0.59584  -0.54040
 Alpha  occ. eigenvalues --   -0.51671  -0.51108  -0.44364  -0.42161  -0.32273
 Alpha virt. eigenvalues --    0.04121   0.20051   0.20786   0.23141   0.23282
 Alpha virt. eigenvalues --    0.23392   0.23739   0.23884   0.25084
  Beta  occ. eigenvalues --   -0.99691  -0.84691  -0.74020  -0.59459  -0.53682
  Beta  occ. eigenvalues --   -0.50802  -0.50419  -0.44279  -0.39235
  Beta virt. eigenvalues --    0.01072   0.06529   0.20067   0.20890   0.23226
  Beta virt. eigenvalues --    0.23807   0.23828   0.23894   0.24265   0.25957

 Mulliken charges and spin densities:
               1          2
     1  C   -0.232207  -0.314758
     2  C   -0.301101   0.449682
     3  H    0.141401   0.012481
     4  H    0.141400   0.012481
     5  H    0.140207  -0.013140
     6  H    0.140208  -0.013140
     7  C   -0.433853   0.943900
     8  H    0.133090  -0.025265
     9  H    0.135426  -0.026120
    10  H    0.135430  -0.026120
 Sum of Mulliken charges =  -0.00000   1.00000

 Dipole moment (field-independent basis, Debye):
    X=              0.0100    Y=              0.1537    Z=              0.0000  Tot=              0.1541
 N-N= 5.400479163910D+01 E-N=-6.953053355133D+01  KE=-2.682459801145D+01
  Exact polarizability:  34.505   8.954  24.162  -0.000   0.000  16.771
 Approx polarizability:  19.208   6.581  16.698  -0.000   0.000  10.921
 Leave Link  601 at Wed Oct 21 14:42:13 2020, MaxMem=  2684354560 cpu:               4.3 elap:               0.9
 (Enter /udrive/faculty/rpeverati/g16/g16/l701.exe)
 ... and contract with generalized density number  0.
 Compute integral second derivatives.
 R6Disp: Adding PM7 dispersion energy 2nd derivatives to the Hessian.
 Leave Link  701 at Wed Oct 21 14:42:15 2020, MaxMem=  2684354560 cpu:               6.0 elap:               1.1
 (Enter /udrive/faculty/rpeverati/g16/g16/l702.exe)

 ******    1 imaginary frequencies (negative Signs) ******

                      1                      2                      3
                      A                      A                      A
 Frequencies --   -428.9275                73.7181               182.1172
 Red. masses --     10.7420                 1.0818                 2.9677
 Frc consts  --      1.1644                 0.0035                 0.0580
 IR Inten    --      5.3955                 0.0070                 1.0402

                      4                      5                      6
                      A                      A                      A
 Frequencies --    343.3787               562.1692               563.4413
 Red. masses --      1.0740                 1.0440                 1.0527
 Frc consts  --      0.0746                 0.1944                 0.1969
 IR Inten    --      0.1392                 2.5828                 1.7761

                      7                      8                      9
                      A                      A                      A
 Frequencies --    860.7159               894.8813               979.7279
 Red. masses --      1.0504                 1.0172                 1.0501
 Frc consts  --      0.4585                 0.4800                 0.5938
 IR Inten    --     18.3703                 4.8224                27.8405

                     10                     11                     12
                      A                      A                      A
 Frequencies --   1053.4005              1078.8498              1163.4379
 Red. masses --      1.2512                 1.3080                 1.5811
 Frc consts  --      0.8180                 0.8970                 1.2609
 IR Inten    --    104.6109                61.3872                 0.0375

                     13                     14                     15
                      A                      A                      A
 Frequencies --   1304.8809              1308.0003              1365.6039
 Red. masses --      1.1106                 1.1097                 1.0149
 Frc consts  --      1.1141                 1.1185                 1.1151
 IR Inten    --     44.2736                37.5980                 0.2105

                     16                     17                     18
                      A                      A                      A
 Frequencies --   1385.7632              1645.7751              2698.9313
 Red. masses --      1.1030                 7.3887                 1.0823
 Frc consts  --      1.2480                11.7913                 4.6448
 IR Inten    --     29.0129                 2.8609                 1.2221

                     19                     20                     21
                      A                      A                      A
 Frequencies --   2730.1060              2730.8258              2737.0504
 Red. masses --      1.1053                 1.1060                 1.1044
 Frc consts  --      4.8537                 4.8597                 4.8745
 IR Inten    --     18.2237                46.5731               147.9931

                     22                     23                     24
                      A                      A                      A
 Frequencies --   2769.0575              2786.7107              2791.2713
 Red. masses --      1.0431                 1.0362                 1.0291
 Frc consts  --      4.7125                 4.7412                 4.7241
 IR Inten    --     18.7935               126.1292                33.5305

 - Thermochemistry -
 -------------------
 Temperature   298.150 Kelvin.  Pressure   1.00000 Atm.
 Atom     1 has atomic number  6 and mass  12.00000

 Molecular mass:    43.05478 amu.
 Principal axes and moments of inertia in atomic units:
                           1         2         3
     Eigenvalues --    72.71352 235.32064 272.64614
           X            0.99959   0.02879  -0.00000
           Y           -0.02879   0.99959   0.00000
           Z            0.00000  -0.00000   1.00000
 This molecule is an asymmetric top.
 Rotational symmetry number  1.
 Rotational temperatures (Kelvin)      1.19117     0.36807     0.31768
 Rotational constants (GHZ):          24.81989     7.66929     6.61935
    1 imaginary frequencies ignored.
 Zero-point vibrational energy     203423.9 (Joules/Mol)
                                   48.61947 (Kcal/Mol)
 Warning -- explicit consideration of   5 degrees of freedom as
           vibrations may cause significant error
 Vibrational temperatures:    106.06   262.03   494.05   808.84   810.67
          (Kelvin)           1238.38  1287.53  1409.61  1515.61  1552.22
                             1673.93  1877.43  1881.92  1964.80  1993.80
                             2367.90  3883.16  3928.01  3929.05  3938.00
                             3984.06  4009.46  4016.02

 Zero-point correction=                           0.077480 (Hartree/Particle)
 Thermal correction to Energy=                    0.082695
 Thermal correction to Enthalpy=                  0.083639
 Thermal correction to Gibbs Free Energy=         0.049937
 Sum of electronic and zero-point Energies=              0.146591
 Sum of electronic and thermal Energies=                 0.151806
 Sum of electronic and thermal Enthalpies=               0.152750
 Sum of electronic and thermal Free Energies=            0.119048

                     E (Thermal)             CV                S
                      KCal/Mol        Cal/Mol-Kelvin    Cal/Mol-Kelvin
 Total                   51.892             16.487             70.933
 Electronic               0.000              0.000              1.377
 Translational            0.889              2.981             37.206
 Rotational               0.889              2.981             23.060
 Vibrational             50.114             10.525              9.289
 Vibration     1          0.599              1.966              4.052
 Vibration     2          0.630              1.864              2.307
 Vibration     3          0.722              1.589              1.196
 Vibration     4          0.918              1.113              0.520
 Vibration     5          0.919              1.110              0.517

 Optimization completed.
    -- Stationary point found.
 Normal termination of Gaussian 16 at Wed Oct 21 14:42:24 2020.
