 Gaussian 16, Revision A.03,

 ----------------------------------------------------------------------
 #P Opt(TS,MaxCyc=50,NoEigenTest,MaxStep=10,AddRedundant) PM7 5D 7F Int
 egral=UltraFineGrid SCF=(NoSymm,XQC,MaxCyc=120) IOp(1/33=1)
 ----------------------------------------------------------------------

 TstMul:  Mul=     1
 TstMul:  ICh=    -1
 TstMul:  Mul=     1
 Symbolic Z-matrix:
 Charge = -1 Multiplicity = 1

 SCF Done:  E(RPM7) = -0.121889749416     A.U. after   13 cycles
 SCF Done:  E(RPM7) = -0.124332137329     A.U. after   10 cycles
 SCF Done:  E(RPM7) = -0.125546474972     A.U. after   10 cycles
 SCF Done:  E(RPM7) = -0.127471555728     A.U. after   10 cycles
 SCF Done:  E(RPM7) = -0.128988380315     A.U. after   10 cycles
 SCF Done:  E(RPM7) = -0.129613111798     A.U. after   10 cycles
 SCF Done:  E(RPM7) = -0.129622815704     A.U. after    9 cycles
 Optimization completed.
    -- Stationary point found.
 Normal termination of Gaussian 16 at Wed Oct 21 14:37:10 2020.
 Gaussian 16:  ES64L-G16RevA.03 25-Dec-2016

 ----------------------------------------------------------------------
 #P Freq PM7 5D 7F Integral=UltraFineGrid SCF=(NoSymm,XQC,MaxCyc=120) I
 Op(1/33=1) Geom=Check Guess=Read
 ----------------------------------------------------------------------

 TstMul:  Mul=     1
 TstMul:  ICh=    -1
 TstMul:  Mul=     1
 Structure from the checkpoint file:  "MN_28_clch3clts_BH76_PM7_SE.chk"
 Charge = -1 Multiplicity = 1

                         Standard orientation:
 ---------------------------------------------------------------------
 Center     Atomic      Atomic             Coordinates (Angstroms)
 Number     Number       Type             X           Y           Z
 ---------------------------------------------------------------------
      1         17           0        2.163448   -0.000003   -0.000006
      2          6           0       -0.000538    0.000007    0.000017
      3          1           0        0.000190    0.788582   -0.739964
      4          1           0        0.000176   -1.035133   -0.312888
      5          1           0        0.000193    0.246587    1.052940
      6         17           0       -2.163291   -0.000002   -0.000005
 ---------------------------------------------------------------------

 SCF Done:  E(RPM7) = -0.129622815704     A.U. after    2 cycles

 The electronic state is 1-A.
 Alpha  occ. eigenvalues --   -0.82020  -0.75267  -0.70045  -0.40025  -0.40025
 Alpha  occ. eigenvalues --   -0.29848  -0.23041  -0.23041  -0.22388  -0.22388
 Alpha  occ. eigenvalues --   -0.19666
 Alpha virt. eigenvalues --    0.15939   0.34687   0.35397   0.35398   2.92555
 Alpha virt. eigenvalues --    2.93154   2.93154   2.95506   2.95882   2.95882
 Alpha virt. eigenvalues --    2.96329   2.96329   2.97008   2.97008

 Mulliken charges:
               1
     1  Cl  -0.754605
     2  C    0.079211
     3  H    0.142893
     4  H    0.142895
     5  H    0.142892
     6  Cl  -0.753287
 Sum of Mulliken charges =  -1.00000

 Dipole moment (field-independent basis, Debye):
    X=             -0.0141    Y=              0.0004    Z=              0.0001  Tot=              0.0141
 N-N= 5.726831206863D+01 E-N=-6.282146242113D+01  KE=-4.301929675510D+01
  Exact polarizability:  83.538  -0.000  10.297  -0.000   0.000   8.834
 Approx polarizability:  49.007   0.000   7.049   0.000   0.000   6.231
 Leave Link  601 at Wed Oct 21 14:37:32 2020, MaxMem=  2684354560 cpu:               0.5 elap:               0.5
 (Enter /udrive/faculty/rpeverati/g16/g16/l701.exe)
 ... and contract with generalized density number  0.
 Compute integral second derivatives.
 R6Disp: Adding PM7 dispersion energy 2nd derivatives to the Hessian.
 Leave Link  701 at Wed Oct 21 14:37:33 2020, MaxMem=  2684354560 cpu:               5.3 elap:               1.1
 (Enter /udrive/faculty/rpeverati/g16/g16/l702.exe)

 ******    1 imaginary frequencies (negative Signs) ******

                      1                      2                      3
                      A                      A                      A
 Frequencies --   -377.4670               218.5749               218.5787
 Red. masses --     13.2503                 4.2891                 4.2891
 Frc consts  --      1.1123                 0.1207                 0.1207
 IR Inten    --   1994.0828                32.8224                33.6509

                      4                      5                      6
                      A                      A                      A
 Frequencies --    282.5329              1067.9011              1067.9052
 Red. masses --     34.8951                 1.0131                 1.0131
 Frc consts  --      1.6412                 0.6807                 0.6807
 IR Inten    --      0.0005                 0.0000                 0.0000

                      7                      8                      9
                      A                      A                      A
 Frequencies --   1261.9853              1282.3021              1282.3217
 Red. masses --      1.0438                 1.1246                 1.1246
 Frc consts  --      0.9794                 1.0895                 1.0896
 IR Inten    --    143.9248                20.5511                21.3817

                     10                     11                     12
                      A                      A                      A
 Frequencies --   2681.5289              2681.5552              2715.0703
 Red. masses --      1.1069                 1.1069                 1.0079
 Frc consts  --      4.6893                 4.6894                 4.3775
 IR Inten    --     58.8062                59.8455                 0.0000

 - Thermochemistry -
 -------------------
 Temperature   298.150 Kelvin.  Pressure   1.00000 Atm.
 Atom     1 has atomic number 17 and mass  34.96885

 Molecular mass:    84.96118 amu.
 Principal axes and moments of inertia in atomic units:
                           1         2         3
     Eigenvalues --    12.626381175.194801175.19494
           X            1.00000   0.00000   0.00000
           Y           -0.00000   1.00000  -0.00003
           Z           -0.00000   0.00003   1.00000
 This molecule is an asymmetric top.
 Rotational symmetry number  1.
 Rotational temperatures (Kelvin)      6.85976     0.07370     0.07370
 Rotational constants (GHZ):         142.93414     1.53570     1.53570
    1 imaginary frequencies ignored.
 Zero-point vibrational energy      88285.9 (Joules/Mol)
                                   21.10085 (Kcal/Mol)
 Warning -- explicit consideration of   3 degrees of freedom as
           vibrations may cause significant error
 Vibrational temperatures:    314.48   314.49   406.50  1536.47  1536.48
          (Kelvin)           1815.72  1844.95  1844.97  3858.12  3858.16
                             3906.38

 Zero-point correction=                           0.033626 (Hartree/Particle)
 Thermal correction to Energy=                    0.038059
 Thermal correction to Enthalpy=                  0.039004
 Thermal correction to Gibbs Free Energy=         0.006079
 Sum of electronic and zero-point Energies=             -0.095996
 Sum of electronic and thermal Energies=                -0.091563
 Sum of electronic and thermal Enthalpies=              -0.090619
 Sum of electronic and thermal Free Energies=           -0.123544

                     E (Thermal)             CV                S
                      KCal/Mol        Cal/Mol-Kelvin    Cal/Mol-Kelvin
 Total                   23.883             12.394             69.296
 Electronic               0.000              0.000              0.000
 Translational            0.889              2.981             39.232
 Rotational               0.889              2.981             24.370
 Vibrational             22.105              6.433              5.693
 Vibration     1          0.646              1.813              1.971
 Vibration     2          0.646              1.813              1.971
 Vibration     3          0.682              1.706              1.518

                           ! Non-Optimized Parameters !
 Normal termination of Gaussian 16 at Wed Oct 21 14:37:41 2020.
