 Gaussian 16, Revision A.03,
 Gaussian 16:  ES64L-G16RevA.03 25-Dec-2016

 ----------------------------------------------------------------------
 #P Opt(MaxCyc=150) PM7 5D 7F Integral=UltraFineGrid SCF=(NoSymm,XQC,Ma
 xCyc=120) IOp(1/33=1)
 ----------------------------------------------------------------------

 TstMul:  Mul=     1
 TstMul:  ICh=    -1
 TstMul:  Mul=     1
 Symbolic Z-matrix:
 Charge = -1 Multiplicity = 1

 SCF Done:  E(RPM7) = -0.138098836015     A.U. after   12 cycles
 SCF Done:  E(RPM7) = -0.138712620121     A.U. after   10 cycles
 SCF Done:  E(RPM7) = -0.139200057789     A.U. after    9 cycles
 SCF Done:  E(RPM7) = -0.139481381923     A.U. after    9 cycles
 SCF Done:  E(RPM7) = -0.139588745080     A.U. after    9 cycles
 SCF Done:  E(RPM7) = -0.139660433199     A.U. after    9 cycles
 SCF Done:  E(RPM7) = -0.139668135348     A.U. after    9 cycles
 SCF Done:  E(RPM7) = -0.139669977137     A.U. after    8 cycles
 SCF Done:  E(RPM7) = -0.139671530403     A.U. after    8 cycles
 Optimization completed.
    -- Stationary point found.

                         Standard orientation:
 ---------------------------------------------------------------------
 Center     Atomic      Atomic             Coordinates (Angstroms)
 Number     Number       Type             X           Y           Z
 ---------------------------------------------------------------------
      1         17           0        0.000000    0.000000   -2.262884
      2          6           0        0.000000    0.000000   -0.451430
      3          1           0       -0.000000    1.040306   -0.121758
      4          1           0       -0.900931   -0.520153   -0.121758
      5          1           0        0.900931   -0.520153   -0.121758
      6         17           0        0.000000    0.000000    2.443699
 ---------------------------------------------------------------------

 The electronic state is 1-A1.
 Alpha  occ. eigenvalues --   -0.86647  -0.72219  -0.68592  -0.40519  -0.40519
 Alpha  occ. eigenvalues --   -0.37152  -0.28216  -0.28216  -0.16446  -0.16446
 Alpha  occ. eigenvalues --   -0.16429
 Alpha virt. eigenvalues --    0.16344   0.33900   0.33900   0.36522   2.74017
 Alpha virt. eigenvalues --    2.74135   2.74135   2.75430   2.75430   3.09547
 Alpha virt. eigenvalues --    3.09653   3.09653   3.10309   3.10309

 Mulliken charges:
               1
     1  Cl  -0.303442
     2  C   -0.215796
     3  H    0.170593
     4  H    0.170593
     5  H    0.170593
     6  Cl  -0.992542
 Sum of Mulliken charges =  -1.00000

 Dipole moment (field-independent basis, Debye):
    X=              0.0000    Y=             -0.0012    Z=             -8.1516  Tot=              8.1516
 N-N= 5.605777141346D+01 E-N=-6.034539228365D+01  KE=-4.302143545483D+01
 Leave Link  601 at Wed Oct 21 14:37:26 2020, MaxMem=  2684354560 cpu:               4.3 elap:               1.0
 (Enter /udrive/faculty/rpeverati/g16/g16/l9999.exe)

 Test job not archived.
 1\1\GINC-NODE37\FOpt\RPM7\ZDO\C1H3Cl2(1-)\RPEVERATI\21-Oct-2020\0\\#P
 Opt(MaxCyc=150) PM7 5D 7F Integral=UltraFineGrid SCF=(NoSymm,XQC,MaxCy
 c=120) IOp(1/33=1)\\TS search on BH76.\\-1,1\Cl,0.,0.,-2.1569026963\C,
 0.,0.,-0.345448115\H,-0.5201530422,0.9009314968,-0.015776727\H,-0.5201
 530422,-0.9009314968,-0.015776727\H,1.0403060844,0.,-0.015776727\Cl,0.

 Normal termination of Gaussian 16 at Wed Oct 21 14:37:28 2020.
