 Gaussian 16, Revision A.03,
 Gaussian 16:  ES64L-G16RevA.03 25-Dec-2016

 ----------------------------------------------------------------------
 #P Opt(MaxCyc=150) PM7 5D 7F Integral=UltraFineGrid SCF=(NoSymm,XQC,Ma
 xCyc=120) IOp(1/33=1)
 ----------------------------------------------------------------------

 TstMul:  Mul=     1
 TstMul:  ICh=     0
 TstMul:  Mul=     1
 Symbolic Z-matrix:
 Charge =  0 Multiplicity = 1

 SCF Done:  E(RPM7) = -0.779517106745E-01 A.U. after   12 cycles
 SCF Done:  E(RPM7) = -0.786133913359E-01 A.U. after   10 cycles
 SCF Done:  E(RPM7) = -0.786760819866E-01 A.U. after    9 cycles
 SCF Done:  E(RPM7) = -0.786766625997E-01 A.U. after    8 cycles
 Optimization completed.
    -- Stationary point found.

                         Standard orientation:
 ---------------------------------------------------------------------
 Center     Atomic      Atomic             Coordinates (Angstroms)
 Number     Number       Type             X           Y           Z
 ---------------------------------------------------------------------
      1          6           0        0.000000    0.000000   -0.618672
      2          9           0        0.000000    0.000000    0.741488
      3          1           0        0.000000    1.041590   -0.987119
      4          1           0        0.902044   -0.520795   -0.987119
      5          1           0       -0.902044   -0.520795   -0.987119
 ---------------------------------------------------------------------

 The electronic state is 1-A1.
 Alpha  occ. eigenvalues --   -1.48540  -0.90946  -0.61963  -0.61963  -0.58606
 Alpha  occ. eigenvalues --   -0.48409  -0.48409
 Alpha virt. eigenvalues --    0.11868   0.18750   0.18750   0.20962

 Mulliken charges:
               1
     1  C   -0.213483
     2  F   -0.194480
     3  H    0.135988
     4  H    0.135988
     5  H    0.135988
 Sum of Mulliken charges =  -0.00000

 Dipole moment (field-independent basis, Debye):
    X=              0.0000    Y=             -0.0000    Z=             -1.8014  Tot=              1.8014
 N-N= 4.204470181303D+01 E-N=-3.564434513348D+01  KE=-3.822569777035D+01
 Leave Link  601 at Wed Oct 21 14:34:54 2020, MaxMem=  2684354560 cpu:               3.3 elap:               0.9
 (Enter /udrive/faculty/rpeverati/g16/g16/l9999.exe)

 Test job not archived.
 1\1\GINC-NODE37\FOpt\RPM7\ZDO\C1H3F1\RPEVERATI\21-Oct-2020\0\\#P Opt(M
 axCyc=150) PM7 5D 7F Integral=UltraFineGrid SCF=(NoSymm,XQC,MaxCyc=120
 ) IOp(1/33=1)\\TS search on BH76.\\0,1\C,0.,0.,0.0509111676\F,0.,0.,-1
 .3092488513\H,0.5207951839,-0.9020437188,0.4193575593\H,0.5207951839,0
 .9020437188,0.4193575593\H,-1.0415903677,0.,0.4193575593\\Version=ES64

 Normal termination of Gaussian 16 at Wed Oct 21 14:34:56 2020.
