 Gaussian 16, Revision A.03,
 Gaussian 16:  ES64L-G16RevA.03 25-Dec-2016

 ----------------------------------------------------------------------
 #P Opt(MaxCyc=150) PM7 5D 7F Integral=UltraFineGrid SCF=(NoSymm,XQC,Ma
 xCyc=120) IOp(1/33=1)
 ----------------------------------------------------------------------

 TstMul:  Mul=     1
 TstMul:  ICh=     0
 TstMul:  Mul=     1
 Symbolic Z-matrix:
 Charge =  0 Multiplicity = 1

 SCF Done:  E(RPM7) = -0.768897721785E-01 A.U. after   13 cycles
 SCF Done:  E(RPM7) = -0.778126223601E-01 A.U. after   11 cycles
 SCF Done:  E(RPM7) = -0.778641392011E-01 A.U. after   10 cycles
 SCF Done:  E(RPM7) = -0.778715248511E-01 A.U. after    9 cycles
 SCF Done:  E(RPM7) = -0.778725266768E-01 A.U. after    9 cycles
 Optimization completed.
    -- Stationary point found.

                         Standard orientation:
 ---------------------------------------------------------------------
 Center     Atomic      Atomic             Coordinates (Angstroms)
 Number     Number       Type             X           Y           Z
 ---------------------------------------------------------------------
      1          6           0       -0.045558    0.668806    0.000000
      2          8           0       -0.045558   -0.745278    0.000000
      3          1           0       -1.112754    0.928116    0.000000
      4          1           0        0.871860   -1.081982    0.000000
      5          1           0        0.439354    1.051627    0.903244
      6          1           0        0.439354    1.051627   -0.903244
 ---------------------------------------------------------------------

 The electronic state is 1-A'.
 Alpha  occ. eigenvalues --   -1.07923  -0.88481  -0.63963  -0.55837  -0.54037
 Alpha  occ. eigenvalues --   -0.45462  -0.39427
 Alpha virt. eigenvalues --    0.10540   0.19439   0.20048   0.21422   0.23096

 Mulliken charges:
               1
     1  C   -0.158942
     2  O   -0.524678
     3  H    0.145958
     4  H    0.304638
     5  H    0.116513
     6  H    0.116513
 Sum of Mulliken charges =   0.00000

 Dipole moment (field-independent basis, Debye):
    X=              1.4030    Y=              1.3440    Z=              0.0000  Tot=              1.9428
 N-N= 3.837393292252D+01 E-N=-3.891194571248D+01  KE=-2.888907456430D+01
 Leave Link  601 at Wed Oct 21 14:35:46 2020, MaxMem=  2684354560 cpu:               4.3 elap:               1.0
 (Enter /udrive/faculty/rpeverati/g16/g16/l9999.exe)

 Test job not archived.
 1\1\GINC-NODE22\FOpt\RPM7\ZDO\C1H4O1\RPEVERATI\21-Oct-2020\0\\#P Opt(M
 axCyc=150) PM7 5D 7F Integral=UltraFineGrid SCF=(NoSymm,XQC,MaxCyc=120
 ) IOp(1/33=1)\\TS search on BH76.\\0,1\C,-0.0411408783,0.6860206327,0.
 \O,-0.0517800014,-0.7280231154,0.\H,-1.1063554199,0.9533523223,0.\H,0.
 8630788989,-1.0716202996,0.\H,0.4466375812,1.0651827326,0.9032443178\H

 Normal termination of Gaussian 16 at Wed Oct 21 14:35:48 2020.
