 Gaussian 16, Revision A.03,
 Gaussian 16:  ES64L-G16RevA.03 25-Dec-2016

 ----------------------------------------------------------------------
 #P Opt(MaxCyc=150) PM7 5D 7F Integral=UltraFineGrid SCF=(NoSymm,XQC,Ma
 xCyc=120) IOp(1/33=1)
 ----------------------------------------------------------------------

 TstMul:  Mul=     2
 TstMul:  ICh=     0
 TstMul:  Mul=     2
 Symbolic Z-matrix:
 Charge =  0 Multiplicity = 2

 SCF Done:  E(UPM7) =  0.452459677872E-01 A.U. after    9 cycles
 SCF Done:  E(UPM7) =  0.445989697576E-01 A.U. after    8 cycles
 SCF Done:  E(UPM7) =  0.445706279385E-01 A.U. after    7 cycles
 Optimization completed.
    -- Stationary point found.

                         Standard orientation:
 ---------------------------------------------------------------------
 Center     Atomic      Atomic             Coordinates (Angstroms)
 Number     Number       Type             X           Y           Z
 ---------------------------------------------------------------------
      1          6           0        0.000000    0.000000    0.000000
      2          1           0        0.000000    1.056559    0.000000
      3          1           0        0.915007   -0.528279    0.000000
      4          1           0       -0.915007   -0.528279    0.000000
 ---------------------------------------------------------------------

 The electronic state is 2-A2".
 Alpha  occ. eigenvalues --   -0.87419  -0.53191  -0.53191  -0.36629
 Alpha virt. eigenvalues --    0.22688   0.22688   0.23894
  Beta  occ. eigenvalues --   -0.85761  -0.52167  -0.52167
  Beta virt. eigenvalues --    0.01986   0.23382   0.23382   0.25084

 Mulliken charges and spin densities:
               1          2
     1  C   -0.406452   1.090992
     2  H    0.135484  -0.030331
     3  H    0.135484  -0.030331
     4  H    0.135484  -0.030331
 Sum of Mulliken charges =   0.00000   1.00000

 Dipole moment (field-independent basis, Debye):
    X=              0.0000    Y=              0.0000    Z=              0.0000  Tot=              0.0000
 N-N= 1.155721649785D+01 E-N=-9.427810404167D+00  KE=-9.392229508391D+00
 Leave Link  601 at Wed Oct 21 14:35:48 2020, MaxMem=  2684354560 cpu:               3.5 elap:               1.2
 (Enter /udrive/faculty/rpeverati/g16/g16/l9999.exe)

 Test job not archived.
 1\1\GINC-NODE61\FOpt\UPM7\ZDO\C1H3(2)\RPEVERATI\21-Oct-2020\0\\#P Opt(
 MaxCyc=150) PM7 5D 7F Integral=UltraFineGrid SCF=(NoSymm,XQC,MaxCyc=12
 0) IOp(1/33=1)\\TS search on BH76.\\0,2\C,0.,0.,0.\H,0.5282792881,0.91
 50065676,0.\H,0.5282792881,-0.9150065676,0.\H,-1.0565585762,0.,0.\\Ver
 sion=ES64L-G16RevA.03\State=2-A2"\HF=0.0445706\S2=0.752845\S2-1=0.\S2A

 Normal termination of Gaussian 16 at Wed Oct 21 14:35:51 2020.
