 Gaussian 16, Revision A.03,
 Gaussian 16:  ES64L-G16RevA.03 25-Dec-2016

 ----------------------------------------------------------------------
 #P Opt(MaxCyc=150) PM7 5D 7F Integral=UltraFineGrid SCF=(NoSymm,XQC,Ma
 xCyc=120) IOp(1/33=1)
 ----------------------------------------------------------------------

 TstMul:  Mul=     1
 TstMul:  ICh=     0
 TstMul:  Mul=     1
 Symbolic Z-matrix:
 Charge =  0 Multiplicity = 1

 SCF Done:  E(RPM7) = -0.315859158296E-01 A.U. after   10 cycles
 SCF Done:  E(RPM7) = -0.321242832199E-01 A.U. after    8 cycles
 SCF Done:  E(RPM7) = -0.321429485148E-01 A.U. after    7 cycles
 Optimization completed.
    -- Stationary point found.

                         Standard orientation:
 ---------------------------------------------------------------------
 Center     Atomic      Atomic             Coordinates (Angstroms)
 Number     Number       Type             X           Y           Z
 ---------------------------------------------------------------------
      1          9           0        0.000000    0.000000   -1.047397
      2         17           0        0.000000    0.000000    0.554504
 ---------------------------------------------------------------------

 The electronic state is 1-SG.
 Alpha  occ. eigenvalues --   -1.55379  -0.94086  -0.64437  -0.64437  -0.57984
 Alpha  occ. eigenvalues --   -0.43096  -0.43096
 Alpha virt. eigenvalues --   -0.03226   2.48884   2.48884   2.49229   2.50154
 Alpha virt. eigenvalues --    2.50154

 Mulliken charges:
               1
     1  F   -0.073339
     2  Cl   0.073339
 Sum of Mulliken charges =   0.00000

 Dipole moment (field-independent basis, Debye):
    X=              0.0000    Y=              0.0000    Z=              0.1767  Tot=              0.1767
 N-N= 4.020219262258D+01 E-N=-2.592770992759D+01  KE=-4.409067753343D+01
 Leave Link  601 at Wed Oct 21 14:36:37 2020, MaxMem=  2684354560 cpu:               3.1 elap:               1.0
 (Enter /udrive/faculty/rpeverati/g16/g16/l9999.exe)

 Test job not archived.
 1\1\GINC-NODE60\FOpt\RPM7\ZDO\Cl1F1\RPEVERATI\21-Oct-2020\0\\#P Opt(Ma
 xCyc=150) PM7 5D 7F Integral=UltraFineGrid SCF=(NoSymm,XQC,MaxCyc=120)
  IOp(1/33=1)\\TS search on BH76.\\0,1\F,0.,0.,-1.0517700738\Cl,0.,0.,0
 .550131245\\Version=ES64L-G16RevA.03\State=1-SG\HF=-0.0321429\RMSD=2.3
 07e-09\RMSF=9.447e-07\Dipole=0.,0.,0.0695317\PG=C*V [C*(F1Cl1)]\\@

 Normal termination of Gaussian 16 at Wed Oct 21 14:36:40 2020.
