 Gaussian 16, Revision A.03,
 Gaussian 16:  ES64L-G16RevA.03 25-Dec-2016

 ----------------------------------------------------------------------
 #P Opt(MaxCyc=150) PM7 5D 7F Integral=UltraFineGrid SCF=(NoSymm,XQC,Ma
 xCyc=120) IOp(1/33=1)
 ----------------------------------------------------------------------

 TstMul:  Mul=     1
 TstMul:  ICh=     0
 TstMul:  Mul=     1
 Symbolic Z-matrix:
 Charge =  0 Multiplicity = 1

 SCF Done:  E(RPM7) = -0.289157310733E-01 A.U. after   10 cycles
 SCF Done:  E(RPM7) = -0.290840233821E-01 A.U. after    9 cycles
 SCF Done:  E(RPM7) = -0.290956477671E-01 A.U. after    8 cycles
 Optimization completed.
    -- Stationary point found.

                         Standard orientation:
 ---------------------------------------------------------------------
 Center     Atomic      Atomic             Coordinates (Angstroms)
 Number     Number       Type             X           Y           Z
 ---------------------------------------------------------------------
      1          8           0        0.000000    0.000000    0.488206
      2          6           0        0.000000    0.000000   -0.650942
 ---------------------------------------------------------------------

 The electronic state is 1-SG.
 Alpha  occ. eigenvalues --   -1.20623  -0.72607  -0.55699  -0.55699  -0.45326
 Alpha virt. eigenvalues --    0.05862   0.05862   0.20441

 Mulliken charges:
               1
     1  O   -0.435232
     2  C    0.435232
 Sum of Mulliken charges =  -0.00000

 Dipole moment (field-independent basis, Debye):
    X=              0.0000    Y=             -0.0000    Z=             -0.7533  Tot=              0.7533
 N-N= 2.398889150027D+01 E-N=-1.548775483096D+01  KE=-2.554914594737D+01
 Leave Link  601 at Wed Oct 21 14:36:39 2020, MaxMem=  2684354560 cpu:               4.5 elap:               1.0
 (Enter /udrive/faculty/rpeverati/g16/g16/l9999.exe)

 Test job not archived.
 1\1\GINC-NODE58\FOpt\RPM7\ZDO\C1O1\RPEVERATI\21-Oct-2020\0\\#P Opt(Max
 Cyc=150) PM7 5D 7F Integral=UltraFineGrid SCF=(NoSymm,XQC,MaxCyc=120)
 IOp(1/33=1)\\TS search on BH76.\\0,1\O,0.,0.,0.4888879029\C,0.,0.,-0.6
 502599641\\Version=ES64L-G16RevA.03\State=1-SG\HF=-0.0290956\RMSD=6.01
 7e-13\RMSF=1.556e-07\Dipole=0.,0.,-0.2963654\PG=C*V [C*(C1O1)]\\@

 Normal termination of Gaussian 16 at Wed Oct 21 14:36:42 2020.
