 Gaussian 16, Revision A.03,
 Gaussian 16:  ES64L-G16RevA.03 25-Dec-2016

 ----------------------------------------------------------------------
 #P Opt(MaxCyc=150) PM7 5D 7F Integral=UltraFineGrid SCF=(NoSymm,XQC,Ma
 xCyc=120) IOp(1/33=1)
 ----------------------------------------------------------------------

 TstMul:  Mul=     1
 TstMul:  ICh=    -1
 TstMul:  Mul=     1
 Symbolic Z-matrix:
 Charge = -1 Multiplicity = 1

 SCF Done:  E(RPM7) = -0.137348934545     A.U. after   12 cycles
 SCF Done:  E(RPM7) = -0.138002739248     A.U. after   10 cycles
 SCF Done:  E(RPM7) = -0.138103323532     A.U. after    9 cycles
 SCF Done:  E(RPM7) = -0.138184607711     A.U. after    9 cycles
 SCF Done:  E(RPM7) = -0.138254651331     A.U. after   10 cycles
 SCF Done:  E(RPM7) = -0.138268816329     A.U. after    9 cycles
 Optimization completed.
    -- Stationary point found.

                         Standard orientation:
 ---------------------------------------------------------------------
 Center     Atomic      Atomic             Coordinates (Angstroms)
 Number     Number       Type             X           Y           Z
 ---------------------------------------------------------------------
      1         17           0        0.000000    0.000000    1.638042
      2          6           0        0.000000    0.000000   -0.185784
      3          1           0        0.000000    1.041785   -0.506401
      4          1           0        0.902213   -0.520893   -0.506401
      5          1           0       -0.902213   -0.520893   -0.506401
      6          9           0        0.000000    0.000000   -2.801424
 ---------------------------------------------------------------------

 The electronic state is 1-A1.
 Alpha  occ. eigenvalues --   -0.92992  -0.85532  -0.70749  -0.39191  -0.39191
 Alpha  occ. eigenvalues --   -0.35742  -0.27450  -0.27450  -0.15436  -0.15436
 Alpha  occ. eigenvalues --   -0.15333
 Alpha virt. eigenvalues --    0.17304   0.35357   0.35357   0.37951   2.75684
 Alpha virt. eigenvalues --    2.75801   2.75801   2.77122   2.77122

 Mulliken charges:
               1
     1  Cl  -0.335723
     2  C   -0.177551
     3  H    0.169011
     4  H    0.169011
     5  H    0.169011
     6  F   -0.993760
 Sum of Mulliken charges =  -1.00000

 Dipole moment (field-independent basis, Debye):
    X=              0.0000    Y=             -0.0013    Z=              9.6541  Tot=              9.6541
 N-N= 6.442565049082D+01 E-N=-6.270388648012D+01  KE=-5.713388889294D+01
 Leave Link  601 at Wed Oct 21 14:38:36 2020, MaxMem=  2684354560 cpu:               4.8 elap:               2.1
 (Enter /udrive/faculty/rpeverati/g16/g16/l9999.exe)

 Test job not archived.
 1\1\GINC-NODE51\FOpt\RPM7\ZDO\C1H3Cl1F1(1-)\RPEVERATI\21-Oct-2020\0\\#
 P Opt(MaxCyc=150) PM7 5D 7F Integral=UltraFineGrid SCF=(NoSymm,XQC,Max
 Cyc=120) IOp(1/33=1)\\TS search on BH76.\\-1,1\Cl,0.,0.,2.116092527\C,
 0.,0.,0.2922669232\H,-0.5208926793,-0.9022125859,-0.0283504285\H,-0.52
 08926793,0.9022125859,-0.0283504285\H,1.0417853586,0.,-0.0283504285\F,

 Normal termination of Gaussian 16 at Wed Oct 21 14:38:39 2020.
