 Gaussian 16, Revision A.03,

 ----------------------------------------------------------------------
 #P Opt(TS,MaxCyc=50,NoEigenTest,MaxStep=10,AddRedundant) PM7 5D 7F Int
 egral=UltraFineGrid SCF=(NoSymm,XQC,MaxCyc=120) IOp(1/33=1)
 ----------------------------------------------------------------------

 TstMul:  Mul=     1
 TstMul:  ICh=    -1
 TstMul:  Mul=     1
 Symbolic Z-matrix:
 Charge = -1 Multiplicity = 1

 SCF Done:  E(RPM7) = -0.128768982559     A.U. after   13 cycles
 SCF Done:  E(RPM7) = -0.129529007436     A.U. after    9 cycles
 SCF Done:  E(RPM7) = -0.130073220425     A.U. after   10 cycles
 SCF Done:  E(RPM7) = -0.130227737610     A.U. after   10 cycles
 SCF Done:  E(RPM7) = -0.129965527177     A.U. after   10 cycles
 SCF Done:  E(RPM7) = -0.129990683159     A.U. after   10 cycles
 SCF Done:  E(RPM7) = -0.129994162985     A.U. after    9 cycles
 SCF Done:  E(RPM7) = -0.129996634870     A.U. after    8 cycles
 SCF Done:  E(RPM7) = -0.129996750739     A.U. after    7 cycles
 Optimization completed.
    -- Stationary point found.
 Normal termination of Gaussian 16 at Wed Oct 21 14:40:14 2020.
 Gaussian 16:  ES64L-G16RevA.03 25-Dec-2016

 ----------------------------------------------------------------------
 #P Freq PM7 5D 7F Integral=UltraFineGrid SCF=(NoSymm,XQC,MaxCyc=120) I
 Op(1/33=1) Geom=Check Guess=Read
 ----------------------------------------------------------------------

 TstMul:  Mul=     1
 TstMul:  ICh=    -1
 TstMul:  Mul=     1
 Structure from the checkpoint file:  "MN_37_fch3clts_BH76_PM7_SE.chk"
 Charge = -1 Multiplicity = 1

                         Standard orientation:
 ---------------------------------------------------------------------
 Center     Atomic      Atomic             Coordinates (Angstroms)
 Number     Number       Type             X           Y           Z
 ---------------------------------------------------------------------
      1          9           0        0.000000    0.000000   -2.482197
      2          6           0        0.000000    0.000000   -0.505234
      3          1           0       -0.000000    1.080651   -0.566371
      4          1           0       -0.935871   -0.540326   -0.566371
      5          1           0        0.935871   -0.540326   -0.566371
      6         17           0        0.000000    0.000000    1.592370
 ---------------------------------------------------------------------

 SCF Done:  E(RPM7) = -0.129996750739     A.U. after    2 cycles

 The electronic state is 1-A1.
 Alpha  occ. eigenvalues --   -1.04436  -0.79993  -0.70667  -0.38338  -0.38338
 Alpha  occ. eigenvalues --   -0.29057  -0.24374  -0.24374  -0.23180  -0.23180
 Alpha  occ. eigenvalues --   -0.19726
 Alpha virt. eigenvalues --    0.17936   0.36240   0.36888   0.36888   2.91814
 Alpha virt. eigenvalues --    2.92329   2.92329   2.94632   2.94632

 Mulliken charges:
               1
     1  F   -0.829921
     2  C    0.136734
     3  H    0.135294
     4  H    0.135294
     5  H    0.135294
     6  Cl  -0.712696
 Sum of Mulliken charges =  -1.00000

 Dipole moment (field-independent basis, Debye):
    X=              0.0000    Y=             -0.0004    Z=              3.0108  Tot=              3.0108
 N-N= 6.597432626528D+01 E-N=-6.584284464598D+01  KE=-5.685257137272D+01
  Exact polarizability:   8.194   0.000   8.355  -0.000  -0.001  64.363
 Approx polarizability:   5.466   0.000   5.466   0.000  -0.000  36.589
 Leave Link  601 at Wed Oct 21 14:40:54 2020, MaxMem=  2684354560 cpu:               7.9 elap:               1.6
 (Enter /udrive/faculty/rpeverati/g16/g16/l701.exe)
 ... and contract with generalized density number  0.
 Compute integral second derivatives.
 R6Disp: Adding PM7 dispersion energy 2nd derivatives to the Hessian.
 Leave Link  701 at Wed Oct 21 14:40:56 2020, MaxMem=  2684354560 cpu:               7.6 elap:               1.8
 (Enter /udrive/faculty/rpeverati/g16/g16/l702.exe)

 ******    1 imaginary frequencies (negative Signs) ******

                      1                      2                      3
                     A1                      E                      E
 Frequencies --   -502.0531               241.3786               241.3786
 Red. masses --     13.2421                 4.4834                 4.4834
 Frc consts  --      1.9666                 0.1539                 0.1539
 IR Inten    --   1838.9913                44.9824                45.3579

                      4                      5                      6
                     A1                      E                      E
 Frequencies --    320.9805              1079.0904              1079.0904
 Red. masses --     21.9253                 1.0204                 1.0204
 Frc consts  --      1.3309                 0.7001                 0.7001
 IR Inten    --     30.4023                 0.1895                 0.1896

                      7                      8                      9
                      E                      E                     A1
 Frequencies --   1286.6625              1286.6625              1306.8611
 Red. masses --      1.1216                 1.1216                 1.0535
 Frc consts  --      1.0940                 1.0940                 1.0601
 IR Inten    --     18.0817                18.1301               105.0517

                     10                     11                     12
                      E                      E                     A1
 Frequencies --   2682.3638              2682.3638              2717.0136
 Red. masses --      1.1059                 1.1059                 1.0084
 Frc consts  --      4.6881                 4.6881                 4.3858
 IR Inten    --     47.8454                47.8824                 0.5379

 - Thermochemistry -
 -------------------
 Temperature   298.150 Kelvin.  Pressure   1.00000 Atm.
 Atom     1 has atomic number  9 and mass  18.99840

 Molecular mass:    68.99073 amu.
 Principal axes and moments of inertia in atomic units:
                           1         2         3
     Eigenvalues --    12.60884 755.32893 755.32893
           X            0.00000   0.61117   0.79150
           Y            0.00000   0.79150  -0.61117
           Z            1.00000   0.00000   0.00000
 This molecule is a prolate symmetric top.
 Rotational symmetry number  3.
 Rotational temperatures (Kelvin)      6.86930     0.11467     0.11467
 Rotational constants (GHZ):         143.13299     2.38934     2.38934
    1 imaginary frequencies ignored.
 Zero-point vibrational energy      89264.4 (Joules/Mol)
                                   21.33471 (Kcal/Mol)
 Warning -- explicit consideration of   3 degrees of freedom as
           vibrations may cause significant error
 Vibrational temperatures:    347.29   347.29   461.82  1552.57  1552.57
          (Kelvin)           1851.22  1851.22  1880.28  3859.32  3859.32
                             3909.18

 Zero-point correction=                           0.033999 (Hartree/Particle)
 Thermal correction to Energy=                    0.038312
 Thermal correction to Enthalpy=                  0.039256
 Thermal correction to Gibbs Free Energy=         0.008359
 Sum of electronic and zero-point Energies=             -0.095998
 Sum of electronic and thermal Energies=                -0.091684
 Sum of electronic and thermal Enthalpies=              -0.090740
 Sum of electronic and thermal Free Energies=           -0.121638

                     E (Thermal)             CV                S
                      KCal/Mol        Cal/Mol-Kelvin    Cal/Mol-Kelvin
 Total                   24.041             12.202             65.030
 Electronic               0.000              0.000              0.000
 Translational            0.889              2.981             38.612
 Rotational               0.889              2.981             21.307
 Vibrational             22.264              6.240              5.111
 Vibration     1          0.658              1.777              1.793
 Vibration     2          0.658              1.777              1.793
 Vibration     3          0.706              1.633              1.305

 Optimization completed.
    -- Stationary point found.
 Normal termination of Gaussian 16 at Wed Oct 21 14:41:10 2020.
