 Gaussian 16, Revision A.03,
 Gaussian 16:  ES64L-G16RevA.03 25-Dec-2016

 ----------------------------------------------------------------------
 #P Opt(MaxCyc=150) PM7 5D 7F Integral=UltraFineGrid SCF=(NoSymm,XQC,Ma
 xCyc=120) IOp(1/33=1)
 ----------------------------------------------------------------------

 TstMul:  Mul=     1
 TstMul:  ICh=     0
 TstMul:  Mul=     1
 Symbolic Z-matrix:
 Charge =  0 Multiplicity = 1

 SCF Done:  E(RPM7) = -0.247484958821E-01 A.U. after    6 cycles
 SCF Done:  E(RPM7) = -0.251143185541E-01 A.U. after    5 cycles
 SCF Done:  E(RPM7) = -0.252384129600E-01 A.U. after    4 cycles
 Optimization completed.
    -- Stationary point found.

                         Standard orientation:
 ---------------------------------------------------------------------
 Center     Atomic      Atomic             Coordinates (Angstroms)
 Number     Number       Type             X           Y           Z
 ---------------------------------------------------------------------
      1          9           0        0.000000    0.000000    0.707562
      2          9           0        0.000000    0.000000   -0.707562
 ---------------------------------------------------------------------

 The electronic state is 1-SGG.
 Alpha  occ. eigenvalues --   -1.52756  -1.51915  -0.64884  -0.64884  -0.59237
 Alpha  occ. eigenvalues --   -0.59154  -0.59154
 Alpha virt. eigenvalues --   -0.02718

 Mulliken charges:
               1
     1  F    0.000000
     2  F   -0.000000
 Sum of Mulliken charges =  -0.00000

 Dipole moment (field-independent basis, Debye):
    X=             -0.0000    Y=              0.0000    Z=              0.0000  Tot=              0.0000
 N-N= 4.895564315397D+01 E-N=-2.923694751287D+01  KE=-5.648517506741D+01
 Leave Link  601 at Wed Oct 21 14:36:59 2020, MaxMem=  2684354560 cpu:               2.8 elap:               1.2
 (Enter /udrive/faculty/rpeverati/g16/g16/l9999.exe)

 Test job not archived.
 1\1\GINC-NODE51\FOpt\RPM7\ZDO\F2\RPEVERATI\21-Oct-2020\0\\#P Opt(MaxCy
 c=150) PM7 5D 7F Integral=UltraFineGrid SCF=(NoSymm,XQC,MaxCyc=120) IO
 p(1/33=1)\\TS search on BH76.\\0,1\F,0.,0.,0.707561801\F,0.,0.,-0.7075
 61801\\Version=ES64L-G16RevA.03\State=1-SGG\HF=-0.0252384\RMSD=1.506e-
 09\RMSF=1.894e-06\Dipole=0.,0.,0.\PG=D*H [C*(F1.F1)]\\@

 Normal termination of Gaussian 16 at Wed Oct 21 14:37:02 2020.
