 Gaussian 16, Revision A.03,
 Gaussian 16:  ES64L-G16RevA.03 25-Dec-2016

 ----------------------------------------------------------------------
 #P Opt(MaxCyc=150) PM7 5D 7F Integral=UltraFineGrid SCF=(NoSymm,XQC,Ma
 xCyc=120) IOp(1/33=1)
 ----------------------------------------------------------------------

 TstMul:  Mul=     1
 TstMul:  ICh=    -1
 TstMul:  Mul=     1
 Symbolic Z-matrix:
 Charge = -1 Multiplicity = 1

 SCF Done:  E(RPM7) = -0.183531433435     A.U. after   12 cycles
 SCF Done:  E(RPM7) = -0.186029994904     A.U. after    9 cycles
 SCF Done:  E(RPM7) = -0.186517081903     A.U. after    9 cycles
 SCF Done:  E(RPM7) = -0.186705182939     A.U. after    9 cycles
 SCF Done:  E(RPM7) = -0.186853990789     A.U. after    9 cycles
 SCF Done:  E(RPM7) = -0.186984873819     A.U. after    9 cycles
 SCF Done:  E(RPM7) = -0.187002952000     A.U. after    8 cycles
 Optimization completed.
    -- Stationary point found.

                         Standard orientation:
 ---------------------------------------------------------------------
 Center     Atomic      Atomic             Coordinates (Angstroms)
 Number     Number       Type             X           Y           Z
 ---------------------------------------------------------------------
      1          9           0        0.000000    0.000000   -1.886370
      2          6           0        0.000000    0.000000   -0.517333
      3          1           0       -0.000000    1.036245   -0.138222
      4          1           0       -0.897415   -0.518123   -0.138222
      5          1           0        0.897415   -0.518123   -0.138222
      6          9           0        0.000000    0.000000    2.277333
 ---------------------------------------------------------------------

 The electronic state is 1-A1.
 Alpha  occ. eigenvalues --   -1.32909  -0.91830  -0.73899  -0.46724  -0.46724
 Alpha  occ. eigenvalues --   -0.43433  -0.31942  -0.31942  -0.14388  -0.14380
 Alpha  occ. eigenvalues --   -0.14380
 Alpha virt. eigenvalues --    0.26908   0.36297   0.36297   0.39115

 Mulliken charges:
               1
     1  F   -0.287013
     2  C   -0.175119
     3  H    0.153603
     4  H    0.153603
     5  H    0.153603
     6  F   -0.998679
 Sum of Mulliken charges =  -1.00000

 Dipole moment (field-independent basis, Debye):
    X=             -0.0000    Y=             -0.0000    Z=             -8.4227  Tot=              8.4227
 N-N= 7.396980381740D+01 E-N=-6.728197768837D+01  KE=-7.018062768960D+01
 Leave Link  601 at Wed Oct 21 14:37:45 2020, MaxMem=  2684354560 cpu:               3.0 elap:               0.9
 (Enter /udrive/faculty/rpeverati/g16/g16/l9999.exe)

 Test job not archived.
 1\1\GINC-NODE22\FOpt\RPM7\ZDO\C1H3F2(1-)\RPEVERATI\21-Oct-2020\0\\#P O
 pt(MaxCyc=150) PM7 5D 7F Integral=UltraFineGrid SCF=(NoSymm,XQC,MaxCyc
 =120) IOp(1/33=1)\\TS search on BH76.\\-1,1\F,0.,0.,-1.7961885809\C,0.
 ,0.,-0.4271511819\H,-0.51812264,0.897414737,-0.0480405679\H,-0.5181226
 4,-0.897414737,-0.0480405679\H,1.0362452799,0.,-0.0480405679\F,0.,0.,2

 Normal termination of Gaussian 16 at Wed Oct 21 14:37:47 2020.
