 Gaussian 16, Revision A.03,
 Gaussian 16:  ES64L-G16RevA.03 25-Dec-2016

 ----------------------------------------------------------------------
 #P Opt(MaxCyc=150) PM7 5D 7F Integral=UltraFineGrid SCF=(NoSymm,XQC,Ma
 xCyc=120) IOp(1/33=1)
 ----------------------------------------------------------------------

 TstMul:  Mul=     1
 TstMul:  ICh=    -1
 TstMul:  Mul=     1
 Symbolic Z-matrix:
 Charge = -1 Multiplicity = 1

 SCF Done:  E(RPM7) = -0.186746409398     A.U. after   12 cycles
 SCF Done:  E(RPM7) = -0.188500054899     A.U. after   10 cycles
 SCF Done:  E(RPM7) = -0.188787215329     A.U. after    9 cycles
 SCF Done:  E(RPM7) = -0.188972661462     A.U. after    9 cycles
 SCF Done:  E(RPM7) = -0.189093234723     A.U. after    9 cycles
 SCF Done:  E(RPM7) = -0.189155747944     A.U. after    9 cycles
 SCF Done:  E(RPM7) = -0.189167208998     A.U. after    9 cycles
 SCF Done:  E(RPM7) = -0.189168978412     A.U. after    8 cycles
 SCF Done:  E(RPM7) = -0.189169208444     A.U. after    8 cycles
 Optimization completed.
    -- Stationary point found.

                         Standard orientation:
 ---------------------------------------------------------------------
 Center     Atomic      Atomic             Coordinates (Angstroms)
 Number     Number       Type             X           Y           Z
 ---------------------------------------------------------------------
      1          9           0        0.000000    0.000000   -2.522808
      2          6           0        0.000000    0.000000   -1.155169
      3          1           0       -0.000000    1.037550   -0.776858
      4          1           0       -0.898545   -0.518775   -0.776858
      5          1           0        0.898545   -0.518775   -0.776858
      6         17           0        0.000000    0.000000    1.880403
 ---------------------------------------------------------------------

 The electronic state is 1-A1.
 Alpha  occ. eigenvalues --   -1.33987  -0.75442  -0.68132  -0.47740  -0.47740
 Alpha  occ. eigenvalues --   -0.44559  -0.33176  -0.33176  -0.15806  -0.15768
 Alpha  occ. eigenvalues --   -0.15768
 Alpha virt. eigenvalues --    0.25897   0.34915   0.34915   0.37591   3.10514
 Alpha virt. eigenvalues --    3.10594   3.10594   3.11098   3.11098

 Mulliken charges:
               1
     1  F   -0.275029
     2  C   -0.184911
     3  H    0.152773
     4  H    0.152773
     5  H    0.152773
     6  Cl  -0.998378
 Sum of Mulliken charges =  -1.00000

 Dipole moment (field-independent basis, Debye):
    X=             -0.0000    Y=              0.0001    Z=             -6.5857  Tot=              6.5857
 N-N= 6.570347843501D+01 E-N=-6.511693337164D+01  KE=-5.604247741189D+01
 Leave Link  601 at Wed Oct 21 14:38:10 2020, MaxMem=  2684354560 cpu:               2.7 elap:               0.9
 (Enter /udrive/faculty/rpeverati/g16/g16/l9999.exe)

 Test job not archived.
 1\1\GINC-NODE41\FOpt\RPM7\ZDO\C1H3Cl1F1(1-)\RPEVERATI\21-Oct-2020\0\\#
 P Opt(MaxCyc=150) PM7 5D 7F Integral=UltraFineGrid SCF=(NoSymm,XQC,Max
 Cyc=120) IOp(1/33=1)\\TS search on BH76.\\-1,1\F,0.,0.,-1.8347829871\C
 ,0.,0.,-0.4671439764\H,-0.5187750355,0.8985447193,-0.0888336898\H,-0.5
 187750355,-0.8985447193,-0.0888336898\H,1.0375500711,0.,-0.0888336898\

 Normal termination of Gaussian 16 at Wed Oct 21 14:38:13 2020.
