 Gaussian 16, Revision A.03,

 ----------------------------------------------------------------------
 #P Opt(TS,MaxCyc=50,NoEigenTest,MaxStep=10,AddRedundant) PM7 5D 7F Int
 egral=UltraFineGrid SCF=(NoSymm,XQC,MaxCyc=120) IOp(1/33=1)
 ----------------------------------------------------------------------

 TstMul:  Mul=     1
 TstMul:  ICh=    -1
 TstMul:  Mul=     1
 Symbolic Z-matrix:
 Charge = -1 Multiplicity = 1

 SCF Done:  E(RPM7) = -0.132524846185     A.U. after   11 cycles
 SCF Done:  E(RPM7) = -0.132909818511     A.U. after   10 cycles
 SCF Done:  E(RPM7) = -0.133039715150     A.U. after   10 cycles
 SCF Done:  E(RPM7) = -0.132983454776     A.U. after   10 cycles
 SCF Done:  E(RPM7) = -0.132985377478     A.U. after    9 cycles
 Optimization completed.
    -- Stationary point found.
 Normal termination of Gaussian 16 at Wed Oct 21 14:37:19 2020.
 Gaussian 16:  ES64L-G16RevA.03 25-Dec-2016

 ----------------------------------------------------------------------
 #P Freq PM7 5D 7F Integral=UltraFineGrid SCF=(NoSymm,XQC,MaxCyc=120) I
 Op(1/33=1) Geom=Check Guess=Read
 ----------------------------------------------------------------------

 TstMul:  Mul=     1
 TstMul:  ICh=    -1
 TstMul:  Mul=     1
 Structure from the checkpoint file:  "MN_39_fch3fts_BH76_PM7_SE.chk"
 Charge = -1 Multiplicity = 1

                         Standard orientation:
 ---------------------------------------------------------------------
 Center     Atomic      Atomic             Coordinates (Angstroms)
 Number     Number       Type             X           Y           Z
 ---------------------------------------------------------------------
      1          9           0        1.830776    0.000004   -0.000006
      2          6           0       -0.000020    0.000007    0.000009
      3          1           0        0.000120   -0.463935    0.982385
      4          1           0        0.000119    1.082709   -0.089436
      5          1           0        0.000120   -0.618879   -0.892897
      6          9           0       -1.830803    0.000004   -0.000006
 ---------------------------------------------------------------------

 SCF Done:  E(RPM7) = -0.132985377478     A.U. after    2 cycles

 The electronic state is 1-A.
 Alpha  occ. eigenvalues --   -1.07156  -1.07064  -0.71277  -0.35941  -0.35939
 Alpha  occ. eigenvalues --   -0.29638  -0.26301  -0.26301  -0.25189  -0.25189
 Alpha  occ. eigenvalues --   -0.19766
 Alpha virt. eigenvalues --    0.23007   0.38535   0.39486   0.39488

 Mulliken charges:
               1
     1  F   -0.778027
     2  C    0.203608
     3  H    0.117455
     4  H    0.117463
     5  H    0.117458
     6  F   -0.777958
 Sum of Mulliken charges =  -1.00000

 Dipole moment (field-independent basis, Debye):
    X=             -0.0004    Y=             -0.0001    Z=              0.0001  Tot=              0.0004
 N-N= 7.573671968415D+01 E-N=-7.104418451416D+01  KE=-7.050000034390D+01
  Exact polarizability:  45.064  -0.000   6.545   0.000   0.000   6.545
 Approx polarizability:  25.255  -0.000   3.952   0.000   0.000   3.951
 Leave Link  601 at Wed Oct 21 14:37:42 2020, MaxMem=  2684354560 cpu:               2.0 elap:               0.8
 (Enter /udrive/faculty/rpeverati/g16/g16/l701.exe)
 ... and contract with generalized density number  0.
 Compute integral second derivatives.
 R6Disp: Adding PM7 dispersion energy 2nd derivatives to the Hessian.
 Leave Link  701 at Wed Oct 21 14:37:43 2020, MaxMem=  2684354560 cpu:               2.5 elap:               0.8
 (Enter /udrive/faculty/rpeverati/g16/g16/l702.exe)

 ******    1 imaginary frequencies (negative Signs) ******

                      1                      2                      3
                      A                      A                      A
 Frequencies --   -800.6962               260.2916               302.0901
 Red. masses --     13.0896                18.8984                 4.5023
 Frc consts  --      4.9444                 0.7544                 0.2421
 IR Inten    --   1886.2056                 0.0000                53.7223

                      4                      5                      6
                      A                      A                      A
 Frequencies --    302.1006              1183.1607              1183.1704
 Red. masses --      4.5024                 1.0212                 1.0212
 Frc consts  --      0.2421                 0.8423                 0.8423
 IR Inten    --     53.7210                 0.0000                 0.0000

                      7                      8                      9
                      A                      A                      A
 Frequencies --   1287.1001              1287.1485              1397.7214
 Red. masses --      1.1364                 1.1364                 1.0654
 Frc consts  --      1.1092                 1.1092                 1.2263
 IR Inten    --      8.9083                 8.9080                55.9132

                     10                     11                     12
                      A                      A                      A
 Frequencies --   2679.7791              2679.8488              2710.5587
 Red. masses --      1.1047                 1.1048                 1.0081
 Frc consts  --      4.6742                 4.6745                 4.3639
 IR Inten    --     25.1058                25.1144                 0.0000

 - Thermochemistry -
 -------------------
 Temperature   298.150 Kelvin.  Pressure   1.00000 Atm.
 Atom     1 has atomic number  9 and mass  18.99840

 Molecular mass:    53.02028 amu.
 Principal axes and moments of inertia in atomic units:
                           1         2         3
     Eigenvalues --    12.74355 461.17264 461.17323
           X            1.00000  -0.00000   0.00000
           Y            0.00000   1.00000  -0.00000
           Z           -0.00000   0.00000   1.00000
 This molecule is an asymmetric top.
 Rotational symmetry number  1.
 Rotational temperatures (Kelvin)      6.79669     0.18781     0.18781
 Rotational constants (GHZ):         141.61996     3.91337     3.91337
    1 imaginary frequencies ignored.
 Zero-point vibrational energy      91352.6 (Joules/Mol)
                                   21.83381 (Kcal/Mol)
 Warning -- explicit consideration of   3 degrees of freedom as
           vibrations may cause significant error
 Vibrational temperatures:    374.50   434.64   434.66  1702.30  1702.32
          (Kelvin)           1851.85  1851.92  2011.01  3855.60  3855.70
                             3899.89

 Zero-point correction=                           0.034794 (Hartree/Particle)
 Thermal correction to Energy=                    0.039001
 Thermal correction to Enthalpy=                  0.039945
 Thermal correction to Gibbs Free Energy=         0.009070
 Sum of electronic and zero-point Energies=             -0.098191
 Sum of electronic and thermal Energies=                -0.093984
 Sum of electronic and thermal Enthalpies=              -0.093040
 Sum of electronic and thermal Free Energies=           -0.123915

                     E (Thermal)             CV                S
                      KCal/Mol        Cal/Mol-Kelvin    Cal/Mol-Kelvin
 Total                   24.474             11.897             64.982
 Electronic               0.000              0.000              0.000
 Translational            0.889              2.981             37.827
 Rotational               0.889              2.981             22.521
 Vibrational             22.696              5.935              4.635
 Vibration     1          0.668              1.745              1.660
 Vibration     2          0.694              1.670              1.405
 Vibration     3          0.694              1.670              1.405

                           ! Non-Optimized Parameters !
 Normal termination of Gaussian 16 at Wed Oct 21 14:37:50 2020.
