 Gaussian 16, Revision A.03,
 Gaussian 16:  ES64L-G16RevA.03 25-Dec-2016

 ----------------------------------------------------------------------
 #P Opt(MaxCyc=150) PM7 5D 7F Integral=UltraFineGrid SCF=(NoSymm,XQC,Ma
 xCyc=120) IOp(1/33=1)
 ----------------------------------------------------------------------

 TstMul:  Mul=     1
 TstMul:  ICh=     0
 TstMul:  Mul=     1
 Symbolic Z-matrix:
 Charge =  0 Multiplicity = 1

 SCF Done:  E(RPM7) =  0.477875615149E-01 A.U. after   11 cycles
 SCF Done:  E(RPM7) =  0.475834341867E-01 A.U. after    8 cycles
 SCF Done:  E(RPM7) =  0.475625413678E-01 A.U. after    8 cycles
 Optimization completed.
    -- Stationary point found.

                         Standard orientation:
 ---------------------------------------------------------------------
 Center     Atomic      Atomic             Coordinates (Angstroms)
 Number     Number       Type             X           Y           Z
 ---------------------------------------------------------------------
      1          6           0        0.000000    0.000000   -0.502347
      2          7           0        0.000000    0.000000    0.651520
      3          1           0        0.000000    0.000000   -1.546556
 ---------------------------------------------------------------------

 The electronic state is 1-SG.
 Alpha  occ. eigenvalues --   -1.29807  -0.77337  -0.51642  -0.51642  -0.50721
 Alpha virt. eigenvalues --    0.03348   0.03348   0.15027   0.20794

 Mulliken charges:
               1
     1  C    0.001932
     2  N   -0.211582
     3  H    0.209651
 Sum of Mulliken charges =  -0.00000

 Dipole moment (field-independent basis, Debye):
    X=             -0.0000    Y=              0.0000    Z=             -2.7732  Tot=              2.7732
 N-N= 2.148882160181D+01 E-N=-1.705413763993D+01  KE=-1.860541804079D+01
 Leave Link  601 at Wed Oct 21 14:38:00 2020, MaxMem=  2684354560 cpu:               5.9 elap:               1.5
 (Enter /udrive/faculty/rpeverati/g16/g16/l9999.exe)

 Test job not archived.
 1\1\GINC-NODE60\FOpt\RPM7\ZDO\C1H1N1\RPEVERATI\21-Oct-2020\0\\#P Opt(M
 axCyc=150) PM7 5D 7F Integral=UltraFineGrid SCF=(NoSymm,XQC,MaxCyc=120
 ) IOp(1/33=1)\\TS search on BH76.\\0,1\C,0.,0.,-0.5078916426\N,0.,0.,0
 .6459757635\H,0.,0.,-1.5521001334\\Version=ES64L-G16RevA.03\State=1-SG
 \HF=0.0475625\RMSD=4.058e-09\RMSF=3.063e-05\Dipole=0.,0.,-1.0910636\PG

 Normal termination of Gaussian 16 at Wed Oct 21 14:38:04 2020.
