 Gaussian 16, Revision A.03,
 Gaussian 16:  ES64L-G16RevA.03 25-Dec-2016

 ----------------------------------------------------------------------
 #P Opt(MaxCyc=150) PM7 5D 7F Integral=UltraFineGrid SCF=(NoSymm,XQC,Ma
 xCyc=120) IOp(1/33=1)
 ----------------------------------------------------------------------

 TstMul:  Mul=     1
 TstMul:  ICh=     0
 TstMul:  Mul=     1
 Symbolic Z-matrix:
 Charge =  0 Multiplicity = 1

 SCF Done:  E(RPM7) = -0.519037066329E-02 A.U. after   15 cycles
 SCF Done:  E(RPM7) = -0.559519672790E-02 A.U. after   14 cycles
 SCF Done:  E(RPM7) = -0.560003137869E-02 A.U. after   11 cycles
 Optimization completed.
    -- Stationary point found.

                         Standard orientation:
 ---------------------------------------------------------------------
 Center     Atomic      Atomic             Coordinates (Angstroms)
 Number     Number       Type             X           Y           Z
 ---------------------------------------------------------------------
      1         16           0        0.000000   -0.000000    0.098672
      2          1           0       -0.000000    1.002275   -0.789373
      3          1           0       -0.000000   -1.002275   -0.789373
 ---------------------------------------------------------------------

 The electronic state is 1-A1.
 Alpha  occ. eigenvalues --   -0.99330  -0.53068  -0.42693  -0.34424
 Alpha virt. eigenvalues --   -0.03070  -0.01281  -0.00558  -0.00111   0.00030
 Alpha virt. eigenvalues --    0.10068   0.12681

 Mulliken charges:
               1
     1  S   -0.330968
     2  H    0.165484
     3  H    0.165484
 Sum of Mulliken charges =   0.00000

 Dipole moment (field-independent basis, Debye):
    X=              0.0000    Y=             -0.0000    Z=             -1.7006  Tot=              1.7006
 N-N= 1.138714025298D+01 E-N=-6.635966013719D+00  KE=-1.155921159283D+01
 Leave Link  601 at Wed Oct 21 14:37:09 2020, MaxMem=  2684354560 cpu:               2.6 elap:               0.8
 (Enter /udrive/faculty/rpeverati/g16/g16/l9999.exe)

 Test job not archived.
 1\1\GINC-NODE39\FOpt\RPM7\ZDO\H2S1\RPEVERATI\21-Oct-2020\0\\#P Opt(Max
 Cyc=150) PM7 5D 7F Integral=UltraFineGrid SCF=(NoSymm,XQC,MaxCyc=120)
 IOp(1/33=1)\\TS search on BH76.\\0,1\S,0.,0.,0.0794319316\H,0.,1.00227
 46288,-0.8086123052\H,0.,-1.0022746288,-0.8086123052\\Version=ES64L-G1
 6RevA.03\State=1-A1\HF=-0.0056\RMSD=6.961e-09\RMSF=3.774e-05\Dipole=0.

 Normal termination of Gaussian 16 at Wed Oct 21 14:37:11 2020.
