 Gaussian 16, Revision A.03,
 Gaussian 16:  ES64L-G16RevA.03 25-Dec-2016

 ----------------------------------------------------------------------
 #P Opt(MaxCyc=150) PM7 5D 7F Integral=UltraFineGrid SCF=(NoSymm,XQC,Ma
 xCyc=120) IOp(1/33=1)
 ----------------------------------------------------------------------

 TstMul:  Mul=     1
 TstMul:  ICh=     0
 TstMul:  Mul=     1
 Symbolic Z-matrix:
 Charge =  0 Multiplicity = 1

 SCF Done:  E(RPM7) = -0.326442112959E-01 A.U. after    8 cycles
 SCF Done:  E(RPM7) = -0.326455730748E-01 A.U. after    6 cycles
 Optimization completed.
    -- Stationary point found.

                         Standard orientation:
 ---------------------------------------------------------------------
 Center     Atomic      Atomic             Coordinates (Angstroms)
 Number     Number       Type             X           Y           Z
 ---------------------------------------------------------------------
      1         17           0        0.000000    0.000000    0.070719
      2          1           0        0.000000    0.000000   -1.202219
 ---------------------------------------------------------------------

 The electronic state is 1-SG.
 Alpha  occ. eigenvalues --   -0.96964  -0.56485  -0.43095  -0.43095
 Alpha virt. eigenvalues --    0.07604   2.55148   2.56032   2.56032   2.59184
 Alpha virt. eigenvalues --    2.59184

 Mulliken charges:
               1
     1  Cl  -0.218885
     2  H    0.218885
 Sum of Mulliken charges =   0.00000

 Dipole moment (field-independent basis, Debye):
    X=             -0.0000    Y=              0.0000    Z=             -1.7440  Tot=              1.7440
 N-N= 1.261206598751D+01 E-N=-3.875351135125D+00  KE=-1.662129556012D+01
 Leave Link  601 at Wed Oct 21 14:37:21 2020, MaxMem=  2684354560 cpu:               2.8 elap:               1.3
 (Enter /udrive/faculty/rpeverati/g16/g16/l9999.exe)

 Test job not archived.
 1\1\GINC-NODE61\FOpt\RPM7\ZDO\Cl1H1\RPEVERATI\21-Oct-2020\0\\#P Opt(Ma
 xCyc=150) PM7 5D 7F Integral=UltraFineGrid SCF=(NoSymm,XQC,MaxCyc=120)
  IOp(1/33=1)\\TS search on BH76.\\0,1\Cl,0.,0.,0.0700474459\H,0.,0.,-1
 .20288991\\Version=ES64L-G16RevA.03\State=1-SG\HF=-0.0326456\RMSD=1.42
 6e-09\RMSF=1.539e-05\Dipole=0.,0.,-0.6861463\PG=C*V [C*(H1Cl1)]\\@

 Normal termination of Gaussian 16 at Wed Oct 21 14:37:24 2020.
