 Gaussian 16, Revision A.03,

 ----------------------------------------------------------------------
 #P Opt(TS,MaxCyc=50,NoEigenTest,MaxStep=10,AddRedundant) PM7 5D 7F Int
 egral=UltraFineGrid SCF=(NoSymm,XQC,MaxCyc=120) IOp(1/33=1)
 ----------------------------------------------------------------------

 TstMul:  Mul=     2
 TstMul:  ICh=     0
 TstMul:  Mul=     2
 Symbolic Z-matrix:
 Charge =  0 Multiplicity = 2

 SCF Done:  E(UPM7) =  0.244572854237     A.U. after   10 cycles
 SCF Done:  E(UPM7) =  0.672109607799E-01 A.U. after   22 cycles
 SCF Done:  E(UPM7) =  0.662194557111E-01 A.U. after    9 cycles
 SCF Done:  E(UPM7) =  0.653613235150E-01 A.U. after    9 cycles
 SCF Done:  E(UPM7) =  0.651996788235E-01 A.U. after    9 cycles
 SCF Done:  E(UPM7) =  0.651981431758E-01 A.U. after    8 cycles
 Optimization completed.
    -- Stationary point found.
 Normal termination of Gaussian 16 at Wed Oct 21 14:39:34 2020.
 Gaussian 16:  ES64L-G16RevA.03 25-Dec-2016

 ----------------------------------------------------------------------
 #P Freq PM7 5D 7F Integral=UltraFineGrid SCF=(NoSymm,XQC,MaxCyc=120) I
 Op(1/33=1) Geom=Check Guess=Read
 ----------------------------------------------------------------------

 TstMul:  Mul=     2
 TstMul:  ICh=     0
 TstMul:  Mul=     2
 Structure from the checkpoint file:  "MN_45_hclhts_BH76_PM7_SE.chk"
 Charge =  0 Multiplicity = 2

                         Standard orientation:
 ---------------------------------------------------------------------
 Center     Atomic      Atomic             Coordinates (Angstroms)
 Number     Number       Type             X           Y           Z
 ---------------------------------------------------------------------
      1          1           0       -0.000000    1.398029    0.027458
      2         17           0        0.000000    0.000000   -0.003230
      3          1           0        0.000000   -1.398029    0.027458
 ---------------------------------------------------------------------

 SCF Done:  E(UPM7) =  0.651981431758E-01 A.U. after    2 cycles

 The electronic state is 2-A1.
 Alpha  occ. eigenvalues --   -0.94324  -0.64147  -0.43026  -0.43009  -0.34050
 Alpha virt. eigenvalues --    0.07568   2.55406   2.56077   2.56080   2.58734
 Alpha virt. eigenvalues --    2.58734
  Beta  occ. eigenvalues --   -0.96152  -0.58779  -0.42364  -0.42351
  Beta virt. eigenvalues --    0.02774   0.19864   2.55042   2.55708   2.55709
  Beta virt. eigenvalues --    2.58826   2.58826

 Mulliken charges and spin densities:
               1          2
     1  H    0.095541   0.561877
     2  Cl  -0.191082  -0.123755
     3  H    0.095541   0.561877
 Sum of Mulliken charges =   0.00000   1.00000

 Dipole moment (field-independent basis, Debye):
    X=              0.0000    Y=              0.0000    Z=              0.0495  Tot=              0.0495
 N-N= 1.528847347321D+01 E-N=-8.202457360997D+00  KE=-1.706207402190D+01
  Exact polarizability:   2.378  -0.000  45.561  -0.000   0.000   1.674
 Approx polarizability:   1.772  -0.000  26.485  -0.000   0.000   1.297
 Leave Link  601 at Wed Oct 21 14:40:14 2020, MaxMem=  2684354560 cpu:               8.2 elap:               1.9
 (Enter /udrive/faculty/rpeverati/g16/g16/l701.exe)
 ... and contract with generalized density number  0.
 Compute integral second derivatives.
 R6Disp: Adding PM7 dispersion energy 2nd derivatives to the Hessian.
 Leave Link  701 at Wed Oct 21 14:40:17 2020, MaxMem=  2684354560 cpu:               5.2 elap:               1.6
 (Enter /udrive/faculty/rpeverati/g16/g16/l702.exe)

 ******    2 imaginary frequencies (negative Signs) ******

                      1                      2                      3
                     B2                     A1                     A1
 Frequencies --   -604.0201              -584.0344              2081.9355
 Red. masses --      1.0641                 1.0641                 1.0079
 Frc consts  --      0.2287                 0.2138                 2.5740
 IR Inten    --   1901.8111                56.8624                 0.0132

 - Thermochemistry -
 -------------------
 Temperature   298.150 Kelvin.  Pressure   1.00000 Atm.
 Atom     1 has atomic number  1 and mass   1.00783

 Molecular mass:    36.98450 amu.
 Principal axes and moments of inertia in atomic units:
                           1         2         3
     Eigenvalues --     0.00641  14.06841  14.07482
           X           -0.00000   0.00000   1.00000
           Y            1.00000   0.00000   0.00000
           Z            0.00000   1.00000   0.00000
 This molecule is an asymmetric top.
 Rotational symmetry number  2.
 Rotational temperatures (Kelvin)  13513.12467     6.15662     6.15382
 Rotational constants (GHZ):      281567.81583   128.28322   128.22480
    2 imaginary frequencies ignored.
 Zero-point vibrational energy      12452.7 (Joules/Mol)
                                    2.97628 (Kcal/Mol)
 Vibrational temperatures:   2995.44
          (Kelvin)

 Zero-point correction=                           0.004743 (Hartree/Particle)
 Thermal correction to Energy=                    0.007576
 Thermal correction to Enthalpy=                  0.008520
 Thermal correction to Gibbs Free Energy=        -0.012763
 Sum of electronic and zero-point Energies=              0.069941
 Sum of electronic and thermal Energies=                 0.072774
 Sum of electronic and thermal Enthalpies=               0.073718
 Sum of electronic and thermal Free Energies=            0.052435

                     E (Thermal)             CV                S
                      KCal/Mol        Cal/Mol-Kelvin    Cal/Mol-Kelvin
 Total                    4.754              5.970             44.794
 Electronic               0.000              0.000              1.377
 Translational            0.889              2.981             36.753
 Rotational               0.889              2.981              6.662
 Vibrational              2.977              0.009              0.001

 Optimization completed.
    -- Stationary point found.
 Normal termination of Gaussian 16 at Wed Oct 21 14:40:30 2020.
