 Gaussian 16, Revision A.03,

 ----------------------------------------------------------------------
 #P Opt(TS,MaxCyc=50,NoEigenTest,MaxStep=10,AddRedundant) PM7 5D 7F Int
 egral=UltraFineGrid SCF=(NoSymm,XQC,MaxCyc=120) IOp(1/33=1)
 ----------------------------------------------------------------------

 TstMul:  Mul=     1
 TstMul:  ICh=     0
 TstMul:  Mul=     1
 Symbolic Z-matrix:
 Charge =  0 Multiplicity = 1

 SCF Done:  E(RPM7) =  0.192779418438     A.U. after   14 cycles
 SCF Done:  E(RPM7) =  0.192174889806     A.U. after   12 cycles
 SCF Done:  E(RPM7) =  0.187012960563     A.U. after   12 cycles
 SCF Done:  E(RPM7) =  0.184842610382     A.U. after   12 cycles
 SCF Done:  E(RPM7) =  0.184751489296     A.U. after   11 cycles
 SCF Done:  E(RPM7) =  0.184751367641     A.U. after   10 cycles
 Optimization completed.
    -- Stationary point found.
 Normal termination of Gaussian 16 at Wed Oct 21 14:38:53 2020.
 Gaussian 16:  ES64L-G16RevA.03 25-Dec-2016

 ----------------------------------------------------------------------
 #P Freq PM7 5D 7F Integral=UltraFineGrid SCF=(NoSymm,XQC,MaxCyc=120) I
 Op(1/33=1) Geom=Check Guess=Read
 ----------------------------------------------------------------------

 TstMul:  Mul=     1
 TstMul:  ICh=     0
 TstMul:  Mul=     1
 Structure from the checkpoint file:  "MN_49_hcnts_BH76_PM7_SE.chk"
 Charge =  0 Multiplicity = 1

                         Standard orientation:
 ---------------------------------------------------------------------
 Center     Atomic      Atomic             Coordinates (Angstroms)
 Number     Number       Type             X           Y           Z
 ---------------------------------------------------------------------
      1          6           0        0.090465    0.631697    0.000000
      2          7           0        0.090465   -0.572461    0.000000
      3          1           0       -1.176043    0.217044    0.000000
 ---------------------------------------------------------------------

 SCF Done:  E(RPM7) =  0.184751367641     A.U. after    2 cycles

 The electronic state is 1-A'.
 Alpha  occ. eigenvalues --   -1.31521  -0.66197  -0.57210  -0.48962  -0.42156
 Alpha virt. eigenvalues --   -0.01086   0.04379   0.06875   0.19565

 Mulliken charges:
               1
     1  C    0.065420
     2  N   -0.417212
     3  H    0.351792
 Sum of Mulliken charges =  -0.00000

 Dipole moment (field-independent basis, Debye):
    X=             -2.5467    Y=              0.7931    Z=             -0.0000  Tot=              2.6673
 N-N= 2.140411192079D+01 E-N=-1.683402580226D+01  KE=-1.868378789031D+01
  Exact polarizability:  11.084   0.366  22.917  -0.000  -0.000   5.023
 Approx polarizability:   7.999  -0.216  19.880   0.000  -0.000   2.642
 Leave Link  601 at Wed Oct 21 14:39:23 2020, MaxMem=  2684354560 cpu:               3.1 elap:               1.1
 (Enter /udrive/faculty/rpeverati/g16/g16/l701.exe)
 ... and contract with generalized density number  0.
 Compute integral second derivatives.
 R6Disp: Adding PM7 dispersion energy 2nd derivatives to the Hessian.
 Leave Link  701 at Wed Oct 21 14:39:25 2020, MaxMem=  2684354560 cpu:               4.6 elap:               1.1
 (Enter /udrive/faculty/rpeverati/g16/g16/l702.exe)

 ******    1 imaginary frequencies (negative Signs) ******

                      1                      2                      3
                     A'                     A'                     A'
 Frequencies --  -1392.0016              2014.9953              2321.2872
 Red. masses --      1.2144                 3.8771                 1.2759
 Frc consts  --      1.3864                 9.2749                 4.0508
 IR Inten    --      3.4439               244.1773               220.7553

 - Thermochemistry -
 -------------------
 Temperature   298.150 Kelvin.  Pressure   1.00000 Atm.
 Atom     1 has atomic number  6 and mass  12.00000

 Molecular mass:    27.01090 amu.
 Principal axes and moments of inertia in atomic units:
                           1         2         3
     Eigenvalues --     5.52015  33.68824  39.20839
           X           -0.03645   0.99934   0.00000
           Y            0.99934   0.03645   0.00000
           Z            0.00000   0.00000   1.00000
 This molecule is an asymmetric top.
 Rotational symmetry number  1.
 Rotational temperatures (Kelvin)     15.69051     2.57104     2.20907
 Rotational constants (GHZ):         326.93711    53.57184    46.02946
    1 imaginary frequencies ignored.
 Zero-point vibrational energy      25936.7 (Joules/Mol)
                                    6.19903 (Kcal/Mol)
 Vibrational temperatures:   2899.13  3339.81
          (Kelvin)

 Zero-point correction=                           0.009879 (Hartree/Particle)
 Thermal correction to Energy=                    0.012712
 Thermal correction to Enthalpy=                  0.013656
 Thermal correction to Gibbs Free Energy=        -0.011268
 Sum of electronic and zero-point Energies=              0.194630
 Sum of electronic and thermal Energies=                 0.197463
 Sum of electronic and thermal Enthalpies=               0.198408
 Sum of electronic and thermal Free Energies=            0.173483

                     E (Thermal)             CV                S
                      KCal/Mol        Cal/Mol-Kelvin    Cal/Mol-Kelvin
 Total                    7.977              5.976             52.458
 Electronic               0.000              0.000              0.000
 Translational            0.889              2.981             35.816
 Rotational               0.889              2.981             16.640
 Vibrational              6.199              0.015              0.002

 Optimization completed.
    -- Stationary point found.
 Normal termination of Gaussian 16 at Wed Oct 21 14:39:32 2020.
