 Gaussian 16, Revision A.03,
 Gaussian 16:  ES64L-G16RevA.03 25-Dec-2016

 ----------------------------------------------------------------------
 #P Opt(MaxCyc=150) PM7 5D 7F Integral=UltraFineGrid SCF=(NoSymm,XQC,Ma
 xCyc=120) IOp(1/33=1)
 ----------------------------------------------------------------------

 TstMul:  Mul=     1
 TstMul:  ICh=     0
 TstMul:  Mul=     1
 Symbolic Z-matrix:
 Charge =  0 Multiplicity = 1

 SCF Done:  E(RPM7) = -0.919667028330E-01 A.U. after    9 cycles
 SCF Done:  E(RPM7) = -0.919766508203E-01 A.U. after    6 cycles
 SCF Done:  E(RPM7) = -0.919781904747E-01 A.U. after    6 cycles
 Optimization completed.
    -- Stationary point found.

                         Standard orientation:
 ---------------------------------------------------------------------
 Center     Atomic      Atomic             Coordinates (Angstroms)
 Number     Number       Type             X           Y           Z
 ---------------------------------------------------------------------
      1          8           0        0.000000   -0.000000    0.116032
      2          1           0        0.000000    0.760057   -0.464128
      3          1           0       -0.000000   -0.760057   -0.464128
 ---------------------------------------------------------------------

 The electronic state is 1-A1.
 Alpha  occ. eigenvalues --   -1.08769  -0.65502  -0.52257  -0.44501
 Alpha virt. eigenvalues --    0.14854   0.23306

 Mulliken charges:
               1
     1  O   -0.648752
     2  H    0.324376
     3  H    0.324376
 Sum of Mulliken charges =  -0.00000

 Dipole moment (field-independent basis, Debye):
    X=             -0.0000    Y=             -0.0000    Z=             -2.1306  Tot=              2.1306
 N-N= 1.714707196491D+01 E-N=-8.505309952721D+00  KE=-2.055222167171D+01
 Leave Link  601 at Wed Oct 21 14:37:05 2020, MaxMem=  2684354560 cpu:               4.3 elap:               1.1
 (Enter /udrive/faculty/rpeverati/g16/g16/l9999.exe)

 Test job not archived.
 1\1\GINC-NODE53\FOpt\RPM7\ZDO\H2O1\RPEVERATI\21-Oct-2020\0\\#P Opt(Max
 Cyc=150) PM7 5D 7F Integral=UltraFineGrid SCF=(NoSymm,XQC,MaxCyc=120)
 IOp(1/33=1)\\TS search on BH76.\\0,1\O,0.,0.,0.1134332545\H,0.,0.76005
 72659,-0.4667263052\H,0.,-0.7600572659,-0.4667263052\\Version=ES64L-G1
 6RevA.03\State=1-A1\HF=-0.0919782\RMSD=6.657e-09\RMSF=2.055e-04\Dipole

 Normal termination of Gaussian 16 at Wed Oct 21 14:37:08 2020.
