 Gaussian 16, Revision A.03,

 ----------------------------------------------------------------------
 #P Opt(TS,MaxCyc=50,NoEigenTest,MaxStep=10,AddRedundant) PM7 5D 7F Int
 egral=UltraFineGrid SCF=(NoSymm,XQC,MaxCyc=120) IOp(1/33=1)
 ----------------------------------------------------------------------

 TstMul:  Mul=     2
 TstMul:  ICh=     0
 TstMul:  Mul=     2
 Symbolic Z-matrix:
 Charge =  0 Multiplicity = 2

 SCF Done:  E(UPM7) =  0.522194715107E-01 A.U. after   18 cycles
 SCF Done:  E(UPM7) =  0.521718592229E-01 A.U. after   12 cycles
 SCF Done:  E(UPM7) =  0.521921627867E-01 A.U. after   13 cycles
 SCF Done:  E(UPM7) =  0.521602504824E-01 A.U. after   13 cycles
 SCF Done:  E(UPM7) =  0.520289301249E-01 A.U. after   13 cycles
 SCF Done:  E(UPM7) =  0.523584074289E-01 A.U. after   13 cycles
 SCF Done:  E(UPM7) =  0.525297071150E-01 A.U. after   13 cycles
 SCF Done:  E(UPM7) =  0.525664135025E-01 A.U. after   13 cycles
 SCF Done:  E(UPM7) =  0.525719449432E-01 A.U. after   12 cycles
 SCF Done:  E(UPM7) =  0.525731837125E-01 A.U. after   12 cycles
 SCF Done:  E(UPM7) =  0.525733262970E-01 A.U. after   11 cycles
 Optimization completed.
    -- Stationary point found.
 Normal termination of Gaussian 16 at Wed Oct 21 14:41:47 2020.
 Gaussian 16:  ES64L-G16RevA.03 25-Dec-2016

 ----------------------------------------------------------------------
 #P Freq PM7 5D 7F Integral=UltraFineGrid SCF=(NoSymm,XQC,MaxCyc=120) I
 Op(1/33=1) Geom=Check Guess=Read
 ----------------------------------------------------------------------

 TstMul:  Mul=     2
 TstMul:  ICh=     0
 TstMul:  Mul=     2
 Structure from the checkpoint file:  "MN_51_hcots_BH76_PM7_SE.chk"
 Charge =  0 Multiplicity = 2

                         Standard orientation:
 ---------------------------------------------------------------------
 Center     Atomic      Atomic             Coordinates (Angstroms)
 Number     Number       Type             X           Y           Z
 ---------------------------------------------------------------------
      1          1           0       -1.608156    1.545677    0.000000
      2          6           0        0.114868    0.541185    0.000000
      3          8           0        0.114868   -0.599098    0.000000
 ---------------------------------------------------------------------

 SCF Done:  E(UPM7) =  0.525733262970E-01 A.U. after    2 cycles

 The electronic state is 2-A'.
 Alpha  occ. eigenvalues --   -1.20733  -0.73088  -0.56297  -0.55689  -0.47301
 Alpha  occ. eigenvalues --   -0.38921
 Alpha virt. eigenvalues --    0.05742   0.06058   0.20293
  Beta  occ. eigenvalues --   -1.20325  -0.72607  -0.55575  -0.55558  -0.45535
  Beta virt. eigenvalues --    0.03761   0.05795   0.12322   0.20541

 Mulliken charges and spin densities:
               1          2
     1  H    0.001696   0.959338
     2  C    0.430673   0.006899
     3  O   -0.432368   0.033763
 Sum of Mulliken charges =   0.00000   1.00000

 Dipole moment (field-independent basis, Debye):
    X=             -0.0605    Y=              0.7786    Z=              0.0000  Tot=              0.7810
 N-N= 2.650193392670D+01 E-N=-1.951067666149D+01  KE=-2.597176581128D+01
  Exact polarizability:   8.545  -2.143  22.823  -0.000   0.000   5.153
 Approx polarizability:   4.187  -1.203  14.519  -0.000   0.000   2.439
 Leave Link  601 at Wed Oct 21 14:42:19 2020, MaxMem=  2684354560 cpu:               4.4 elap:               1.3
 (Enter /udrive/faculty/rpeverati/g16/g16/l701.exe)
 ... and contract with generalized density number  0.
 Compute integral second derivatives.
 R6Disp: Adding PM7 dispersion energy 2nd derivatives to the Hessian.
 Leave Link  701 at Wed Oct 21 14:42:21 2020, MaxMem=  2684354560 cpu:               2.9 elap:               1.0
 (Enter /udrive/faculty/rpeverati/g16/g16/l702.exe)

 ******    1 imaginary frequencies (negative Signs) ******

                      1                      2                      3
                     A'                     A'                     A'
 Frequencies --   -322.4830               141.9605              2040.9686
 Red. masses --      1.0803                 1.5247                13.4092
 Frc consts  --      0.0662                 0.0181                32.9098
 IR Inten    --      4.2110                 0.3796               274.2647

 - Thermochemistry -
 -------------------
 Temperature   298.150 Kelvin.  Pressure   1.00000 Atm.
 Atom     1 has atomic number  1 and mass   1.00783

 Molecular mass:    29.00274 amu.
 Principal axes and moments of inertia in atomic units:
                           1         2         3
     Eigenvalues --     7.41885  44.25648  51.67533
           X           -0.28032   0.95991   0.00000
           Y            0.95991   0.28032   0.00000
           Z            0.00000   0.00000   1.00000
 This molecule is an asymmetric top.
 Rotational symmetry number  1.
 Rotational temperatures (Kelvin)     11.67485     1.95709     1.67612
 Rotational constants (GHZ):         243.26443    40.77914    34.92462
    1 imaginary frequencies ignored.
 Zero-point vibrational energy      13056.8 (Joules/Mol)
                                    3.12065 (Kcal/Mol)
 Warning -- explicit consideration of   1 degrees of freedom as
           vibrations may cause significant error
 Vibrational temperatures:    204.25  2936.50
          (Kelvin)

 Zero-point correction=                           0.004973 (Hartree/Particle)
 Thermal correction to Energy=                    0.008464
 Thermal correction to Enthalpy=                  0.009408
 Thermal correction to Gibbs Free Energy=        -0.017990
 Sum of electronic and zero-point Energies=              0.057546
 Sum of electronic and thermal Energies=                 0.061037
 Sum of electronic and thermal Enthalpies=               0.061981
 Sum of electronic and thermal Free Energies=            0.034583

                     E (Thermal)             CV                S
                      KCal/Mol        Cal/Mol-Kelvin    Cal/Mol-Kelvin
 Total                    5.311              7.883             57.664
 Electronic               0.000              0.000              1.377
 Translational            0.889              2.981             36.028
 Rotational               0.889              2.981             17.480
 Vibrational              3.533              1.921              2.778
 Vibration     1          0.615              1.911              2.777

                           ! Non-Optimized Parameters !
 Normal termination of Gaussian 16 at Wed Oct 21 14:42:31 2020.
