 Gaussian 16, Revision A.03,

 ----------------------------------------------------------------------
 #P Opt(TS,MaxCyc=50,NoEigenTest,MaxStep=10,AddRedundant) PM7 5D 7F Int
 egral=UltraFineGrid SCF=(NoSymm,XQC,MaxCyc=120) IOp(1/33=1)
 ----------------------------------------------------------------------

 TstMul:  Mul=     2
 TstMul:  ICh=     0
 TstMul:  Mul=     2
 Symbolic Z-matrix:
 Charge =  0 Multiplicity = 2

 SCF Done:  E(UPM7) =  0.725847609211E-01 A.U. after   15 cycles
 SCF Done:  E(UPM7) =  0.707261928716E-01 A.U. after   10 cycles
 SCF Done:  E(UPM7) =  0.703775320886E-01 A.U. after   10 cycles
 SCF Done:  E(UPM7) =  0.708398071821E-01 A.U. after   11 cycles
 SCF Done:  E(UPM7) =  0.708912535557E-01 A.U. after   10 cycles
 SCF Done:  E(UPM7) =  0.709041935525E-01 A.U. after   10 cycles
 Optimization completed.
    -- Stationary point found.
 Normal termination of Gaussian 16 at Wed Oct 21 14:39:21 2020.
 Gaussian 16:  ES64L-G16RevA.03 25-Dec-2016

 ----------------------------------------------------------------------
 #P Freq PM7 5D 7F Integral=UltraFineGrid SCF=(NoSymm,XQC,MaxCyc=120) I
 Op(1/33=1) Geom=Check Guess=Read
 ----------------------------------------------------------------------

 TstMul:  Mul=     2
 TstMul:  ICh=     0
 TstMul:  Mul=     2
 Structure from the checkpoint file:  "MN_52_hf2ts_BH76_PM7_SE.chk"
 Charge =  0 Multiplicity = 2

                         Standard orientation:
 ---------------------------------------------------------------------
 Center     Atomic      Atomic             Coordinates (Angstroms)
 Number     Number       Type             X           Y           Z
 ---------------------------------------------------------------------
      1          1           0        0.000000    0.000000   -2.160519
      2          9           0        0.000000    0.000000   -0.599241
      3          9           0        0.000000    0.000000    0.839298
 ---------------------------------------------------------------------

 SCF Done:  E(UPM7) =  0.709041935525E-01 A.U. after    2 cycles

 The electronic state is 2-SG.
 Alpha  occ. eigenvalues --   -1.50990  -1.50216  -0.63105  -0.63105  -0.59962
 Alpha  occ. eigenvalues --   -0.57492  -0.57492  -0.40559
 Alpha virt. eigenvalues --   -0.02074
  Beta  occ. eigenvalues --   -1.51444  -1.48400  -0.63260  -0.63260  -0.57992
  Beta  occ. eigenvalues --   -0.57992  -0.57942
  Beta virt. eigenvalues --   -0.05035   0.10147

 Mulliken charges and spin densities:
               1          2
     1  H    0.087690   0.878385
     2  F   -0.036584  -0.061913
     3  F   -0.051106   0.183528
 Sum of Mulliken charges =  -0.00000   1.00000

 Dipole moment (field-independent basis, Debye):
    X=              0.0000    Y=             -0.0000    Z=             -1.0247  Tot=              1.0247
 N-N= 5.245759244824D+01 E-N=-3.515437919680D+01  KE=-5.718687477505D+01
  Exact polarizability:   0.003  -0.000   0.003  -0.000  -0.000  46.530
 Approx polarizability:   0.001  -0.000   0.001  -0.000   0.000  23.519
 Leave Link  601 at Wed Oct 21 14:39:50 2020, MaxMem=  2684354560 cpu:               2.1 elap:               0.9
 (Enter /udrive/faculty/rpeverati/g16/g16/l701.exe)
 ... and contract with generalized density number  0.
 Compute integral second derivatives.
 R6Disp: Adding PM7 dispersion energy 2nd derivatives to the Hessian.
 Leave Link  701 at Wed Oct 21 14:39:52 2020, MaxMem=  2684354560 cpu:               3.5 elap:               1.1
 (Enter /udrive/faculty/rpeverati/g16/g16/l702.exe)

 ******    1 imaginary frequencies (negative Signs) ******

                      1                      2                      3
                     SG                     PI                     PI
 Frequencies --  -1294.7015               211.5375               211.5375
 Red. masses --      1.1277                 1.2833                 1.2833
 Frc consts  --      1.1137                 0.0338                 0.0338
 IR Inten    --    830.5557                 6.0255                 6.0255

                      4
                     SG
 Frequencies --   1179.4113
 Red. masses --      7.4720
 Frc consts  --      6.1237
 IR Inten    --     38.7685

 - Thermochemistry -
 -------------------
 Temperature   298.150 Kelvin.  Pressure   1.00000 Atm.
 Atom     1 has atomic number  1 and mass   1.00783

 Molecular mass:    39.00463 amu.
 Principal axes and moments of inertia in atomic units:
                           1         2         3
     Eigenvalues --     0.00000  88.43301  88.43301
           X            0.00000   0.00000   1.00000
           Y            0.00000   1.00000   0.00000
           Z            1.00000   0.00000   0.00000
 This molecule is a prolate symmetric top.
 Rotational symmetry number  1.
 Rotational temperature (Kelvin)      0.97943
 Rotational constant (GHZ):          20.408005
    1 imaginary frequencies ignored.
 Zero-point vibrational energy       9585.0 (Joules/Mol)
                                    2.29087 (Kcal/Mol)
 Warning -- explicit consideration of   2 degrees of freedom as
           vibrations may cause significant error
 Vibrational temperatures:    304.36   304.36  1696.91
          (Kelvin)

 Zero-point correction=                           0.003651 (Hartree/Particle)
 Thermal correction to Energy=                    0.007115
 Thermal correction to Enthalpy=                  0.008059
 Thermal correction to Gibbs Free Energy=        -0.018427
 Sum of electronic and zero-point Energies=              0.074555
 Sum of electronic and thermal Energies=                 0.078019
 Sum of electronic and thermal Enthalpies=               0.078964
 Sum of electronic and thermal Free Energies=            0.052477

                     E (Thermal)             CV                S
                      KCal/Mol        Cal/Mol-Kelvin    Cal/Mol-Kelvin
 Total                    4.465              8.833             55.746
 Electronic               0.000              0.000              1.377
 Translational            0.889              2.981             36.912
 Rotational               0.592              1.987             13.351
 Vibrational              2.984              3.865              4.106
 Vibration     1          0.643              1.823              2.030
 Vibration     2          0.643              1.823              2.030

 Optimization completed.
    -- Stationary point found.
 Normal termination of Gaussian 16 at Wed Oct 21 14:40:01 2020.
