 Gaussian 16, Revision A.03,

 ----------------------------------------------------------------------
 #P Opt(TS,MaxCyc=50,NoEigenTest,MaxStep=10,AddRedundant) PM7 5D 7F Int
 egral=UltraFineGrid SCF=(NoSymm,XQC,MaxCyc=120) IOp(1/33=1)
 ----------------------------------------------------------------------

 TstMul:  Mul=     2
 TstMul:  ICh=     0
 TstMul:  Mul=     2
 Symbolic Z-matrix:
 Charge =  0 Multiplicity = 2

 SCF Done:  E(UPM7) =  0.485313546915E-01 A.U. after   18 cycles
 SCF Done:  E(UPM7) =  0.426555852943E-01 A.U. after   13 cycles
 SCF Done:  E(UPM7) =  0.459627157288E-01 A.U. after   13 cycles
 SCF Done:  E(UPM7) =  0.409879533739E-01 A.U. after   13 cycles
 SCF Done:  E(UPM7) =  0.367080808784E-01 A.U. after   13 cycles
 SCF Done:  E(UPM7) =  0.335859639173E-01 A.U. after   13 cycles
 SCF Done:  E(UPM7) =  0.320968596611E-01 A.U. after   12 cycles
 SCF Done:  E(UPM7) =  0.323826590033E-01 A.U. after   12 cycles
 SCF Done:  E(UPM7) =  0.334681246927E-01 A.U. after   13 cycles
 SCF Done:  E(UPM7) =  0.342371168915E-01 A.U. after   13 cycles
 SCF Done:  E(UPM7) =  0.344771247807E-01 A.U. after   13 cycles
 SCF Done:  E(UPM7) =  0.344183501634E-01 A.U. after   12 cycles
 SCF Done:  E(UPM7) =  0.344075345437E-01 A.U. after   11 cycles
 SCF Done:  E(UPM7) =  0.344038228785E-01 A.U. after   10 cycles
 SCF Done:  E(UPM7) =  0.343876155329E-01 A.U. after   12 cycles
 SCF Done:  E(UPM7) =  0.343874944020E-01 A.U. after   11 cycles
 SCF Done:  E(UPM7) =  0.343874439731E-01 A.U. after   10 cycles
 SCF Done:  E(UPM7) =  0.343873833100E-01 A.U. after   10 cycles
 Optimization completed.
    -- Stationary point found.
 Normal termination of Gaussian 16 at Wed Oct 21 14:42:13 2020.
 Gaussian 16:  ES64L-G16RevA.03 25-Dec-2016

 ----------------------------------------------------------------------
 #P Freq PM7 5D 7F Integral=UltraFineGrid SCF=(NoSymm,XQC,MaxCyc=120) I
 Op(1/33=1) Geom=Check Guess=Read
 ----------------------------------------------------------------------

 TstMul:  Mul=     2
 TstMul:  ICh=     0
 TstMul:  Mul=     2
 Structure from the checkpoint file:  "MN_53_hfch3ts_BH76_PM7_SE.chk"
 Charge =  0 Multiplicity = 2

                         Standard orientation:
 ---------------------------------------------------------------------
 Center     Atomic      Atomic             Coordinates (Angstroms)
 Number     Number       Type             X           Y           Z
 ---------------------------------------------------------------------
      1          1           0       -0.262080    1.853848    0.000000
      2          9           0        0.014402    0.654618    0.000000
      3          6           0        0.014402   -0.744867    0.000000
      4          1           0        1.057432   -1.089101    0.000000
      5          1           0       -0.505688   -1.093555    0.902202
      6          1           0       -0.505688   -1.093555   -0.902202
 ---------------------------------------------------------------------

 SCF Done:  E(UPM7) =  0.343873833101E-01 A.U. after    2 cycles

 The electronic state is 2-A'.
 Alpha  occ. eigenvalues --   -1.48334  -0.89985  -0.62854  -0.61313  -0.61064
 Alpha  occ. eigenvalues --   -0.48484  -0.48433  -0.33893
 Alpha virt. eigenvalues --    0.12757   0.20030   0.20031   0.22462
  Beta  occ. eigenvalues --   -1.48635  -0.89513  -0.60900  -0.60746  -0.59156
  Beta  occ. eigenvalues --   -0.48038  -0.48017
  Beta virt. eigenvalues --    0.04026   0.20234   0.20248   0.21025   0.22865

 Mulliken charges and spin densities:
               1          2
     1  H    0.065553   0.780941
     2  F   -0.188421  -0.050223
     3  C   -0.275008   0.291492
     4  H    0.133285  -0.006573
     5  H    0.132295  -0.007819
     6  H    0.132295  -0.007819
 Sum of Mulliken charges =   0.00000   1.00000

 Dipole moment (field-independent basis, Debye):
    X=             -0.0935    Y=             -0.9945    Z=              0.0000  Tot=              0.9989
 N-N= 4.598499366146D+01 E-N=-4.245516756636D+01  KE=-3.875238882787D+01
  Exact polarizability:   6.937  -2.247  28.572   0.000  -0.000   6.626
 Approx polarizability:   4.233  -1.245  16.126   0.000  -0.000   4.050
 Leave Link  601 at Wed Oct 21 14:42:35 2020, MaxMem=  2684354560 cpu:               3.0 elap:               0.9
 (Enter /udrive/faculty/rpeverati/g16/g16/l701.exe)
 ... and contract with generalized density number  0.
 Compute integral second derivatives.
 R6Disp: Adding PM7 dispersion energy 2nd derivatives to the Hessian.
 Leave Link  701 at Wed Oct 21 14:42:37 2020, MaxMem=  2684354560 cpu:               3.1 elap:               0.9
 (Enter /udrive/faculty/rpeverati/g16/g16/l702.exe)

 ******    1 imaginary frequencies (negative Signs) ******

                      1                      2                      3
                     A'                     A"                     A'
 Frequencies --  -1485.2861                28.4492               123.3635
 Red. masses --      1.1759                 1.1652                 1.1693
 Frc consts  --      1.5284                 0.0006                 0.0105
 IR Inten    --    634.3029                 8.7886                10.1336

                      4                      5                      6
                     A'                     A"                     A'
 Frequencies --   1073.9948              1075.6896              1145.0862
 Red. masses --      1.2485                 1.2351                 3.3657
 Frc consts  --      0.8485                 0.8420                 2.6002
 IR Inten    --      9.0822                 7.3932                 4.6153

                      7                      8                      9
                     A"                     A'                     A'
 Frequencies --   1290.3315              1291.2030              1384.3890
 Red. masses --      1.0756                 1.0750                 1.2149
 Frc consts  --      1.0551                 1.0560                 1.3718
 IR Inten    --     37.3458                36.4646                 4.9083

                     10                     11                     12
                     A'                     A"                     A'
 Frequencies --   2654.2237              2654.7608              2744.2330
 Red. masses --      1.0889                 1.0888                 1.0227
 Frc consts  --      4.5198                 4.5210                 4.5377
 IR Inten    --     47.8230                47.2356                32.0808

 - Thermochemistry -
 -------------------
 Temperature   298.150 Kelvin.  Pressure   1.00000 Atm.
 Atom     1 has atomic number  1 and mass   1.00783

 Molecular mass:    35.02970 amu.
 Principal axes and moments of inertia in atomic units:
                           1         2         3
     Eigenvalues --    11.94441  83.56322  83.78971
           X           -0.02488   0.99969   0.00000
           Y            0.99969   0.02488   0.00000
           Z            0.00000   0.00000   1.00000
 This molecule is an asymmetric top.
 Rotational symmetry number  1.
 Rotational temperatures (Kelvin)      7.25142     1.03651     1.03371
 Rotational constants (GHZ):         151.09499    21.59732    21.53894
    1 imaginary frequencies ignored.
 Zero-point vibrational energy      92505.6 (Joules/Mol)
                                   22.10936 (Kcal/Mol)
 Warning -- explicit consideration of   2 degrees of freedom as
           vibrations may cause significant error
 Vibrational temperatures:     40.93   177.49  1545.24  1547.68  1647.52
          (Kelvin)           1856.50  1857.75  1991.83  3818.84  3819.61
                             3948.34

 Zero-point correction=                           0.035234 (Hartree/Particle)
 Thermal correction to Energy=                    0.039745
 Thermal correction to Enthalpy=                  0.040689
 Thermal correction to Gibbs Free Energy=         0.009197
 Sum of electronic and zero-point Energies=              0.069621
 Sum of electronic and thermal Energies=                 0.074132
 Sum of electronic and thermal Enthalpies=               0.075077
 Sum of electronic and thermal Free Energies=            0.043584

                     E (Thermal)             CV                S
                      KCal/Mol        Cal/Mol-Kelvin    Cal/Mol-Kelvin
 Total                   24.940             11.142             66.281
 Electronic               0.000              0.000              1.377
 Translational            0.889              2.981             36.591
 Rotational               0.889              2.981             19.065
 Vibrational             23.163              5.181              9.248
 Vibration     1          0.593              1.984              5.935
 Vibration     2          0.610              1.930              3.047

 Optimization completed.
    -- Stationary point found.
 Normal termination of Gaussian 16 at Wed Oct 21 14:42:43 2020.
