 Gaussian 16, Revision A.03,
 Gaussian 16:  ES64L-G16RevA.03 25-Dec-2016

 ----------------------------------------------------------------------
 #P Opt(MaxCyc=150) PM7 5D 7F Integral=UltraFineGrid SCF=(NoSymm,XQC,Ma
 xCyc=120) IOp(1/33=1)
 ----------------------------------------------------------------------

 TstMul:  Mul=     2
 TstMul:  ICh=     0
 TstMul:  Mul=     2
 Symbolic Z-matrix:
 Charge =  0 Multiplicity = 2

 SCF Done:  E(UPM7) =  0.104350691651E-02 A.U. after   16 cycles
 SCF Done:  E(UPM7) = -0.331066134219E-02 A.U. after   14 cycles
 SCF Done:  E(UPM7) = -0.470486044978E-02 A.U. after   15 cycles
 SCF Done:  E(UPM7) = -0.471980109041E-02 A.U. after   12 cycles
 SCF Done:  E(UPM7) = -0.472013813107E-02 A.U. after   11 cycles
 Optimization completed.
    -- Stationary point found.

                         Standard orientation:
 ---------------------------------------------------------------------
 Center     Atomic      Atomic             Coordinates (Angstroms)
 Number     Number       Type             X           Y           Z
 ---------------------------------------------------------------------
      1          1           0       -0.574086    1.410423    0.000000
      2          6           0        0.041006    0.562400    0.000000
      3          8           0        0.041006   -0.598103    0.000000
 ---------------------------------------------------------------------

 The electronic state is 2-A'.
 Alpha  occ. eigenvalues --   -1.20852  -0.81625  -0.59917  -0.54945  -0.53948
 Alpha  occ. eigenvalues --   -0.32351
 Alpha virt. eigenvalues --    0.02256   0.15432   0.19819
  Beta  occ. eigenvalues --   -1.17155  -0.79389  -0.56809  -0.53775  -0.50148
  Beta virt. eigenvalues --    0.03626   0.03953   0.16235   0.22125

 Mulliken charges and spin densities:
               1          2
     1  H    0.143442   0.059841
     2  C    0.105209   0.634130
     3  O   -0.248651   0.306029
 Sum of Mulliken charges =   0.00000   1.00000

 Dipole moment (field-independent basis, Debye):
    X=             -1.1190    Y=              1.4889    Z=              0.0000  Tot=              1.8625
 N-N= 2.734211076589D+01 E-N=-2.097385986642D+01  KE=-2.611065788714D+01
 Leave Link  601 at Wed Oct 21 14:38:24 2020, MaxMem=  2684354560 cpu:               3.2 elap:               0.9
 (Enter /udrive/faculty/rpeverati/g16/g16/l9999.exe)

 Test job not archived.
 1\1\GINC-NODE19\FOpt\UPM7\ZDO\C1H1O1(2)\RPEVERATI\21-Oct-2020\0\\#P Op
 t(MaxCyc=150) PM7 5D 7F Integral=UltraFineGrid SCF=(NoSymm,XQC,MaxCyc=
 120) IOp(1/33=1)\\TS search on BH76.\\0,2\H,-0.8018157522,1.2803701451
 ,0.\C,-0.0579135073,0.542744967,0.\O,0.1293969739,-0.6025414165,0.\\Ve
 rsion=ES64L-G16RevA.03\State=2-A'\HF=-0.0047201\S2=0.751395\S2-1=0.\S2

 Normal termination of Gaussian 16 at Wed Oct 21 14:38:26 2020.
