 Gaussian 16, Revision A.03,

 ----------------------------------------------------------------------
 #P Opt(TS,MaxCyc=50,NoEigenTest,MaxStep=10,AddRedundant) PM7 5D 7F Int
 egral=UltraFineGrid SCF=(NoSymm,XQC,MaxCyc=120) IOp(1/33=1)
 ----------------------------------------------------------------------

 TstMul:  Mul=     2
 TstMul:  ICh=     0
 TstMul:  Mul=     2
 Symbolic Z-matrix:
 Charge =  0 Multiplicity = 2

 SCF Done:  E(UPM7) =  0.220222115379     A.U. after    9 cycles
 SCF Done:  E(UPM7) =  0.218335755498     A.U. after    7 cycles
 SCF Done:  E(UPM7) =  0.216946382454     A.U. after    7 cycles
 SCF Done:  E(UPM7) =  0.215990613407     A.U. after    7 cycles
 SCF Done:  E(UPM7) =  0.215412551970     A.U. after    7 cycles
 SCF Done:  E(UPM7) =  0.215162950901     A.U. after    7 cycles
 SCF Done:  E(UPM7) =  0.215145155666     A.U. after    8 cycles
 SCF Done:  E(UPM7) =  0.215144974948     A.U. after    6 cycles
 Optimization completed.
    -- Stationary point found.
 Normal termination of Gaussian 16 at Wed Oct 21 14:39:31 2020.
 Gaussian 16:  ES64L-G16RevA.03 25-Dec-2016

 ----------------------------------------------------------------------
 #P Freq PM7 5D 7F Integral=UltraFineGrid SCF=(NoSymm,XQC,MaxCyc=120) I
 Op(1/33=1) Geom=Check Guess=Read
 ----------------------------------------------------------------------

 TstMul:  Mul=     2
 TstMul:  ICh=     0
 TstMul:  Mul=     2
 Structure from the checkpoint file:  "MN_54_hfhts_BH76_PM7_SE.chk"
 Charge =  0 Multiplicity = 2

                         Standard orientation:
 ---------------------------------------------------------------------
 Center     Atomic      Atomic             Coordinates (Angstroms)
 Number     Number       Type             X           Y           Z
 ---------------------------------------------------------------------
      1          1           0        0.000000    0.000000    1.274968
      2          9           0        0.000000    0.000000    0.000000
      3          1           0        0.000000    0.000000   -1.274968
 ---------------------------------------------------------------------

 SCF Done:  E(UPM7) =  0.215144974948     A.U. after    2 cycles

 The electronic state is 2-SGU.
 Alpha  occ. eigenvalues --   -1.32276  -0.56426  -0.48423  -0.48423  -0.17321
 Alpha virt. eigenvalues --   -0.08385
  Beta  occ. eigenvalues --   -1.29914  -0.55725  -0.49780  -0.49780
  Beta virt. eigenvalues --    0.04265   0.17191

 Mulliken charges and spin densities:
               1          2
     1  H    0.362062   0.383656
     2  F   -0.724124   0.232688
     3  H    0.362062   0.383656
 Sum of Mulliken charges =  -0.00000   1.00000

 Dipole moment (field-independent basis, Debye):
    X=              0.0000    Y=             -0.0000    Z=             -0.0000  Tot=              0.0000
 N-N= 2.288814005268D+01 E-N=-8.082421055600D+00  KE=-3.138288431602D+01
  Exact polarizability:   0.038  -0.000   0.038  -0.000  -0.000  -2.887
 Approx polarizability:   0.010  -0.000   0.010  -0.000  -0.000 106.569
 Leave Link  601 at Wed Oct 21 14:39:53 2020, MaxMem=  2684354560 cpu:               2.9 elap:               0.9
 (Enter /udrive/faculty/rpeverati/g16/g16/l701.exe)
 ... and contract with generalized density number  0.
 Compute integral second derivatives.
 R6Disp: Adding PM7 dispersion energy 2nd derivatives to the Hessian.
 Leave Link  701 at Wed Oct 21 14:39:54 2020, MaxMem=  2684354560 cpu:               4.2 elap:               1.0
 (Enter /udrive/faculty/rpeverati/g16/g16/l702.exe)

 ******    2 imaginary frequencies (negative Signs) ******

                      1                      2                      3
                     PIU                    PIU                    SGG
 Frequencies --  -1349.5701             -1349.5701              1227.8922
 Red. masses --      1.1085                 1.1085                 1.0078
 Frc consts  --      1.1895                 1.1895                 0.8953
 IR Inten    --    344.5898               344.5898                 0.0000

                      4
                     SGU
 Frequencies --   2374.5020
 Red. masses --      1.1085
 Frc consts  --      3.6824
 IR Inten    --  15592.1009

 - Thermochemistry -
 -------------------
 Temperature   298.150 Kelvin.  Pressure   1.00000 Atm.
 Atom     1 has atomic number  1 and mass   1.00783

 Molecular mass:    21.01405 amu.
 Principal axes and moments of inertia in atomic units:
                           1         2         3
     Eigenvalues --     0.00000  11.70069  11.70069
           X           -0.00000   1.00000   0.00000
           Y            0.00000   0.00000   1.00000
           Z            1.00000   0.00000   0.00000
 This molecule is a prolate symmetric top.
 Rotational symmetry number  2.
 Rotational temperature (Kelvin)      7.40246
 Rotational constant (GHZ):         154.242248
    2 imaginary frequencies ignored.
 Zero-point vibrational energy      21547.1 (Joules/Mol)
                                    5.14988 (Kcal/Mol)
 Vibrational temperatures:   1766.66  3416.38
          (Kelvin)

 Zero-point correction=                           0.008207 (Hartree/Particle)
 Thermal correction to Energy=                    0.010582
 Thermal correction to Enthalpy=                  0.011527
 Thermal correction to Gibbs Free Energy=        -0.009587
 Sum of electronic and zero-point Energies=              0.223352
 Sum of electronic and thermal Energies=                 0.225727
 Sum of electronic and thermal Enthalpies=               0.226672
 Sum of electronic and thermal Free Energies=            0.205558

                     E (Thermal)             CV                S
                      KCal/Mol        Cal/Mol-Kelvin    Cal/Mol-Kelvin
 Total                    6.641              5.158             44.437
 Electronic               0.000              0.000              1.377
 Translational            0.889              2.981             35.068
 Rotational               0.592              1.987              7.954
 Vibrational              5.159              0.190              0.037

 Optimization completed.
    -- Stationary point found.
 Normal termination of Gaussian 16 at Wed Oct 21 14:40:01 2020.
