 Gaussian 16, Revision A.03,
 Gaussian 16:  ES64L-G16RevA.03 25-Dec-2016

 ----------------------------------------------------------------------
 #P Opt(MaxCyc=150) PM7 5D 7F Integral=UltraFineGrid SCF=(NoSymm,XQC,Ma
 xCyc=120) IOp(1/33=1)
 ----------------------------------------------------------------------

 TstMul:  Mul=     1
 TstMul:  ICh=     0
 TstMul:  Mul=     1
 Symbolic Z-matrix:
 Charge =  0 Multiplicity = 1

 SCF Done:  E(RPM7) = -0.982512246632E-01 A.U. after    8 cycles
 SCF Done:  E(RPM7) = -0.986196447836E-01 A.U. after    6 cycles
 SCF Done:  E(RPM7) = -0.986323184386E-01 A.U. after    6 cycles
 Optimization completed.
    -- Stationary point found.

                         Standard orientation:
 ---------------------------------------------------------------------
 Center     Atomic      Atomic             Coordinates (Angstroms)
 Number     Number       Type             X           Y           Z
 ---------------------------------------------------------------------
      1          9           0        0.000000    0.000000    0.089578
      2          1           0        0.000000    0.000000   -0.806200
 ---------------------------------------------------------------------

 The electronic state is 1-SG.
 Alpha  occ. eigenvalues --   -1.49140  -0.64517  -0.58047  -0.58047
 Alpha virt. eigenvalues --    0.17374

 Mulliken charges:
               1
     1  F   -0.290281
     2  H    0.290281
 Sum of Mulliken charges =  -0.00000

 Dipole moment (field-independent basis, Debye):
    X=             -0.0000    Y=              0.0000    Z=             -1.4538  Tot=              1.4538
 N-N= 2.048267675105D+01 E-N=-4.694723071615D+00  KE=-2.987286980384D+01
 Leave Link  601 at Wed Oct 21 14:39:00 2020, MaxMem=  2684354560 cpu:               6.5 elap:               2.0
 (Enter /udrive/faculty/rpeverati/g16/g16/l9999.exe)

 Test job not archived.
 1\1\GINC-NODE62\FOpt\RPM7\ZDO\F1H1\RPEVERATI\21-Oct-2020\0\\#P Opt(Max
 Cyc=150) PM7 5D 7F Integral=UltraFineGrid SCF=(NoSymm,XQC,MaxCyc=120)
 IOp(1/33=1)\\TS search on BH76.\\0,1\F,0.,0.,0.0817360416\H,0.,0.,-0.8
 140421582\\Version=ES64L-G16RevA.03\State=1-SG\HF=-0.0986323\RMSD=1.33
 1e-10\RMSF=1.617e-06\Dipole=0.,0.,-0.5719606\PG=C*V [C*(H1F1)]\\@

 Normal termination of Gaussian 16 at Wed Oct 21 14:39:04 2020.
