 Gaussian 16, Revision A.03,
 Gaussian 16:  ES64L-G16RevA.03 25-Dec-2016

 ----------------------------------------------------------------------
 #P Opt(MaxCyc=150) PM7 5D 7F Integral=UltraFineGrid SCF=(NoSymm,XQC,Ma
 xCyc=120) IOp(1/33=1)
 ----------------------------------------------------------------------

 TstMul:  Mul=     2
 TstMul:  ICh=     0
 TstMul:  Mul=     2
 Symbolic Z-matrix:
 Charge =  0 Multiplicity = 2

 SCF Done:  E(UPM7) =  0.884578425961E-01 A.U. after   16 cycles
 SCF Done:  E(UPM7) =  0.847088009520E-01 A.U. after   15 cycles
 SCF Done:  E(UPM7) =  0.835785314079E-01 A.U. after   15 cycles
 SCF Done:  E(UPM7) =  0.835270784387E-01 A.U. after   14 cycles
 SCF Done:  E(UPM7) =  0.835219809466E-01 A.U. after   12 cycles
 Optimization completed.
    -- Stationary point found.

                         Standard orientation:
 ---------------------------------------------------------------------
 Center     Atomic      Atomic             Coordinates (Angstroms)
 Number     Number       Type             X           Y           Z
 ---------------------------------------------------------------------
      1          7           0       -0.047830    0.669059    0.000000
      2          7           0       -0.047830   -0.498730    0.000000
      3          1           0        0.669614   -1.192302    0.000000
 ---------------------------------------------------------------------

 The electronic state is 2-A'.
 Alpha  occ. eigenvalues --   -1.51725  -0.96918  -0.64628  -0.56532  -0.54306
 Alpha  occ. eigenvalues --   -0.34813
 Alpha virt. eigenvalues --   -0.00280   0.09632   0.20202
  Beta  occ. eigenvalues --   -1.49026  -0.93027  -0.58591  -0.54951  -0.49770
  Beta virt. eigenvalues --    0.01396   0.01768   0.11795   0.23639

 Mulliken charges and spin densities:
               1          2
     1  N   -0.118978   0.714554
     2  N   -0.163070   0.182768
     3  H    0.282049   0.102678
 Sum of Mulliken charges =   0.00000   1.00000

 Dipole moment (field-independent basis, Debye):
    X=              1.7249    Y=             -2.1558    Z=             -0.0000  Tot=              2.7609
 N-N= 2.578773019082D+01 E-N=-2.068897646565D+01  KE=-2.207655984431D+01
 Leave Link  601 at Wed Oct 21 14:39:07 2020, MaxMem=  2684354560 cpu:               3.1 elap:               0.9
 (Enter /udrive/faculty/rpeverati/g16/g16/l9999.exe)

 Test job not archived.
 1\1\GINC-NODE20\FOpt\UPM7\ZDO\H1N2(2)\RPEVERATI\21-Oct-2020\0\\#P Opt(
 MaxCyc=150) PM7 5D 7F Integral=UltraFineGrid SCF=(NoSymm,XQC,MaxCyc=12
 0) IOp(1/33=1)\\TS search on BH76.\\0,2\N,-0.1311859798,0.6836258493,0
 .\N,0.0356608478,-0.4721834258,0.\H,0.8448368875,-1.0561351961,0.\\Ver
 sion=ES64L-G16RevA.03\State=2-A'\HF=0.083522\S2=0.75459\S2-1=0.\S2A=0.

 Normal termination of Gaussian 16 at Wed Oct 21 14:39:09 2020.
