 Gaussian 16, Revision A.03,

 ----------------------------------------------------------------------
 #P Opt(TS,MaxCyc=50,NoEigenTest,MaxStep=10,AddRedundant) PM7 5D 7F Int
 egral=UltraFineGrid SCF=(NoSymm,XQC,MaxCyc=120) IOp(1/33=1)
 ----------------------------------------------------------------------

 TstMul:  Mul=     2
 TstMul:  ICh=     0
 TstMul:  Mul=     2
 Symbolic Z-matrix:
 Charge =  0 Multiplicity = 2

 SCF Done:  E(UPM7) =  0.129123454868     A.U. after   18 cycles
 SCF Done:  E(UPM7) =  0.130024815708     A.U. after   15 cycles
 SCF Done:  E(UPM7) =  0.133650849885     A.U. after   16 cycles
 SCF Done:  E(UPM7) =  0.136235810814     A.U. after   15 cycles
 SCF Done:  E(UPM7) =  0.137781898406     A.U. after   16 cycles
 SCF Done:  E(UPM7) =  0.138529607819     A.U. after   15 cycles
 SCF Done:  E(UPM7) =  0.138702567268     A.U. after   14 cycles
 SCF Done:  E(UPM7) =  0.138721956748     A.U. after   13 cycles
 SCF Done:  E(UPM7) =  0.138722427579     A.U. after   13 cycles
 Optimization completed.
    -- Stationary point found.
 Normal termination of Gaussian 16 at Wed Oct 21 14:40:13 2020.
 Gaussian 16:  ES64L-G16RevA.03 25-Dec-2016

 ----------------------------------------------------------------------
 #P Freq PM7 5D 7F Integral=UltraFineGrid SCF=(NoSymm,XQC,MaxCyc=120) I
 Op(1/33=1) Geom=Check Guess=Read
 ----------------------------------------------------------------------

 TstMul:  Mul=     2
 TstMul:  ICh=     0
 TstMul:  Mul=     2
 Structure from the checkpoint file:  "MN_59_hn2ts_BH76_PM7_SE.chk"
 Charge =  0 Multiplicity = 2

                         Standard orientation:
 ---------------------------------------------------------------------
 Center     Atomic      Atomic             Coordinates (Angstroms)
 Number     Number       Type             X           Y           Z
 ---------------------------------------------------------------------
      1          7           0        0.093851   -0.666743    0.000000
      2          7           0        0.093851    0.458347    0.000000
      3          1           0       -1.313912    1.458777    0.000000
 ---------------------------------------------------------------------

 SCF Done:  E(UPM7) =  0.138722427579     A.U. after    2 cycles

 The electronic state is 2-A'.
 Alpha  occ. eigenvalues --   -1.54537  -0.82085  -0.61577  -0.59783  -0.51674
 Alpha  occ. eigenvalues --   -0.37024
 Alpha virt. eigenvalues --   -0.00356   0.00005   0.13963
  Beta  occ. eigenvalues --   -1.54180  -0.81139  -0.59866  -0.59553  -0.50429
  Beta virt. eigenvalues --   -0.01018  -0.00055   0.10806   0.15813

 Mulliken charges and spin densities:
               1          2
     1  N   -0.027969   0.204521
     2  N   -0.002891  -0.097152
     3  H    0.030860   0.892631
 Sum of Mulliken charges =   0.00000   1.00000

 Dipole moment (field-independent basis, Debye):
    X=             -0.3179    Y=              0.3446    Z=             -0.0000  Tot=              0.4689
 N-N= 2.508778705623D+01 E-N=-1.983525780327D+01  KE=-2.154440739273D+01
  Exact polarizability:   9.775  -7.322  24.040  -0.000  -0.000   2.240
 Approx polarizability:   4.992  -3.587  21.889  -0.000   0.000   1.781
 Leave Link  601 at Wed Oct 21 14:40:35 2020, MaxMem=  2684354560 cpu:               2.9 elap:               0.9
 (Enter /udrive/faculty/rpeverati/g16/g16/l701.exe)
 ... and contract with generalized density number  0.
 Compute integral second derivatives.
 R6Disp: Adding PM7 dispersion energy 2nd derivatives to the Hessian.
 Leave Link  701 at Wed Oct 21 14:40:37 2020, MaxMem=  2684354560 cpu:               4.3 elap:               1.1
 (Enter /udrive/faculty/rpeverati/g16/g16/l702.exe)

 ******    1 imaginary frequencies (negative Signs) ******

                      1                      2                      3
                     A'                     A'                     A'
 Frequencies --   -961.7668               317.1255              2428.3027
 Red. masses --      1.0664                 1.4616                12.5897
 Frc consts  --      0.5812                 0.0866                43.7392
 IR Inten    --    354.0595                 1.3902                79.8636

 - Thermochemistry -
 -------------------
 Temperature   298.150 Kelvin.  Pressure   1.00000 Atm.
 Atom     1 has atomic number  7 and mass  14.00307

 Molecular mass:    29.01397 amu.
 Principal axes and moments of inertia in atomic units:
                           1         2         3
     Eigenvalues --     5.21175  41.80899  47.02075
           X           -0.21381   0.97688   0.00000
           Y            0.97688   0.21381   0.00000
           Z            0.00000   0.00000   1.00000
 This molecule is an asymmetric top.
 Rotational symmetry number  1.
 Rotational temperatures (Kelvin)     16.61896     2.07166     1.84204
 Rotational constants (GHZ):         346.28293    43.16634    38.38181
    1 imaginary frequencies ignored.
 Zero-point vibrational energy      16421.3 (Joules/Mol)
                                    3.92479 (Kcal/Mol)
 Warning -- explicit consideration of   1 degrees of freedom as
           vibrations may cause significant error
 Vibrational temperatures:    456.27  3493.79
          (Kelvin)

 Zero-point correction=                           0.006255 (Hartree/Particle)
 Thermal correction to Energy=                    0.009486
 Thermal correction to Enthalpy=                  0.010431
 Thermal correction to Gibbs Free Energy=        -0.016039
 Sum of electronic and zero-point Energies=              0.144977
 Sum of electronic and thermal Energies=                 0.148209
 Sum of electronic and thermal Enthalpies=               0.149153
 Sum of electronic and thermal Free Energies=            0.122683

                     E (Thermal)             CV                S
                      KCal/Mol        Cal/Mol-Kelvin    Cal/Mol-Kelvin
 Total                    5.953              7.605             55.711
 Electronic               0.000              0.000              1.377
 Translational            0.889              2.981             36.030
 Rotational               0.889              2.981             16.978
 Vibrational              4.175              1.643              1.325
 Vibration     1          0.704              1.641              1.325

                           ! Non-Optimized Parameters !
 Normal termination of Gaussian 16 at Wed Oct 21 14:40:44 2020.
