 Gaussian 16, Revision A.03,
 Gaussian 16:  ES64L-G16RevA.03 25-Dec-2016

 ----------------------------------------------------------------------
 #P Opt(MaxCyc=150) PM7 5D 7F Integral=UltraFineGrid SCF=(NoSymm,XQC,Ma
 xCyc=120) IOp(1/33=1)
 ----------------------------------------------------------------------

 TstMul:  Mul=     1
 TstMul:  ICh=     0
 TstMul:  Mul=     1
 Symbolic Z-matrix:
 Charge =  0 Multiplicity = 1

 SCF Done:  E(RPM7) =  0.623819374510E-01 A.U. after   12 cycles
 SCF Done:  E(RPM7) =  0.617384162869E-01 A.U. after    9 cycles
 SCF Done:  E(RPM7) =  0.616377087294E-01 A.U. after    8 cycles
 SCF Done:  E(RPM7) =  0.616363407590E-01 A.U. after    8 cycles
 Optimization completed.
    -- Stationary point found.

                         Standard orientation:
 ---------------------------------------------------------------------
 Center     Atomic      Atomic             Coordinates (Angstroms)
 Number     Number       Type             X           Y           Z
 ---------------------------------------------------------------------
      1          6           0        0.000000    0.000000   -0.743478
      2          7           0        0.000000    0.000000    0.437217
      3          1           0        0.000000    0.000000    1.400351
 ---------------------------------------------------------------------

 The electronic state is 1-SG.
 Alpha  occ. eigenvalues --   -1.34810  -0.80946  -0.47612  -0.47612  -0.45476
 Alpha virt. eigenvalues --    0.08736   0.08736   0.14105   0.29221

 Mulliken charges:
               1
     1  C    0.304549
     2  N   -0.644226
     3  H    0.339678
 Sum of Mulliken charges =  -0.00000

 Dipole moment (field-independent basis, Debye):
    X=              0.0000    Y=              0.0000    Z=              1.9511  Tot=              1.9511
 N-N= 2.163792437323D+01 E-N=-1.707586311184D+01  KE=-1.894760512082D+01
 Leave Link  601 at Wed Oct 21 14:38:58 2020, MaxMem=  2684354560 cpu:               3.4 elap:               0.9
 (Enter /udrive/faculty/rpeverati/g16/g16/l9999.exe)

 Test job not archived.
 1\1\GINC-NODE22\FOpt\RPM7\ZDO\C1H1N1\RPEVERATI\21-Oct-2020\0\\#P Opt(M
 axCyc=150) PM7 5D 7F Integral=UltraFineGrid SCF=(NoSymm,XQC,MaxCyc=120
 ) IOp(1/33=1)\\TS search on BH76.\\0,1\C,0.,0.,-0.7362480719\N,0.,0.,0
 .4444468096\H,0.,0.,1.4075809365\\Version=ES64L-G16RevA.03\State=1-SG\
 HF=0.0616363\RMSD=1.411e-09\RMSF=1.443e-04\Dipole=0.,0.,0.7676181\PG=C

 Normal termination of Gaussian 16 at Wed Oct 21 14:39:00 2020.
