 Gaussian 16, Revision A.03,
 Gaussian 16:  ES64L-G16RevA.03 25-Dec-2016

 ----------------------------------------------------------------------
 #P Opt(MaxCyc=150) PM7 5D 7F Integral=UltraFineGrid SCF=(NoSymm,XQC,Ma
 xCyc=120) IOp(1/33=1)
 ----------------------------------------------------------------------

 TstMul:  Mul=     1
 TstMul:  ICh=    -1
 TstMul:  Mul=     1
 Symbolic Z-matrix:
 Charge = -1 Multiplicity = 1

 SCF Done:  E(RPM7) = -0.185679871837     A.U. after   12 cycles
 SCF Done:  E(RPM7) = -0.187934984267     A.U. after   11 cycles
 SCF Done:  E(RPM7) = -0.186670562254     A.U. after   12 cycles
 SCF Done:  E(RPM7) = -0.189010560744     A.U. after   10 cycles
 SCF Done:  E(RPM7) = -0.191129389215     A.U. after   11 cycles
 SCF Done:  E(RPM7) = -0.179197682134     A.U. after   12 cycles
 SCF Done:  E(RPM7) = -0.193134880953     A.U. after   12 cycles
 SCF Done:  E(RPM7) = -0.195592851040     A.U. after   12 cycles
 SCF Done:  E(RPM7) = -0.196221799644     A.U. after   12 cycles
 SCF Done:  E(RPM7) = -0.196395164191     A.U. after   10 cycles
 SCF Done:  E(RPM7) = -0.196432448237     A.U. after   10 cycles
 SCF Done:  E(RPM7) = -0.196436834222     A.U. after    9 cycles
 Optimization completed.
    -- Stationary point found.

                         Standard orientation:
 ---------------------------------------------------------------------
 Center     Atomic      Atomic             Coordinates (Angstroms)
 Number     Number       Type             X           Y           Z
 ---------------------------------------------------------------------
      1          6           0       -1.346629   -0.348078    0.000008
      2          8           0       -0.445773    0.671207    0.000001
      3          1           0       -2.360268    0.080319    0.011081
      4          1           0       -1.234720   -0.972412   -0.900612
      5          1           0       -1.220719   -0.985478    0.889513
      6          1           0        0.798762    0.201879   -0.000147
      7          9           0        1.740322   -0.178388    0.000012
 ---------------------------------------------------------------------

 The electronic state is 1-A.
 Alpha  occ. eigenvalues --   -1.14071  -0.78452  -0.61732  -0.40272  -0.33958
 Alpha  occ. eigenvalues --   -0.31938  -0.29145  -0.29142  -0.27561  -0.13779
 Alpha  occ. eigenvalues --   -0.12869
 Alpha virt. eigenvalues --    0.38140   0.40286   0.40512   0.42693   0.48004

 Mulliken charges:
               1
     1  C   -0.040491
     2  O   -0.902775
     3  H    0.049485
     4  H    0.046253
     5  H    0.046433
     6  H    0.422749
     7  F   -0.621655
 Sum of Mulliken charges =  -1.00000

 Dipole moment (field-independent basis, Debye):
    X=             -2.4807    Y=             -2.2406    Z=              0.0005  Tot=              3.3428
 N-N= 7.405094064536D+01 E-N=-7.889702040769D+01  KE=-6.013935531425D+01
 Leave Link  601 at Wed Oct 21 14:41:07 2020, MaxMem=  2684354560 cpu:               2.8 elap:               0.9
 (Enter /udrive/faculty/rpeverati/g16/g16/l9999.exe)

 Test job not archived.
 1\1\GINC-NODE37\FOpt\RPM7\ZDO\C1H4F1O1(1-)\RPEVERATI\21-Oct-2020\0\\#P
  Opt(MaxCyc=150) PM7 5D 7F Integral=UltraFineGrid SCF=(NoSymm,XQC,MaxC
 yc=120) IOp(1/33=1)\\TS search on BH76.\\-1,1\C,-1.3503309734,-0.40874
 67871,0.0000751624\O,-0.5145464541,0.6644726137,-0.0121322469\H,-2.388
 6577666,-0.0440809754,0.0028452638\H,-1.1970176003,-1.0372985754,-0.89

 Normal termination of Gaussian 16 at Wed Oct 21 14:41:09 2020.
