 Gaussian 16, Revision A.03,
 Gaussian 16:  ES64L-G16RevA.03 25-Dec-2016

 ----------------------------------------------------------------------
 #P Opt(MaxCyc=150) PM7 5D 7F Integral=UltraFineGrid SCF=(NoSymm,XQC,Ma
 xCyc=120) IOp(1/33=1)
 ----------------------------------------------------------------------

 TstMul:  Mul=     2
 TstMul:  ICh=     0
 TstMul:  Mul=     2
 Symbolic Z-matrix:
 Charge =  0 Multiplicity = 2

 SCF Done:  E(UPM7) =  0.506431304239E-01 A.U. after   19 cycles
 SCF Done:  E(UPM7) =  0.506169316641E-01 A.U. after   13 cycles
 SCF Done:  E(UPM7) =  0.506166633421E-01 A.U. after   10 cycles
 Optimization completed.
    -- Stationary point found.

                         Standard orientation:
 ---------------------------------------------------------------------
 Center     Atomic      Atomic             Coordinates (Angstroms)
 Number     Number       Type             X           Y           Z
 ---------------------------------------------------------------------
      1         16           0        0.000000    0.000000    0.078372
      2          1           0        0.000000    0.000000   -1.253952
 ---------------------------------------------------------------------

 Unable to determine electronic state:  an orbital has unidentified symmetry.
 Alpha  occ. eigenvalues --   -0.96574  -0.48177  -0.37076  -0.35107
 Alpha virt. eigenvalues --   -0.03597  -0.01754  -0.00980  -0.00642  -0.00413
 Alpha virt. eigenvalues --    0.10889
  Beta  occ. eigenvalues --   -0.87392  -0.46321  -0.34265
  Beta virt. eigenvalues --   -0.09670  -0.02404  -0.00397  -0.00321   0.00441
  Beta virt. eigenvalues --    0.00461   0.11521

 Mulliken charges and spin densities:
               1          2
     1  S   -0.152094   1.008303
     2  H    0.152094  -0.008303
 Sum of Mulliken charges =   0.00000   1.00000

 Dipole moment (field-independent basis, Debye):
    X=              0.0000    Y=              0.0000    Z=             -1.1739  Tot=              1.1739
 N-N= 8.834774834839D+00 E-N=-3.102094355691D+00  KE=-1.061710195981D+01
 Leave Link  601 at Wed Oct 21 14:39:39 2020, MaxMem=  2684354560 cpu:               3.0 elap:               1.1
 (Enter /udrive/faculty/rpeverati/g16/g16/l9999.exe)

 Test job not archived.
 1\1\GINC-NODE55\FOpt\UPM7\ZDO\H1S1(2)\RPEVERATI\21-Oct-2020\0\\#P Opt(
 MaxCyc=150) PM7 5D 7F Integral=UltraFineGrid SCF=(NoSymm,XQC,MaxCyc=12
 0) IOp(1/33=1)\\TS search on BH76.\\0,2\S,0.,0.,0.0748954922\H,0.,0.,-
 1.2574282257\\Version=ES64L-G16RevA.03\HF=0.0506167\S2=0.757709\S2-1=0
 .\S2A=0.750014\RMSD=6.209e-09\RMSF=3.975e-09\Dipole=0.,0.,-0.4618569\P

 Normal termination of Gaussian 16 at Wed Oct 21 14:39:42 2020.
