 Gaussian 16, Revision A.03,
 Gaussian 16:  ES64L-G16RevA.03 25-Dec-2016

 ----------------------------------------------------------------------
 #P Opt(MaxCyc=150) PM7 5D 7F Integral=UltraFineGrid SCF=(NoSymm,XQC,Ma
 xCyc=120) IOp(1/33=1)
 ----------------------------------------------------------------------

 TstMul:  Mul=     3
 TstMul:  ICh=     0
 TstMul:  Mul=     3
 Symbolic Z-matrix:
 Charge =  0 Multiplicity = 3

 SCF Done:  E(UPM7) =  0.128786497127     A.U. after   10 cycles
 SCF Done:  E(UPM7) =  0.127655927247     A.U. after    8 cycles
 SCF Done:  E(UPM7) =  0.127435724711     A.U. after    8 cycles
 Optimization completed.
    -- Stationary point found.

                         Standard orientation:
 ---------------------------------------------------------------------
 Center     Atomic      Atomic             Coordinates (Angstroms)
 Number     Number       Type             X           Y           Z
 ---------------------------------------------------------------------
      1          7           0        0.000000    0.000000    0.122839
      2          1           0        0.000000    0.000000   -0.859874
 ---------------------------------------------------------------------

 The electronic state is 3-SG.
 Alpha  occ. eigenvalues --   -1.19990  -0.55266  -0.49028  -0.49028
 Alpha virt. eigenvalues --    0.17536
  Beta  occ. eigenvalues --   -1.02146  -0.47267
  Beta virt. eigenvalues --   -0.00227  -0.00227   0.20896

 Mulliken charges and spin densities:
               1          2
     1  N   -0.200284   2.083846
     2  H    0.200284  -0.083846
 Sum of Mulliken charges =   0.00000   2.00000

 Dipole moment (field-independent basis, Debye):
    X=              0.0000    Y=             -0.0000    Z=             -1.8465  Tot=              1.8465
 N-N= 9.386166901947D+00 E-N=-3.208259921443D+00  KE=-1.108195112908D+01
 Leave Link  601 at Wed Oct 21 14:40:13 2020, MaxMem=  2684354560 cpu:               4.2 elap:               1.3
 (Enter /udrive/faculty/rpeverati/g16/g16/l9999.exe)

 Test job not archived.
 1\1\GINC-NODE51\FOpt\UPM7\ZDO\H1N1(3)\RPEVERATI\21-Oct-2020\0\\#P Opt(
 MaxCyc=150) PM7 5D 7F Integral=UltraFineGrid SCF=(NoSymm,XQC,MaxCyc=12
 0) IOp(1/33=1)\\TS search on BH76.\\0,3\N,0.,0.,0.1025810312\H,0.,0.,-
 0.8801317993\\Version=ES64L-G16RevA.03\State=3-SG\HF=0.1274357\S2=2.00
 7496\S2-1=0.\S2A=2.\RMSD=4.475e-11\RMSF=3.454e-07\Dipole=0.,0.,-0.7264

 Normal termination of Gaussian 16 at Wed Oct 21 14:40:16 2020.
