 Gaussian 16, Revision A.03,

 ----------------------------------------------------------------------
 #P Opt(TS,MaxCyc=50,NoEigenTest,MaxStep=10,AddRedundant) PM7 5D 7F Int
 egral=UltraFineGrid SCF=(NoSymm,XQC,MaxCyc=120) IOp(1/33=1)
 ----------------------------------------------------------------------

 TstMul:  Mul=     2
 TstMul:  ICh=     0
 TstMul:  Mul=     2
 Symbolic Z-matrix:
 Charge =  0 Multiplicity = 2

 SCF Done:  E(UPM7) =  0.118012458361     A.U. after   23 cycles
 SCF Done:  E(UPM7) =  0.109486712081     A.U. after   18 cycles
 SCF Done:  E(UPM7) =  0.116995422932     A.U. after   20 cycles
 SCF Done:  E(UPM7) =  0.119208250909     A.U. after   20 cycles
 SCF Done:  E(UPM7) =  0.119960820812     A.U. after   19 cycles
 SCF Done:  E(UPM7) =  0.120918884335     A.U. after   18 cycles
 SCF Done:  E(UPM7) =  0.122490234277     A.U. after   18 cycles
 SCF Done:  E(UPM7) =  0.124295933210     A.U. after   18 cycles
 SCF Done:  E(UPM7) =  0.125697260415     A.U. after   18 cycles
 SCF Done:  E(UPM7) =  0.126557786411     A.U. after   18 cycles
 SCF Done:  E(UPM7) =  0.127505828010     A.U. after   17 cycles
 SCF Done:  E(UPM7) =  0.127510771612     A.U. after   16 cycles
 SCF Done:  E(UPM7) =  0.127509350737     A.U. after   16 cycles
 SCF Done:  E(UPM7) =  0.127509866604     A.U. after   17 cycles
 SCF Done:  E(UPM7) =  0.127499282932     A.U. after   17 cycles
 SCF Done:  E(UPM7) =  0.127484017593     A.U. after   17 cycles
 SCF Done:  E(UPM7) =  0.127475778984     A.U. after   17 cycles
 SCF Done:  E(UPM7) =  0.127474047316     A.U. after   17 cycles
 SCF Done:  E(UPM7) =  0.127473990572     A.U. after   16 cycles
 Optimization completed.
    -- Stationary point found.
 Normal termination of Gaussian 16 at Wed Oct 21 14:46:37 2020.
 Gaussian 16:  ES64L-G16RevA.03 25-Dec-2016

 ----------------------------------------------------------------------
 #P Freq PM7 5D 7F Integral=UltraFineGrid SCF=(NoSymm,XQC,MaxCyc=120) I
 Op(1/33=1) Geom=Check Guess=Read
 ----------------------------------------------------------------------

 TstMul:  Mul=     2
 TstMul:  ICh=     0
 TstMul:  Mul=     2
 Structure from the checkpoint file:  "MN_68_n2ohts_BH76_PM7_SE.chk"
 Charge =  0 Multiplicity = 2

                         Standard orientation:
 ---------------------------------------------------------------------
 Center     Atomic      Atomic             Coordinates (Angstroms)
 Number     Number       Type             X           Y           Z
 ---------------------------------------------------------------------
      1          1           0        0.232744   -2.785534    0.000000
      2          8           0       -0.220595   -0.965590    0.000000
      3          7           0        0.000000    0.196148    0.000000
      4          7           0        0.218860    1.305317    0.000000
 ---------------------------------------------------------------------

 SCF Done:  E(UPM7) =  0.127473990572     A.U. after    2 cycles

 The electronic state is 2-A'.
 Alpha  occ. eigenvalues --   -1.55901  -1.25573  -0.84840  -0.67765  -0.67703
 Alpha  occ. eigenvalues --   -0.60781  -0.44283  -0.43708  -0.39248
 Alpha virt. eigenvalues --    0.00502   0.00717   0.00724   0.19603
  Beta  occ. eigenvalues --   -1.55795  -1.25288  -0.84808  -0.67618  -0.67605
  Beta  occ. eigenvalues --   -0.60550  -0.43689  -0.43609
  Beta virt. eigenvalues --   -0.00288   0.00818   0.00862   0.11789   0.20349

 Mulliken charges and spin densities:
               1          2
     1  H    0.018602   0.967708
     2  O   -0.278802   0.007403
     3  N    0.496366   0.024428
     4  N   -0.236166   0.000461
 Sum of Mulliken charges =   0.00000   1.00000

 Dipole moment (field-independent basis, Debye):
    X=             -0.0696    Y=             -0.7258    Z=              0.0000  Tot=              0.7291
 N-N= 5.312806505976D+01 E-N=-5.276430050069D+01  KE=-3.984923044683D+01
  Exact polarizability:   3.684   6.604  46.272   0.000   0.000   2.147
 Approx polarizability:   3.402   8.233  49.664   0.000   0.000   1.673
 Leave Link  601 at Wed Oct 21 14:46:55 2020, MaxMem=  2684354560 cpu:               2.6 elap:               0.4
 (Enter /udrive/faculty/rpeverati/g16/g16/l701.exe)
 ... and contract with generalized density number  0.
 Compute integral second derivatives.
 R6Disp: Adding PM7 dispersion energy 2nd derivatives to the Hessian.
 Leave Link  701 at Wed Oct 21 14:46:56 2020, MaxMem=  2684354560 cpu:               4.1 elap:               0.6
 (Enter /udrive/faculty/rpeverati/g16/g16/l702.exe)

 ******    1 imaginary frequencies (negative Signs) ******

                      1                      2                      3
                     A'                     A'                     A'
 Frequencies --   -318.7634                50.1255               511.6394
 Red. masses --      1.0363                 1.2247                13.8676
 Frc consts  --      0.0620                 0.0018                 2.1388
 IR Inten    --     31.8838                 1.8270                22.0484

                      4                      5                      6
                     A"                     A'                     A'
 Frequencies --    511.8840              1418.5924              2499.1016
 Red. masses --     14.2162                14.6680                14.0474
 Frc consts  --      2.1947                17.3915                51.6908
 IR Inten    --     24.4838                58.0309               717.4095

 - Thermochemistry -
 -------------------
 Temperature   298.150 Kelvin.  Pressure   1.00000 Atm.
 Atom     1 has atomic number  1 and mass   1.00783

 Molecular mass:    45.00889 amu.
 Principal axes and moments of inertia in atomic units:
                           1         2         3
     Eigenvalues --     1.84344 171.21949 173.06293
           X            0.14420   0.98955   0.00000
           Y            0.98955  -0.14420   0.00000
           Z            0.00000   0.00000   1.00000
 This molecule is an asymmetric top.
 Rotational symmetry number  1.
 Rotational temperatures (Kelvin)     46.98505     0.50586     0.50048
 Rotational constants (GHZ):         979.00957    10.54051    10.42824
    1 imaginary frequencies ignored.
 Zero-point vibrational energy      29854.9 (Joules/Mol)
                                    7.13548 (Kcal/Mol)
 Warning -- explicit consideration of   3 degrees of freedom as
           vibrations may cause significant error
 Vibrational temperatures:     72.12   736.13   736.49  2041.04  3595.65
          (Kelvin)

 Zero-point correction=                           0.011371 (Hartree/Particle)
 Thermal correction to Energy=                    0.015476
 Thermal correction to Enthalpy=                  0.016420
 Thermal correction to Gibbs Free Energy=        -0.013724
 Sum of electronic and zero-point Energies=              0.138845
 Sum of electronic and thermal Energies=                 0.142950
 Sum of electronic and thermal Enthalpies=               0.143894
 Sum of electronic and thermal Free Energies=            0.113750

                     E (Thermal)             CV                S
                      KCal/Mol        Cal/Mol-Kelvin    Cal/Mol-Kelvin
 Total                    9.712             10.488             63.445
 Electronic               0.000              0.000              1.377
 Translational            0.889              2.981             37.338
 Rotational               0.889              2.981             18.641
 Vibrational              7.934              4.526              6.088
 Vibration     1          0.595              1.978              4.812
 Vibration     2          0.867              1.224              0.630
 Vibration     3          0.867              1.224              0.629

 Optimization completed.
    -- Stationary point found.
 Normal termination of Gaussian 16 at Wed Oct 21 14:46:59 2020.
