 Gaussian 16, Revision A.03,

 ----------------------------------------------------------------------
 #P Opt(TS,MaxCyc=50,NoEigenTest,MaxStep=10,AddRedundant) PM7 5D 7F Int
 egral=UltraFineGrid SCF=(NoSymm,XQC,MaxCyc=120) IOp(1/33=1)
 ----------------------------------------------------------------------

 TstMul:  Mul=     1
 TstMul:  ICh=    -1
 TstMul:  Mul=     1
 Symbolic Z-matrix:
 Charge = -1 Multiplicity = 1

 SCF Done:  E(RPM7) = -0.125144949236     A.U. after   13 cycles
 SCF Done:  E(RPM7) = -0.127311232644     A.U. after   11 cycles
 SCF Done:  E(RPM7) = -0.128508016684     A.U. after   11 cycles
 SCF Done:  E(RPM7) = -0.129087671097     A.U. after   11 cycles
 SCF Done:  E(RPM7) = -0.129133263981     A.U. after   12 cycles
 SCF Done:  E(RPM7) = -0.129359905438     A.U. after   10 cycles
 SCF Done:  E(RPM7) = -0.129072080752     A.U. after   11 cycles
 SCF Done:  E(RPM7) = -0.129126632690     A.U. after   10 cycles
 SCF Done:  E(RPM7) = -0.129140438775     A.U. after   10 cycles
 SCF Done:  E(RPM7) = -0.129140879831     A.U. after    9 cycles
 SCF Done:  E(RPM7) = -0.129141166933     A.U. after   10 cycles
 SCF Done:  E(RPM7) = -0.129141234569     A.U. after    9 cycles
 SCF Done:  E(RPM7) = -0.129141254145     A.U. after    9 cycles
 Optimization completed.
    -- Stationary point found.
 Normal termination of Gaussian 16 at Wed Oct 21 14:43:12 2020.
 Gaussian 16:  ES64L-G16RevA.03 25-Dec-2016

 ----------------------------------------------------------------------
 #P Freq PM7 5D 7F Integral=UltraFineGrid SCF=(NoSymm,XQC,MaxCyc=120) I
 Op(1/33=1) Geom=Check Guess=Read
 ----------------------------------------------------------------------

 TstMul:  Mul=     1
 TstMul:  ICh=    -1
 TstMul:  Mul=     1
 Structure from the checkpoint file:  "MN_63_hoch3fts_BH76_PM7_SE.chk"
 Charge = -1 Multiplicity = 1

                         Standard orientation:
 ---------------------------------------------------------------------
 Center     Atomic      Atomic             Coordinates (Angstroms)
 Number     Number       Type             X           Y           Z
 ---------------------------------------------------------------------
      1          9           0        1.783771   -0.019712   -0.000002
      2          6           0        0.071514    0.019610    0.000003
      3          1           0        0.014823    1.104046    0.000363
      4          1           0       -0.001542   -0.513711   -0.941486
      5          1           0       -0.001537   -0.514336    0.941137
      6          8           0       -1.794097    0.091723   -0.000000
      7          1           0       -2.141997   -0.750032   -0.000011
 ---------------------------------------------------------------------

 SCF Done:  E(RPM7) = -0.129141254145     A.U. after    2 cycles

 The electronic state is 1-A.
 Alpha  occ. eigenvalues --   -1.08930  -0.75660  -0.67843  -0.35478  -0.34658
 Alpha  occ. eigenvalues --   -0.31323  -0.27442  -0.26096  -0.25273  -0.17268
 Alpha  occ. eigenvalues --   -0.16055
 Alpha virt. eigenvalues --    0.26913   0.40894   0.41519   0.41987   0.46955

 Mulliken charges:
               1
     1  F   -0.729655
     2  C    0.176905
     3  H    0.118818
     4  H    0.102490
     5  H    0.102480
     6  O   -1.054989
     7  H    0.283951
 Sum of Mulliken charges =  -1.00000

 Dipole moment (field-independent basis, Debye):
    X=             -0.1092    Y=             -1.5482    Z=             -0.0000  Tot=              1.5520
 N-N= 7.292107285797D+01 E-N=-7.630250180868D+01  KE=-6.047743048256D+01
  Exact polarizability:  43.113   0.245   9.956   0.000  -0.000   6.687
 Approx polarizability:  26.395   0.334   6.111   0.000  -0.000   4.025
 Leave Link  601 at Wed Oct 21 14:43:39 2020, MaxMem=  2684354560 cpu:               2.5 elap:               0.9
 (Enter /udrive/faculty/rpeverati/g16/g16/l701.exe)
 ... and contract with generalized density number  0.
 Compute integral second derivatives.
 R6Disp: Adding PM7 dispersion energy 2nd derivatives to the Hessian.
 Leave Link  701 at Wed Oct 21 14:43:41 2020, MaxMem=  2684354560 cpu:               3.4 elap:               0.9
 (Enter /udrive/faculty/rpeverati/g16/g16/l702.exe)

 ******    1 imaginary frequencies (negative Signs) ******

                      1                      2                      3
                      A                      A                      A
 Frequencies --   -773.2032               117.4303               302.6003
 Red. masses --     11.5858                 1.0649                 3.6653
 Frc consts  --      4.0810                 0.0087                 0.1977
 IR Inten    --   1803.5475               113.6044                38.8771

                      4                      5                      6
                      A                      A                      A
 Frequencies --    321.2579               345.8384               816.7135
 Red. masses --      4.4177                11.4282                 1.1377
 Frc consts  --      0.2686                 0.8053                 0.4471
 IR Inten    --     52.0252                19.2570                68.0593

                      7                      8                      9
                      A                      A                      A
 Frequencies --   1192.6827              1207.3327              1284.8026
 Red. masses --      1.0321                 1.0252                 1.1368
 Frc consts  --      0.8650                 0.8804                 1.1057
 IR Inten    --      1.2595                 1.4784                 7.3046

                     10                     11                     12
                      A                      A                      A
 Frequencies --   1290.0240              1384.9693              2686.7288
 Red. masses --      1.1333                 1.0640                 1.1011
 Frc consts  --      1.1112                 1.2025                 4.6831
 IR Inten    --     11.9120                44.5746                17.8272

                     13                     14                     15
                      A                      A                      A
 Frequencies --   2689.0725              2720.5427              2826.1404
 Red. masses --      1.1040                 1.0101                 1.0627
 Frc consts  --      4.7033                 4.4049                 5.0011
 IR Inten    --     10.8285                 3.8127               127.0001

 - Thermochemistry -
 -------------------
 Temperature   298.150 Kelvin.  Pressure   1.00000 Atm.
 Atom     1 has atomic number  9 and mass  18.99840

 Molecular mass:    51.02462 amu.
 Principal axes and moments of inertia in atomic units:
                           1         2         3
     Eigenvalues --    15.09508 421.85799 424.19721
           X            0.99989   0.01489   0.00000
           Y           -0.01489   0.99989  -0.00000
           Z           -0.00000   0.00000   1.00000
 This molecule is an asymmetric top.
 Rotational symmetry number  1.
 Rotational temperatures (Kelvin)      5.73789     0.20532     0.20418
 Rotational constants (GHZ):         119.55826     4.27808     4.25449
    1 imaginary frequencies ignored.
 Zero-point vibrational energy     114758.6 (Joules/Mol)
                                   27.42796 (Kcal/Mol)
 Warning -- explicit consideration of   4 degrees of freedom as
           vibrations may cause significant error
 Vibrational temperatures:    168.96   435.37   462.22   497.58  1175.07
          (Kelvin)           1716.00  1737.08  1848.54  1856.06  1992.66
                             3865.60  3868.98  3914.25  4066.19

 Zero-point correction=                           0.043709 (Hartree/Particle)
 Thermal correction to Energy=                    0.048559
 Thermal correction to Enthalpy=                  0.049504
 Thermal correction to Gibbs Free Energy=         0.017377
 Sum of electronic and zero-point Energies=             -0.085432
 Sum of electronic and thermal Energies=                -0.080582
 Sum of electronic and thermal Enthalpies=              -0.079638
 Sum of electronic and thermal Free Energies=           -0.111765

                     E (Thermal)             CV                S
                      KCal/Mol        Cal/Mol-Kelvin    Cal/Mol-Kelvin
 Total                   30.472             14.238             67.617
 Electronic               0.000              0.000              0.000
 Translational            0.889              2.981             37.712
 Rotational               0.889              2.981             22.517
 Vibrational             28.694              8.276              7.387
 Vibration     1          0.608              1.935              3.142
 Vibration     2          0.694              1.669              1.402
 Vibration     3          0.707              1.633              1.304
 Vibration     4          0.724              1.584              1.185

 Optimization completed.
    -- Stationary point found.
 Normal termination of Gaussian 16 at Wed Oct 21 14:43:50 2020.
