 Gaussian 16, Revision A.03,
 Gaussian 16:  ES64L-G16RevA.03 25-Dec-2016

 ----------------------------------------------------------------------
 #P Opt(MaxCyc=150) PM7 5D 7F Integral=UltraFineGrid SCF=(NoSymm,XQC,Ma
 xCyc=120) IOp(1/33=1)
 ----------------------------------------------------------------------

 TstMul:  Mul=     1
 TstMul:  ICh=     0
 TstMul:  Mul=     1
 Symbolic Z-matrix:
 Charge =  0 Multiplicity = 1

 SCF Done:  E(RPM7) =  0.541260179752E-01 A.U. after    6 cycles
 SCF Done:  E(RPM7) =  0.525727991989E-01 A.U. after    5 cycles
 SCF Done:  E(RPM7) =  0.525726828611E-01 A.U. after    4 cycles
 Optimization completed.
    -- Stationary point found.

                         Standard orientation:
 ---------------------------------------------------------------------
 Center     Atomic      Atomic             Coordinates (Angstroms)
 Number     Number       Type             X           Y           Z
 ---------------------------------------------------------------------
      1          7           0        0.000000    0.000000    0.559704
      2          7           0        0.000000    0.000000   -0.559704
 ---------------------------------------------------------------------

 The electronic state is 1-SGG.
 Alpha  occ. eigenvalues --   -1.55442  -0.80929  -0.60368  -0.60368  -0.50212
 Alpha virt. eigenvalues --   -0.00478  -0.00478   0.13618

 Mulliken charges:
               1
     1  N    0.000000
     2  N    0.000000
 Sum of Mulliken charges =   0.00000

 Dipole moment (field-independent basis, Debye):
    X=              0.0000    Y=              0.0000    Z=             -0.0000  Tot=              0.0000
 N-N= 2.235749417450D+01 E-N=-1.539552194543D+01  KE=-2.106795292457D+01
 Leave Link  601 at Wed Oct 21 14:39:19 2020, MaxMem=  2684354560 cpu:               3.0 elap:               1.0
 (Enter /udrive/faculty/rpeverati/g16/g16/l9999.exe)

 Test job not archived.
 1\1\GINC-NODE19\FOpt\RPM7\ZDO\N2\RPEVERATI\21-Oct-2020\0\\#P Opt(MaxCy
 c=150) PM7 5D 7F Integral=UltraFineGrid SCF=(NoSymm,XQC,MaxCyc=120) IO
 p(1/33=1)\\TS search on BH76.\\0,1\N,0.,0.,0.5597035202\N,0.,0.,-0.559
 7035202\\Version=ES64L-G16RevA.03\State=1-SGG\HF=0.0525727\RMSD=3.875e
 -11\RMSF=6.749e-08\Dipole=0.,0.,0.\PG=D*H [C*(N1.N1)]\\@

 Normal termination of Gaussian 16 at Wed Oct 21 14:39:21 2020.
