 Gaussian 16, Revision A.03,
 Gaussian 16:  ES64L-G16RevA.03 25-Dec-2016

 ----------------------------------------------------------------------
 #P Opt(MaxCyc=150) PM7 5D 7F Integral=UltraFineGrid SCF=(NoSymm,XQC,Ma
 xCyc=120) IOp(1/33=1)
 ----------------------------------------------------------------------

 TstMul:  Mul=     1
 TstMul:  ICh=     0
 TstMul:  Mul=     1
 Symbolic Z-matrix:
 Charge =  0 Multiplicity = 1

 SCF Done:  E(RPM7) =  0.449254337058E-01 A.U. after   13 cycles
 SCF Done:  E(RPM7) =  0.446195208669E-01 A.U. after   10 cycles
 SCF Done:  E(RPM7) =  0.446079319082E-01 A.U. after    8 cycles
 Optimization completed.
    -- Stationary point found.

                         Standard orientation:
 ---------------------------------------------------------------------
 Center     Atomic      Atomic             Coordinates (Angstroms)
 Number     Number       Type             X           Y           Z
 ---------------------------------------------------------------------
      1          7           0        0.000000    0.000000   -1.199946
      2          7           0        0.000000    0.000000   -0.069388
      3          8           0        0.000000    0.000000    1.110667
 ---------------------------------------------------------------------

 The electronic state is 1-SG.
 Alpha  occ. eigenvalues --   -1.56159  -1.26153  -0.84867  -0.67994  -0.67994
 Alpha  occ. eigenvalues --   -0.60635  -0.43881  -0.43881
 Alpha virt. eigenvalues --    0.00176   0.00549   0.00549   0.19437

 Mulliken charges:
               1
     1  N   -0.234793
     2  N    0.505064
     3  O   -0.270271
 Sum of Mulliken charges =  -0.00000

 Dipole moment (field-independent basis, Debye):
    X=             -0.0000    Y=             -0.0000    Z=              0.5225  Tot=              0.5225
 N-N= 4.969415748924D+01 E-N=-4.686546869170D+01  KE=-3.940235559376D+01
 Leave Link  601 at Wed Oct 21 14:39:29 2020, MaxMem=  2684354560 cpu:               3.5 elap:               1.0
 (Enter /udrive/faculty/rpeverati/g16/g16/l9999.exe)

 Test job not archived.
 1\1\GINC-NODE41\FOpt\RPM7\ZDO\N2O1\RPEVERATI\21-Oct-2020\0\\#P Opt(Max
 Cyc=150) PM7 5D 7F Integral=UltraFineGrid SCF=(NoSymm,XQC,MaxCyc=120)
 IOp(1/33=1)\\TS search on BH76.\\0,1\N,0.,0.,-1.2000060607\N,0.,0.,-0.
 0694488409\O,0.,0.,1.1106070157\\Version=ES64L-G16RevA.03\State=1-SG\H
 F=0.0446079\RMSD=8.637e-09\RMSF=1.442e-04\Dipole=0.,0.,0.2055526\PG=C*

 Normal termination of Gaussian 16 at Wed Oct 21 14:39:32 2020.
