 Gaussian 16, Revision A.03,
 Gaussian 16:  ES64L-G16RevA.03 25-Dec-2016

 ----------------------------------------------------------------------
 #P Opt(MaxCyc=150) PM7 5D 7F Integral=UltraFineGrid SCF=(NoSymm,XQC,Ma
 xCyc=120) IOp(1/33=1)
 ----------------------------------------------------------------------

 TstMul:  Mul=     1
 TstMul:  ICh=    -1
 TstMul:  Mul=     1
 Symbolic Z-matrix:
 Charge = -1 Multiplicity = 1

 SCF Done:  E(RPM7) = -0.148984184125     A.U. after   13 cycles
 SCF Done:  E(RPM7) = -0.154101318135     A.U. after   11 cycles
 SCF Done:  E(RPM7) = -0.155314041411     A.U. after   11 cycles
 SCF Done:  E(RPM7) = -0.155344361238     A.U. after   11 cycles
 SCF Done:  E(RPM7) = -0.155358568142     A.U. after   12 cycles
 SCF Done:  E(RPM7) = -0.155369593859     A.U. after   10 cycles
 SCF Done:  E(RPM7) = -0.155370289632     A.U. after    9 cycles
 Optimization completed.
    -- Stationary point found.

                         Standard orientation:
 ---------------------------------------------------------------------
 Center     Atomic      Atomic             Coordinates (Angstroms)
 Number     Number       Type             X           Y           Z
 ---------------------------------------------------------------------
      1          9           0        1.819007   -0.044755   -0.016540
      2          6           0        0.449806    0.066546    0.019867
      3          1           0       -0.029991   -0.894863   -0.246654
      4          1           0        0.119928    0.344485    1.032881
      5          1           0        0.113642    0.829418   -0.698824
      6          8           0       -2.048329   -0.060331   -0.000211
      7          1           0       -2.886845    0.207123   -0.056063
 ---------------------------------------------------------------------

 The electronic state is 1-A.
 Alpha  occ. eigenvalues --   -1.30013  -0.70995  -0.64587  -0.44186  -0.44030
 Alpha  occ. eigenvalues --   -0.41022  -0.29351  -0.28787  -0.20859  -0.10065
 Alpha  occ. eigenvalues --   -0.10059
 Alpha virt. eigenvalues --    0.29403   0.39268   0.39634   0.42688   0.55853

 Mulliken charges:
               1
     1  F   -0.319254
     2  C   -0.157879
     3  H    0.179551
     4  H    0.147073
     5  H    0.145353
     6  O   -1.279167
     7  H    0.284324
 Sum of Mulliken charges =  -1.00000

 Dipole moment (field-independent basis, Debye):
    X=              5.6045    Y=              0.8307    Z=             -0.0504  Tot=              5.6659
 N-N= 7.177182038971D+01 E-N=-7.384833485494D+01  KE=-6.012695650581D+01
 Leave Link  601 at Wed Oct 21 14:39:53 2020, MaxMem=  2684354560 cpu:               2.2 elap:               0.9
 (Enter /udrive/faculty/rpeverati/g16/g16/l9999.exe)

 Test job not archived.
 1\1\GINC-NODE59\FOpt\RPM7\ZDO\C1H4F1O1(1-)\RPEVERATI\21-Oct-2020\0\\#P
  Opt(MaxCyc=150) PM7 5D 7F Integral=UltraFineGrid SCF=(NoSymm,XQC,MaxC
 yc=120) IOp(1/33=1)\\TS search on BH76.\\-1,1\F,1.820617476,-0.0124340
 676,-0.0363795768\C,0.4511903501,0.089337005,0.0159551133\H,-0.0263044
 858,-0.8419862398,-0.3448516831\H,0.124313029,0.2620087041,1.053067648

 Normal termination of Gaussian 16 at Wed Oct 21 14:39:55 2020.
