 Gaussian 16, Revision A.03,
 Gaussian 16:  ES64L-G16RevA.03 25-Dec-2016

 ----------------------------------------------------------------------
 #P Opt(MaxCyc=150) PM7 5D 7F Integral=UltraFineGrid SCF=(NoSymm,XQC,Ma
 xCyc=120) IOp(1/33=1)
 ----------------------------------------------------------------------

 TstMul:  Mul=     2
 TstMul:  ICh=     0
 TstMul:  Mul=     2
 Symbolic Z-matrix:
 Charge =  0 Multiplicity = 2

 SCF Done:  E(UPM7) =  0.681603337064E-01 A.U. after   11 cycles
 SCF Done:  E(UPM7) =  0.667539596155E-01 A.U. after   10 cycles
 SCF Done:  E(UPM7) =  0.664848184319E-01 A.U. after    9 cycles
 SCF Done:  E(UPM7) =  0.664842626724E-01 A.U. after    7 cycles
 Optimization completed.
    -- Stationary point found.

                         Standard orientation:
 ---------------------------------------------------------------------
 Center     Atomic      Atomic             Coordinates (Angstroms)
 Number     Number       Type             X           Y           Z
 ---------------------------------------------------------------------
      1          7           0        0.000000    0.000000    0.126920
      2          1           0       -0.000000    0.809678   -0.444220
      3          1           0       -0.000000   -0.809678   -0.444220
 ---------------------------------------------------------------------

 The electronic state is 2-B1.
 Alpha  occ. eigenvalues --   -1.26550  -0.62651  -0.45831  -0.45645
 Alpha virt. eigenvalues --    0.16722   0.22815
  Beta  occ. eigenvalues --   -1.17852  -0.60531  -0.41242
  Beta virt. eigenvalues --   -0.00499   0.18826   0.24235

 Mulliken charges and spin densities:
               1          2
     1  N   -0.439246   1.090423
     2  H    0.219623  -0.045211
     3  H    0.219623  -0.045211
 Sum of Mulliken charges =  -0.00000   1.00000

 Dipole moment (field-independent basis, Debye):
    X=              0.0000    Y=              0.0000    Z=             -2.3368  Tot=              2.3368
 N-N= 1.217667934143D+01 E-N=-6.934500629897D+00  KE=-1.228287850829D+01
 Leave Link  601 at Wed Oct 21 14:40:33 2020, MaxMem=  2684354560 cpu:               5.5 elap:               1.7
 (Enter /udrive/faculty/rpeverati/g16/g16/l9999.exe)

 Test job not archived.
 1\1\GINC-NODE61\FOpt\UPM7\ZDO\H2N1(2)\RPEVERATI\21-Oct-2020\0\\#P Opt(
 MaxCyc=150) PM7 5D 7F Integral=UltraFineGrid SCF=(NoSymm,XQC,MaxCyc=12
 0) IOp(1/33=1)\\TS search on BH76.\\0,2\N,0.,0.,0.0979289844\H,0.,0.80
 96780195,-0.4732111538\H,0.,-0.8096780195,-0.4732111538\\Version=ES64L
 -G16RevA.03\State=2-B1\HF=0.0664843\S2=0.754447\S2-1=0.\S2A=0.750011\R

 Normal termination of Gaussian 16 at Wed Oct 21 14:40:35 2020.
