 Gaussian 16, Revision A.03,
 Gaussian 16:  ES64L-G16RevA.03 25-Dec-2016

 ----------------------------------------------------------------------
 #P Opt(MaxCyc=150) PM7 5D 7F Integral=UltraFineGrid SCF=(NoSymm,XQC,Ma
 xCyc=120) IOp(1/33=1)
 ----------------------------------------------------------------------

 TstMul:  Mul=     2
 TstMul:  ICh=     0
 TstMul:  Mul=     2
 Symbolic Z-matrix:
 Charge =  0 Multiplicity = 2

 SCF Done:  E(UPM7) =  0.702168646428E-01 A.U. after   10 cycles
 SCF Done:  E(UPM7) =  0.602828597584E-01 A.U. after   10 cycles
 SCF Done:  E(UPM7) =  0.598253745185E-01 A.U. after    9 cycles
 SCF Done:  E(UPM7) =  0.598233425638E-01 A.U. after    8 cycles
 Optimization completed.
    -- Stationary point found.

                         Standard orientation:
 ---------------------------------------------------------------------
 Center     Atomic      Atomic             Coordinates (Angstroms)
 Number     Number       Type             X           Y           Z
 ---------------------------------------------------------------------
      1         15           0        0.000000    0.000000    0.116685
      2          1           0       -0.000000    1.152753   -0.875136
      3          1           0       -0.000000   -1.152753   -0.875136
 ---------------------------------------------------------------------

 The electronic state is 2-B1.
 Alpha  occ. eigenvalues --   -1.71868  -0.57760  -0.46806  -0.38539
 Alpha virt. eigenvalues --    0.03897   0.08594   3.76063   3.76849   3.77217
 Alpha virt. eigenvalues --    3.78750   3.79669
  Beta  occ. eigenvalues --   -1.65777  -0.56692  -0.44308
  Beta virt. eigenvalues --   -0.16295   0.04579   0.08870   3.76060   3.76834
  Beta virt. eigenvalues --    3.77195   3.78645   3.79396

 Mulliken charges and spin densities:
               1          2
     1  P   -0.345768   1.133551
     2  H    0.172884  -0.066776
     3  H    0.172884  -0.066776
 Sum of Mulliken charges =  -0.00000   1.00000

 Dipole moment (field-independent basis, Debye):
    X=             -0.0000    Y=              0.0000    Z=             -2.0880  Tot=              2.0880
 N-N= 9.860768925008D+00 E-N=-3.517811830069D+00  KE=-1.026658285603D+01
 Leave Link  601 at Wed Oct 21 14:41:15 2020, MaxMem=  2684354560 cpu:               3.4 elap:               1.2
 (Enter /udrive/faculty/rpeverati/g16/g16/l9999.exe)

 Test job not archived.
 1\1\GINC-NODE52\FOpt\UPM7\ZDO\H2P1(2)\RPEVERATI\21-Oct-2020\0\\#P Opt(
 MaxCyc=150) PM7 5D 7F Integral=UltraFineGrid SCF=(NoSymm,XQC,MaxCyc=12
 0) IOp(1/33=1)\\TS search on BH76.\\0,2\P,0.,0.,0.1214813412\H,0.,1.15
 27526606,-0.8703394689\H,0.,-1.1527526606,-0.8703394689\\Version=ES64L
 -G16RevA.03\State=2-B1\HF=0.0598233\S2=0.759896\S2-1=0.\S2A=0.750054\R

 Normal termination of Gaussian 16 at Wed Oct 21 14:41:18 2020.
