 Gaussian 16, Revision A.03,
 Gaussian 16:  ES64L-G16RevA.03 25-Dec-2016

 ----------------------------------------------------------------------
 #P Opt(MaxCyc=150) PM7 5D 7F Integral=UltraFineGrid SCF=(NoSymm,XQC,Ma
 xCyc=120) IOp(1/33=1)
 ----------------------------------------------------------------------

 TstMul:  Mul=     2
 TstMul:  ICh=     0
 TstMul:  Mul=     2
 Symbolic Z-matrix:
 Charge =  0 Multiplicity = 2

 SCF Done:  E(UPM7) =  0.116231638632E-01 A.U. after   10 cycles
 SCF Done:  E(UPM7) =  0.116203036910E-01 A.U. after    7 cycles
 SCF Done:  E(UPM7) =  0.116196254491E-01 A.U. after    7 cycles
 Optimization completed.
    -- Stationary point found.

                         Standard orientation:
 ---------------------------------------------------------------------
 Center     Atomic      Atomic             Coordinates (Angstroms)
 Number     Number       Type             X           Y           Z
 ---------------------------------------------------------------------
      1          8           0        0.000000    0.000000    0.107370
      2          1           0        0.000000    0.000000   -0.858963
 ---------------------------------------------------------------------

 Unable to determine electronic state:  partially filled degenerate orbitals.
 Alpha  occ. eigenvalues --   -1.13035  -0.60105  -0.51960  -0.44964
 Alpha virt. eigenvalues --    0.16643
  Beta  occ. eigenvalues --   -0.96575  -0.55850  -0.41073
  Beta virt. eigenvalues --   -0.05985   0.18605

 Mulliken charges and spin densities:
               1          2
     1  O   -0.251246   1.045886
     2  H    0.251246  -0.045886
 Sum of Mulliken charges =  -0.00000   1.00000

 Dipole moment (field-independent basis, Debye):
    X=             -0.0000    Y=             -0.0000    Z=             -1.3905  Tot=              1.3905
 N-N= 1.379875042765D+01 E-N=-4.058185161866D+00  KE=-1.888045270925D+01
 Leave Link  601 at Wed Oct 21 14:40:14 2020, MaxMem=  2684354560 cpu:               2.7 elap:               0.9
 (Enter /udrive/faculty/rpeverati/g16/g16/l9999.exe)

 Test job not archived.
 1\1\GINC-NODE19\FOpt\UPM7\ZDO\H1O1(2)\RPEVERATI\21-Oct-2020\0\\#P Opt(
 MaxCyc=150) PM7 5D 7F Integral=UltraFineGrid SCF=(NoSymm,XQC,MaxCyc=12
 0) IOp(1/33=1)\\TS search on BH76.\\0,2\O,0.,0.,0.1063738266\H,0.,0.,-
 0.8599597463\\Version=ES64L-G16RevA.03\HF=0.0116196\S2=0.753298\S2-1=0
 .\S2A=0.75\RMSD=3.578e-09\RMSF=1.663e-09\Dipole=0.,0.,-0.5470584\PG=C*

 Normal termination of Gaussian 16 at Wed Oct 21 14:40:16 2020.
