 Gaussian 16, Revision A.03,
 Gaussian 16:  ES64L-G16RevA.03 25-Dec-2016

 ----------------------------------------------------------------------
 #P Opt(MaxCyc=150) PM7 5D 7F Integral=UltraFineGrid SCF=(NoSymm,XQC,Ma
 xCyc=120) IOp(1/33=1)
 ----------------------------------------------------------------------

 TstMul:  Mul=     1
 TstMul:  ICh=     0
 TstMul:  Mul=     1
 Symbolic Z-matrix:
 Charge =  0 Multiplicity = 1

 SCF Done:  E(RPM7) =  0.105801507740E-01 A.U. after    9 cycles
 SCF Done:  E(RPM7) = -0.476003761822E-02 A.U. after    8 cycles
 SCF Done:  E(RPM7) = -0.534615011421E-02 A.U. after    8 cycles
 SCF Done:  E(RPM7) = -0.535397621402E-02 A.U. after    7 cycles
 Optimization completed.
    -- Stationary point found.

                         Standard orientation:
 ---------------------------------------------------------------------
 Center     Atomic      Atomic             Coordinates (Angstroms)
 Number     Number       Type             X           Y           Z
 ---------------------------------------------------------------------
      1         15           0        0.000000    0.000000    0.115596
      2          1           0        0.000000    1.329906   -0.577980
      3          1           0        1.151732   -0.664953   -0.577980
      4          1           0       -1.151732   -0.664953   -0.577980
 ---------------------------------------------------------------------

 The electronic state is 1-A1.
 Alpha  occ. eigenvalues --   -1.73221  -0.59069  -0.59069  -0.41192
 Alpha virt. eigenvalues --    0.03694   0.03694   0.10915   3.69179   3.69179
 Alpha virt. eigenvalues --    3.70016   3.72852   3.72852

 Mulliken charges:
               1
     1  P   -0.525385
     2  H    0.175128
     3  H    0.175128
     4  H    0.175128
 Sum of Mulliken charges =  -0.00000

 Dipole moment (field-independent basis, Debye):
    X=             -0.0000    Y=              0.9337    Z=             -2.2583  Tot=              2.4437
 N-N= 1.191553518216D+01 E-N=-5.885730845575D+00  KE=-1.130501963522D+01
 Leave Link  601 at Wed Oct 21 14:40:41 2020, MaxMem=  2684354560 cpu:               2.9 elap:               0.9
 (Enter /udrive/faculty/rpeverati/g16/g16/l9999.exe)

 Test job not archived.
 1\1\GINC-NODE41\FOpt\RPM7\ZDO\H3P1\RPEVERATI\21-Oct-2020\0\\#P Opt(Max
 Cyc=150) PM7 5D 7F Integral=UltraFineGrid SCF=(NoSymm,XQC,MaxCyc=120)
 IOp(1/33=1)\\TS search on BH76.\\0,1\P,0.,0.,0.5192436384\H,0.66495304
 65,1.1517324613,-0.1743322945\H,0.6649530465,-1.1517324613,-0.17433229
 45\H,-1.3299060931,0.,-0.1743322945\\Version=ES64L-G16RevA.03\State=1-

 Normal termination of Gaussian 16 at Wed Oct 21 14:40:44 2020.
