 Gaussian 16, Revision A.03,
 Gaussian 16:  ES64L-G16RevA.03 25-Dec-2016

 ----------------------------------------------------------------------
 #P Opt(MaxCyc=150) PM7 5D 7F Integral=UltraFineGrid SCF=(NoSymm,XQC,Ma
 xCyc=120) IOp(1/33=1)
 ----------------------------------------------------------------------

 TstMul:  Mul=     1
 TstMul:  ICh=    -1
 TstMul:  Mul=     1
 Symbolic Z-matrix:
 Charge = -1 Multiplicity = 1

 SCF Done:  E(RPM7) = -0.508413128189E-01 A.U. after    8 cycles
 SCF Done:  E(RPM7) = -0.530406277961E-01 A.U. after    7 cycles
 SCF Done:  E(RPM7) = -0.538675997940E-01 A.U. after    7 cycles
 Optimization completed.
    -- Stationary point found.

                         Standard orientation:
 ---------------------------------------------------------------------
 Center     Atomic      Atomic             Coordinates (Angstroms)
 Number     Number       Type             X           Y           Z
 ---------------------------------------------------------------------
      1          8           0        0.000000    0.000000    0.098105
      2          1           0        0.000000    0.000000   -0.784843
 ---------------------------------------------------------------------

 The electronic state is 1-SG.
 Alpha  occ. eigenvalues --   -0.62128  -0.18486  -0.07331  -0.07331
 Alpha virt. eigenvalues --    0.57873

 Mulliken charges:
               1
     1  O   -1.270967
     2  H    0.270967
 Sum of Mulliken charges =  -1.00000

 Dipole moment (field-independent basis, Debye):
    X=              0.0000    Y=             -0.0000    Z=             -1.9104  Tot=              1.9104
 N-N= 1.395919205478D+01 E-N=-4.557403370931D+00  KE=-2.156317147153D+01
 Leave Link  601 at Wed Oct 21 14:40:01 2020, MaxMem=  2684354560 cpu:               4.0 elap:               0.9
 (Enter /udrive/faculty/rpeverati/g16/g16/l9999.exe)

 Test job not archived.
 1\1\GINC-NODE20\FOpt\RPM7\ZDO\H1O1(1-)\RPEVERATI\21-Oct-2020\0\\#P Opt
 (MaxCyc=150) PM7 5D 7F Integral=UltraFineGrid SCF=(NoSymm,XQC,MaxCyc=1
 20) IOp(1/33=1)\\TS search on BH76.\\-1,1\O,0.,0.,0.0673456337\H,0.,0.
 ,-0.8156022098\\Version=ES64L-G16RevA.03\State=1-SG\HF=-0.0538676\RMSD
 =2.592e-10\RMSF=1.822e-05\Dipole=0.,0.,-0.7516161\PG=C*V [C*(H1O1)]\\@

 Normal termination of Gaussian 16 at Wed Oct 21 14:40:02 2020.
