 Gaussian 16, Revision A.03,

 ----------------------------------------------------------------------
 #P Opt(TS,MaxCyc=50,NoEigenTest,MaxStep=10,AddRedundant) PM7 5D 7F Int
 egral=UltraFineGrid SCF=(NoSymm,XQC,MaxCyc=120) IOp(1/33=1)
 ----------------------------------------------------------------------

 TstMul:  Mul=     2
 TstMul:  ICh=     0
 TstMul:  Mul=     2
 Symbolic Z-matrix:
 Charge =  0 Multiplicity = 2

 SCF Done:  E(UPM7) = -0.340948886576E-01 A.U. after   16 cycles
 SCF Done:  E(UPM7) = -0.341154229413E-01 A.U. after   10 cycles
 SCF Done:  E(UPM7) = -0.342089804632E-01 A.U. after   10 cycles
 SCF Done:  E(UPM7) = -0.345848627620E-01 A.U. after   14 cycles
 SCF Done:  E(UPM7) = -0.354985040575E-01 A.U. after   15 cycles
 SCF Done:  E(UPM7) = -0.362933448162E-01 A.U. after   15 cycles
 SCF Done:  E(UPM7) = -0.369023264833E-01 A.U. after   13 cycles
 SCF Done:  E(UPM7) = -0.373751061539E-01 A.U. after   16 cycles
 SCF Done:  E(UPM7) = -0.377681435780E-01 A.U. after   15 cycles
 SCF Done:  E(UPM7) = -0.381000908180E-01 A.U. after   16 cycles
 SCF Done:  E(UPM7) = -0.396486277141E-01 A.U. after   12 cycles
 SCF Done:  E(UPM7) = -0.396721158394E-01 A.U. after   12 cycles
 SCF Done:  E(UPM7) = -0.396795989473E-01 A.U. after   12 cycles
 SCF Done:  E(UPM7) = -0.396797852137E-01 A.U. after   10 cycles
 SCF Done:  E(UPM7) = -0.396797634965E-01 A.U. after   10 cycles
 SCF Done:  E(UPM7) = -0.396789262191E-01 A.U. after   21 cycles
 SCF Done:  E(UPM7) = -0.396798051917E-01 A.U. after   22 cycles
 SCF Done:  E(UPM7) = -0.396798256990E-01 A.U. after   11 cycles
 SCF Done:  E(UPM7) = -0.396798731439E-01 A.U. after   21 cycles
 Optimization completed.
    -- Stationary point found.
 Normal termination of Gaussian 16 at Wed Oct 28 16:47:42 2020.
 Gaussian 16:  ES64L-G16RevA.03 25-Dec-2016

 ----------------------------------------------------------------------
 #P Freq PM7 5D 7F Integral=UltraFineGrid SCF=(NoSymm,XQC,MaxCyc=120) I
 Op(1/33=1) Geom=Check Guess=Read
 ----------------------------------------------------------------------

 TstMul:  Mul=     2
 TstMul:  ICh=     0
 TstMul:  Mul=     2
 Structure from the checkpoint file:  "MN_79_RKT02_BH76_PM7_SE.chk"
 Charge =  0 Multiplicity = 2

                         Standard orientation:
 ---------------------------------------------------------------------
 Center     Atomic      Atomic             Coordinates (Angstroms)
 Number     Number       Type             X           Y           Z
 ---------------------------------------------------------------------
      1          8           0       -0.469861   -0.110171   -0.000017
      2          1           0       -0.605314    0.846613    0.000010
      3          1           0        1.803296   -0.012319    0.000496
      4          1           0        2.560906    0.047077   -0.000372
 ---------------------------------------------------------------------

 SCF Done:  E(UPM7) = -0.396798731439E-01 A.U. after    2 cycles

 The electronic state is 2-A.
 Alpha  occ. eigenvalues --   -1.12900  -0.60027  -0.56059  -0.50979  -0.44883
 Alpha virt. eigenvalues --    0.16700   0.25923
  Beta  occ. eigenvalues --   -0.96531  -0.55789  -0.55155  -0.41009
  Beta virt. eigenvalues --   -0.05933   0.18651   0.25995

 Mulliken charges and spin densities:
               1          2
     1  O   -0.255315   1.041240
     2  H    0.251303  -0.045624
     3  H    0.001913  -0.002201
     4  H    0.002099   0.006585
 Sum of Mulliken charges =   0.00000   1.00000

 Dipole moment (field-independent basis, Debye):
    X=             -0.1424    Y=              1.3795    Z=              0.0000  Tot=              1.3868
 N-N= 1.794596126064D+01 E-N=-1.013854797870D+01  KE=-2.009941387638D+01
  Exact polarizability:   5.404  -0.458   5.614  -0.005  -0.000   0.021
 Approx polarizability:   3.228  -0.230   3.282  -0.003  -0.000   0.010
 Leave Link  601 at Wed Oct 28 16:47:44 2020, MaxMem=  2684354560 cpu:               0.3 elap:               0.1
 (Enter /udrive/faculty/rpeverati/g16/g16/l701.exe)
 ... and contract with generalized density number  0.
 Compute integral second derivatives.
 R6Disp: Adding PM7 dispersion energy 2nd derivatives to the Hessian.
 Leave Link  701 at Wed Oct 28 16:47:44 2020, MaxMem=  2684354560 cpu:               0.9 elap:               0.1
 (Enter /udrive/faculty/rpeverati/g16/g16/l702.exe)

 ******    2 imaginary frequencies (negative Signs) ******

                      1                      2                      3
                      A                      A                      A
 Frequencies --   -122.9756              -118.4128               122.8078
 Red. masses --      1.0090                 1.0106                 1.1834
 Frc consts  --      0.0090                 0.0083                 0.0105
 IR Inten    --      0.4285                 0.0869                30.0832

                      4                      5                      6
                      A                      A                      A
 Frequencies --    161.0674              2902.4604              5565.3476
 Red. masses --      1.0157                 1.0670                 1.0078
 Frc consts  --      0.0155                 5.2962                18.3916
 IR Inten    --     62.2792                61.0790                 2.3763

 - Thermochemistry -
 -------------------
 Temperature   298.150 Kelvin.  Pressure   1.00000 Atm.
 Atom     1 has atomic number  8 and mass  15.99491

 Molecular mass:    19.01839 amu.
 Principal axes and moments of inertia in atomic units:
                           1         2         3
     Eigenvalues --     3.12122  46.64396  49.76518
           X            0.99981  -0.01964  -0.00000
           Y            0.01964   0.99981  -0.00001
           Z            0.00000   0.00001   1.00000
 This molecule is an asymmetric top.
 Rotational symmetry number  1.
 Rotational temperatures (Kelvin)     27.75002     1.85692     1.74045
 Rotational constants (GHZ):         578.21652    38.69185    36.26514
    2 imaginary frequencies ignored.
 Zero-point vibrational energy      52346.7 (Joules/Mol)
                                   12.51116 (Kcal/Mol)
 Warning -- explicit consideration of   2 degrees of freedom as
           vibrations may cause significant error
 Vibrational temperatures:    176.69   231.74  4175.99  8007.29
          (Kelvin)

 Zero-point correction=                           0.019938 (Hartree/Particle)
 Thermal correction to Energy=                    0.024087
 Thermal correction to Enthalpy=                  0.025031
 Thermal correction to Gibbs Free Energy=        -0.002705
 Sum of electronic and zero-point Energies=             -0.019742
 Sum of electronic and thermal Energies=                -0.015593
 Sum of electronic and thermal Enthalpies=              -0.014649
 Sum of electronic and thermal Free Energies=           -0.042385

                     E (Thermal)             CV                S
                      KCal/Mol        Cal/Mol-Kelvin    Cal/Mol-Kelvin
 Total                   15.115              9.782             58.375
 Electronic               0.000              0.000              1.377
 Translational            0.889              2.981             34.771
 Rotational               0.889              2.981             16.634
 Vibrational             13.337              3.820              5.593
 Vibration     1          0.610              1.930              3.056
 Vibration     2          0.622              1.890              2.537

                           ! Non-Optimized Parameters !
 Normal termination of Gaussian 16 at Wed Oct 28 16:47:45 2020.
