 Gaussian 16, Revision A.03,
 Gaussian 16:  ES64L-G16RevA.03 25-Dec-2016

 ----------------------------------------------------------------------
 #P Opt(MaxCyc=150) PM7 5D 7F Integral=UltraFineGrid SCF=(NoSymm,XQC,Ma
 xCyc=120) IOp(1/33=1)
 ----------------------------------------------------------------------

 TstMul:  Mul=     1
 TstMul:  ICh=     0
 TstMul:  Mul=     1
 Symbolic Z-matrix:
 Charge =  0 Multiplicity = 1

 SCF Done:  E(RPM7) = -0.605060019664E-02 A.U. after    9 cycles
 SCF Done:  E(RPM7) = -0.663471177815E-02 A.U. after    7 cycles
 SCF Done:  E(RPM7) = -0.678480395356E-02 A.U. after    7 cycles
 Optimization completed.
    -- Stationary point found.

                         Standard orientation:
 ---------------------------------------------------------------------
 Center     Atomic      Atomic             Coordinates (Angstroms)
 Number     Number       Type             X           Y           Z
 ---------------------------------------------------------------------
      1          7           0        0.000000    0.000000    0.096511
      2          1           0        0.000000    0.942441   -0.225192
      3          1           0        0.816178   -0.471221   -0.225192
      4          1           0       -0.816178   -0.471221   -0.225192
 ---------------------------------------------------------------------

 The electronic state is 1-A1.
 Alpha  occ. eigenvalues --   -1.31454  -0.59636  -0.59636  -0.37286
 Alpha virt. eigenvalues --    0.16782   0.25651   0.25651

 Mulliken charges:
               1
     1  N   -0.727492
     2  H    0.242497
     3  H    0.242497
     4  H    0.242497
 Sum of Mulliken charges =  -0.00000

 Dipole moment (field-independent basis, Debye):
    X=             -0.0000    Y=             -0.0000    Z=             -2.1822  Tot=              2.1822
 N-N= 1.523585120758D+01 E-N=-1.118163915835D+01  KE=-1.354337057320D+01
 Leave Link  601 at Wed Oct 21 14:39:55 2020, MaxMem=  2684354560 cpu:               4.5 elap:               1.1
 (Enter /udrive/faculty/rpeverati/g16/g16/l9999.exe)

 Test job not archived.
 1\1\GINC-NODE22\FOpt\RPM7\ZDO\H3N1\RPEVERATI\21-Oct-2020\0\\#P Opt(Max
 Cyc=150) PM7 5D 7F Integral=UltraFineGrid SCF=(NoSymm,XQC,MaxCyc=120)
 IOp(1/33=1)\\TS search on BH76.\\0,1\N,0.,0.,0.2412438568\H,0.47122057
 66,0.8161779803,-0.0804586458\H,0.4712205766,-0.8161779803,-0.08045864
 58\H,-0.9424411533,0.,-0.0804586458\\Version=ES64L-G16RevA.03\State=1-

 Normal termination of Gaussian 16 at Wed Oct 21 14:39:57 2020.
