 Gaussian 16, Revision A.03,

 ----------------------------------------------------------------------
 #P Opt(TS,MaxCyc=50,NoEigenTest,MaxStep=10,AddRedundant) PM7 5D 7F Int
 egral=UltraFineGrid SCF=(NoSymm,XQC,MaxCyc=120) IOp(1/33=1)
 ----------------------------------------------------------------------

 TstMul:  Mul=     2
 TstMul:  ICh=     0
 TstMul:  Mul=     2
 Symbolic Z-matrix:
 Charge =  0 Multiplicity = 2

 SCF Done:  E(UPM7) = -0.681986784913E-02 A.U. after   18 cycles
 SCF Done:  E(UPM7) = -0.710791834138E-02 A.U. after   15 cycles
 SCF Done:  E(UPM7) = -0.703537846093E-02 A.U. after   15 cycles
 SCF Done:  E(UPM7) = -0.719521797637E-02 A.U. after   15 cycles
 SCF Done:  E(UPM7) = -0.748833113141E-02 A.U. after   15 cycles
 SCF Done:  E(UPM7) = -0.734931290955E-02 A.U. after   14 cycles
 SCF Done:  E(UPM7) = -0.730729702843E-02 A.U. after   14 cycles
 SCF Done:  E(UPM7) = -0.723386932523E-02 A.U. after   14 cycles
 SCF Done:  E(UPM7) = -0.725804177108E-02 A.U. after   14 cycles
 SCF Done:  E(UPM7) = -0.750125254647E-02 A.U. after   15 cycles
 SCF Done:  E(UPM7) = -0.876008022533E-02 A.U. after   13 cycles
 SCF Done:  E(UPM7) = -0.876054469708E-02 A.U. after   13 cycles
 SCF Done:  E(UPM7) = -0.876120237641E-02 A.U. after   13 cycles
 SCF Done:  E(UPM7) = -0.876072582555E-02 A.U. after   13 cycles
 SCF Done:  E(UPM7) = -0.876266390279E-02 A.U. after   14 cycles
 SCF Done:  E(UPM7) = -0.876261529984E-02 A.U. after   13 cycles
 SCF Done:  E(UPM7) = -0.876263522803E-02 A.U. after   12 cycles
 SCF Done:  E(UPM7) = -0.876264144014E-02 A.U. after   12 cycles
 SCF Done:  E(UPM7) = -0.876264447287E-02 A.U. after   11 cycles
 Optimization completed.
    -- Stationary point found.
 Normal termination of Gaussian 16 at Wed Oct 21 14:46:46 2020.
 Gaussian 16:  ES64L-G16RevA.03 25-Dec-2016

 ----------------------------------------------------------------------
 #P Freq PM7 5D 7F Integral=UltraFineGrid SCF=(NoSymm,XQC,MaxCyc=120) I
 Op(1/33=1) Geom=Check Guess=Read
 ----------------------------------------------------------------------

 TstMul:  Mul=     2
 TstMul:  ICh=     0
 TstMul:  Mul=     2
 Structure from the checkpoint file:  "MN_81_RKT04_BH76_PM7_SE.chk"
 Charge =  0 Multiplicity = 2

                         Standard orientation:
 ---------------------------------------------------------------------
 Center     Atomic      Atomic             Coordinates (Angstroms)
 Number     Number       Type             X           Y           Z
 ---------------------------------------------------------------------
      1          6           0       -1.114397    0.016623    0.010757
      2          8           0        1.194970   -0.105675    0.011985
      3          1           0       -0.017526   -0.355674   -0.388625
      4          1           0       -1.100250    0.054249    1.090302
      5          1           0       -1.306692    0.975718   -0.440473
      6          1           0       -1.743277   -0.776070   -0.368811
      7          1           0        1.294366    0.847437   -0.052816
 ---------------------------------------------------------------------

 SCF Done:  E(UPM7) = -0.876264447292E-02 A.U. after    2 cycles

 The electronic state is 2-A.
 Alpha  occ. eigenvalues --   -1.08700  -0.92378  -0.60682  -0.55438  -0.53285
 Alpha  occ. eigenvalues --   -0.53251  -0.42904  -0.39752
 Alpha virt. eigenvalues --    0.16135   0.19800   0.20049   0.21406   0.24250
  Beta  occ. eigenvalues --   -0.99440  -0.89968  -0.57122  -0.52972  -0.52744
  Beta  occ. eigenvalues --   -0.49794  -0.40089
  Beta virt. eigenvalues --   -0.04508   0.18211   0.20188   0.20368   0.22064
  Beta virt. eigenvalues --    0.24740

 Mulliken charges and spin densities:
               1          2
     1  C   -0.496410   0.411112
     2  O   -0.492979   0.711647
     3  H    0.247285  -0.064621
     4  H    0.161152  -0.011606
     5  H    0.147895  -0.010019
     6  H    0.157165  -0.005766
     7  H    0.275893  -0.030747
 Sum of Mulliken charges =  -0.00000   1.00000

 Dipole moment (field-independent basis, Debye):
    X=             -1.5467    Y=              1.2504    Z=             -0.4097  Tot=              2.0307
 N-N= 3.978047744315D+01 E-N=-4.040579806500D+01  KE=-2.968750276787D+01
  Exact polarizability:  31.788  -0.328  11.500   1.264  -0.175   6.754
 Approx polarizability:  16.344   0.335   7.256   0.680   0.022   4.212
 Leave Link  601 at Wed Oct 21 14:46:56 2020, MaxMem=  2684354560 cpu:               1.3 elap:               0.2
 (Enter /udrive/faculty/rpeverati/g16/g16/l701.exe)
 ... and contract with generalized density number  0.
 Compute integral second derivatives.
 R6Disp: Adding PM7 dispersion energy 2nd derivatives to the Hessian.
 Leave Link  701 at Wed Oct 21 14:46:57 2020, MaxMem=  2684354560 cpu:               5.2 elap:               0.6
 (Enter /udrive/faculty/rpeverati/g16/g16/l702.exe)

 ******    1 imaginary frequencies (negative Signs) ******

                      1                      2                      3
                      A                      A                      A
 Frequencies --  -1161.9785                82.3885               179.1554
 Red. masses --      1.0876                 1.0481                 1.1065
 Frc consts  --      0.8652                 0.0042                 0.0209
 IR Inten    --    707.7988                58.5166                53.2727

                      4                      5                      6
                      A                      A                      A
 Frequencies --    289.9579               817.8912               867.8732
 Red. masses --      2.2260                 1.2947                 1.1284
 Frc consts  --      0.1103                 0.5103                 0.5008
 IR Inten    --      5.5147                32.2715                36.5033

                      7                      8                      9
                      A                      A                      A
 Frequencies --   1142.0884              1290.6879              1299.6630
 Red. masses --      1.0603                 1.1023                 1.0977
 Frc consts  --      0.8148                 1.0819                 1.0925
 IR Inten    --     66.0440                66.0228                63.0749

                     10                     11                     12
                      A                      A                      A
 Frequencies --   1326.3371              1573.6820              2689.4213
 Red. masses --      1.1822                 1.0811                 1.0964
 Frc consts  --      1.2254                 1.5774                 4.6726
 IR Inten    --    130.0449               133.0129                95.7893

                     13                     14                     15
                      A                      A                      A
 Frequencies --   2697.1447              2773.3014              2875.4708
 Red. masses --      1.0974                 1.0193                 1.0646
 Frc consts  --      4.7034                 4.6190                 5.1863
 IR Inten    --     79.0520                71.2956               121.7358

 - Thermochemistry -
 -------------------
 Temperature   298.150 Kelvin.  Pressure   1.00000 Atm.
 Atom     1 has atomic number  6 and mass  12.00000

 Molecular mass:    33.03404 amu.
 Principal axes and moments of inertia in atomic units:
                           1         2         3
     Eigenvalues --    15.17316 167.49863 170.61174
           X            0.99970   0.02459  -0.00053
           Y           -0.02458   0.99968   0.00543
           Z            0.00066  -0.00541   0.99999
 This molecule is an asymmetric top.
 Rotational symmetry number  1.
 Rotational temperatures (Kelvin)      5.70836     0.51710     0.50767
 Rotational constants (GHZ):         118.94299    10.77466    10.57806
    1 imaginary frequencies ignored.
 Zero-point vibrational energy     119058.7 (Joules/Mol)
                                   28.45572 (Kcal/Mol)
 Warning -- explicit consideration of   3 degrees of freedom as
           vibrations may cause significant error
 Vibrational temperatures:    118.54   257.76   417.18  1176.76  1248.68
          (Kelvin)           1643.21  1857.01  1869.93  1908.30  2264.18
                             3869.48  3880.59  3990.16  4137.16

 Zero-point correction=                           0.045347 (Hartree/Particle)
 Thermal correction to Energy=                    0.050168
 Thermal correction to Enthalpy=                  0.051112
 Thermal correction to Gibbs Free Energy=         0.019453
 Sum of electronic and zero-point Energies=              0.036584
 Sum of electronic and thermal Energies=                 0.041405
 Sum of electronic and thermal Enthalpies=               0.042349
 Sum of electronic and thermal Free Energies=            0.010690

                     E (Thermal)             CV                S
                      KCal/Mol        Cal/Mol-Kelvin    Cal/Mol-Kelvin
 Total                   31.481             13.393             66.631
 Electronic               0.000              0.000              1.377
 Translational            0.889              2.981             36.416
 Rotational               0.889              2.981             20.700
 Vibrational             29.703              7.431              8.138
 Vibration     1          0.600              1.961              3.833
 Vibration     2          0.629              1.868              2.337
 Vibration     3          0.686              1.692              1.474

 Optimization completed.
    -- Stationary point found.
 Normal termination of Gaussian 16 at Wed Oct 21 14:47:00 2020.
