 Gaussian 16, Revision A.03,

 ----------------------------------------------------------------------
 #P Opt(TS,MaxCyc=50,NoEigenTest,MaxStep=10,AddRedundant) PM7 5D 7F Int
 egral=UltraFineGrid SCF=(NoSymm,XQC,MaxCyc=120) IOp(1/33=1)
 ----------------------------------------------------------------------

 TstMul:  Mul=     3
 TstMul:  ICh=     0
 TstMul:  Mul=     3
 Symbolic Z-matrix:
 Charge =  0 Multiplicity = 3

 SCF Done:  E(UPM7) =  0.846116531804E-01 A.U. after   14 cycles
 SCF Done:  E(UPM7) =  0.843263513311E-01 A.U. after   12 cycles
 SCF Done:  E(UPM7) =  0.844529979558E-01 A.U. after   13 cycles
 SCF Done:  E(UPM7) =  0.845061262356E-01 A.U. after   12 cycles
 SCF Done:  E(UPM7) =  0.845099917375E-01 A.U. after   12 cycles
 SCF Done:  E(UPM7) =  0.845060422420E-01 A.U. after   11 cycles
 SCF Done:  E(UPM7) =  0.845182715319E-01 A.U. after   12 cycles
 SCF Done:  E(UPM7) =  0.844988937531E-01 A.U. after   12 cycles
 SCF Done:  E(UPM7) =  0.844854546473E-01 A.U. after   12 cycles
 SCF Done:  E(UPM7) =  0.844908466827E-01 A.U. after   12 cycles
 SCF Done:  E(UPM7) =  0.844880486462E-01 A.U. after   12 cycles
 SCF Done:  E(UPM7) =  0.844878172563E-01 A.U. after   11 cycles
 SCF Done:  E(UPM7) =  0.844877914934E-01 A.U. after   10 cycles
 Optimization completed.
    -- Stationary point found.
 Normal termination of Gaussian 16 at Wed Oct 21 14:43:32 2020.
 Gaussian 16:  ES64L-G16RevA.03 25-Dec-2016

 ----------------------------------------------------------------------
 #P Freq PM7 5D 7F Integral=UltraFineGrid SCF=(NoSymm,XQC,MaxCyc=120) I
 Op(1/33=1) Geom=Check Guess=Read
 ----------------------------------------------------------------------

 TstMul:  Mul=     3
 TstMul:  ICh=     0
 TstMul:  Mul=     3
 Structure from the checkpoint file:  "MN_87_RKT11_BH76_PM7_SE.chk"
 Charge =  0 Multiplicity = 3

                         Standard orientation:
 ---------------------------------------------------------------------
 Center     Atomic      Atomic             Coordinates (Angstroms)
 Number     Number       Type             X           Y           Z
 ---------------------------------------------------------------------
      1          6           0        0.005709   -1.113220    0.000000
      2          1           0       -0.982373   -1.539579    0.000000
      3          1           0        0.565477   -1.282589    0.903676
      4          1           0        0.565477   -1.282589   -0.903676
      5          1           0       -0.228511    0.140342    0.000000
      6          8           0        0.005709    1.330467    0.000000
 ---------------------------------------------------------------------

 SCF Done:  E(UPM7) =  0.844877914934E-01 A.U. after    2 cycles

 The electronic state is 3-A'.
 Alpha  occ. eigenvalues --   -1.12188  -0.92786  -0.59684  -0.54166  -0.53933
 Alpha  occ. eigenvalues --   -0.50665  -0.43740  -0.39495
 Alpha virt. eigenvalues --    0.17118   0.19775   0.19862   0.23108
  Beta  occ. eigenvalues --   -0.94577  -0.81323  -0.53512  -0.53369  -0.51521
  Beta  occ. eigenvalues --   -0.38070
  Beta virt. eigenvalues --   -0.04235  -0.02893   0.19663   0.20246   0.20249
  Beta virt. eigenvalues --    0.23790

 Mulliken charges and spin densities:
               1          2
     1  C   -0.470831   0.563087
     2  H    0.152188  -0.013047
     3  H    0.154013  -0.014771
     4  H    0.154013  -0.014771
     5  H    0.217000  -0.118943
     6  O   -0.206383   1.598444
 Sum of Mulliken charges =   0.00000   2.00000

 Dipole moment (field-independent basis, Debye):
    X=             -0.1699    Y=             -1.6921    Z=             -0.0000  Tot=              1.7006
 N-N= 3.493869545033D+01 E-N=-3.269174462977D+01  KE=-2.822638230701D+01
  Exact polarizability:   6.632   0.868  31.709   0.000   0.000   6.204
 Approx polarizability:   4.099   0.524  17.291   0.000  -0.000   3.852
 Leave Link  601 at Wed Oct 21 14:43:55 2020, MaxMem=  2684354560 cpu:               2.1 elap:               0.6
 (Enter /udrive/faculty/rpeverati/g16/g16/l701.exe)
 ... and contract with generalized density number  0.
 Compute integral second derivatives.
 R6Disp: Adding PM7 dispersion energy 2nd derivatives to the Hessian.
 Leave Link  701 at Wed Oct 21 14:43:56 2020, MaxMem=  2684354560 cpu:               3.6 elap:               0.7
 (Enter /udrive/faculty/rpeverati/g16/g16/l702.exe)

 ******    1 imaginary frequencies (negative Signs) ******

                      1                      2                      3
                     A'                     A"                     A'
 Frequencies --  -1814.0262                13.5869               128.7563
 Red. masses --      1.0812                 1.0504                 1.4019
 Frc consts  --      2.0962                 0.0001                 0.0137
 IR Inten    --    846.6760                13.8893                10.5917

                      4                      5                      6
                     A'                     A"                     A'
 Frequencies --    641.9376               974.8620              1078.0130
 Red. masses --      2.2249                 1.0672                 1.1182
 Frc consts  --      0.5402                 0.5976                 0.7656
 IR Inten    --      1.5744                54.9848                57.2687

                      7                      8                      9
                     A"                     A'                     A'
 Frequencies --   1292.2129              1295.6395              1316.0158
 Red. masses --      1.1080                 1.1099                 1.1621
 Frc consts  --      1.0901                 1.0978                 1.1858
 IR Inten    --     73.8925                78.0300               107.8777

                     10                     11                     12
                     A"                     A'                     A'
 Frequencies --   2697.5320              2697.9959              2772.2422
 Red. masses --      1.0993                 1.0998                 1.0170
 Frc consts  --      4.7129                 4.7169                 4.6051
 IR Inten    --     87.0853                84.6803                59.8352

 - Thermochemistry -
 -------------------
 Temperature   298.150 Kelvin.  Pressure   1.00000 Atm.
 Atom     1 has atomic number  6 and mass  12.00000

 Molecular mass:    32.02621 amu.
 Principal axes and moments of inertia in atomic units:
                           1         2         3
     Eigenvalues --    11.84319 178.81603 178.90299
           X            0.00140   1.00000   0.00000
           Y            1.00000  -0.00140   0.00000
           Z            0.00000   0.00000   1.00000
 This molecule is an asymmetric top.
 Rotational symmetry number  1.
 Rotational temperatures (Kelvin)      7.31339     0.48437     0.48414
 Rotational constants (GHZ):         152.38639    10.09273    10.08782
    1 imaginary frequencies ignored.
 Zero-point vibrational energy      89174.4 (Joules/Mol)
                                   21.31319 (Kcal/Mol)
 Warning -- explicit consideration of   2 degrees of freedom as
           vibrations may cause significant error
 Vibrational temperatures:     19.55   185.25   923.60  1402.61  1551.02
          (Kelvin)           1859.21  1864.14  1893.45  3881.15  3881.81
                             3988.64

 Zero-point correction=                           0.033965 (Hartree/Particle)
 Thermal correction to Energy=                    0.038631
 Thermal correction to Enthalpy=                  0.039576
 Thermal correction to Gibbs Free Energy=         0.006280
 Sum of electronic and zero-point Energies=              0.118453
 Sum of electronic and thermal Energies=                 0.123119
 Sum of electronic and thermal Enthalpies=               0.124063
 Sum of electronic and thermal Free Energies=            0.090768

                     E (Thermal)             CV                S
                      KCal/Mol        Cal/Mol-Kelvin    Cal/Mol-Kelvin
 Total                   24.242             11.966             70.076
 Electronic               0.000              0.000              2.183
 Translational            0.889              2.981             36.324
 Rotational               0.889              2.981             20.566
 Vibrational             22.464              6.005             11.003
 Vibration     1          0.593              1.986              7.402
 Vibration     2          0.611              1.924              2.965

 Optimization completed.
    -- Stationary point found.
 Normal termination of Gaussian 16 at Wed Oct 21 14:44:01 2020.
