 Gaussian 16, Revision A.03,

 ----------------------------------------------------------------------
 #P Opt(TS,MaxCyc=50,NoEigenTest,MaxStep=10,AddRedundant) PM7 5D 7F Int
 egral=UltraFineGrid SCF=(NoSymm,XQC,MaxCyc=120) IOp(1/33=1)
 ----------------------------------------------------------------------

 TstMul:  Mul=     2
 TstMul:  ICh=     0
 TstMul:  Mul=     2
 Symbolic Z-matrix:
 Charge =  0 Multiplicity = 2

 SCF Done:  E(UPM7) =  0.135590289762E-01 A.U. after    7 cycles
 SCF Done:  E(UPM7) =  0.103334273425E-01 A.U. after    6 cycles
 SCF Done:  E(UPM7) =  0.857785583637E-02 A.U. after    6 cycles
 SCF Done:  E(UPM7) =  0.833268166721E-02 A.U. after    6 cycles
 SCF Done:  E(UPM7) =  0.832775722039E-02 A.U. after    5 cycles
 Optimization completed.
    -- Stationary point found.
 Normal termination of Gaussian 16 at Wed Oct 21 14:41:23 2020.
 Gaussian 16:  ES64L-G16RevA.03 25-Dec-2016

 ----------------------------------------------------------------------
 #P Freq PM7 5D 7F Integral=UltraFineGrid SCF=(NoSymm,XQC,MaxCyc=120) I
 Op(1/33=1) Geom=Check Guess=Read
 ----------------------------------------------------------------------

 TstMul:  Mul=     2
 TstMul:  ICh=     0
 TstMul:  Mul=     2
 Structure from the checkpoint file:  "MN_82_RKT06_BH76_PM7_SE.chk"
 Charge =  0 Multiplicity = 2

                         Standard orientation:
 ---------------------------------------------------------------------
 Center     Atomic      Atomic             Coordinates (Angstroms)
 Number     Number       Type             X           Y           Z
 ---------------------------------------------------------------------
      1          1           0        0.000000    0.000000    0.000000
      2          1           0        0.000000    0.000000    0.861342
      3          1           0        0.000000    0.000000   -0.861342
 ---------------------------------------------------------------------

 SCF Done:  E(UPM7) =  0.832775722039E-02 A.U. after    2 cycles

 The electronic state is 2-SGU.
 Alpha  occ. eigenvalues --   -0.65998  -0.30387
 Alpha virt. eigenvalues --    0.25085
  Beta  occ. eigenvalues --   -0.59816
  Beta virt. eigenvalues --    0.10644   0.29871

 Mulliken charges and spin densities:
               1          2
     1  H    0.094715  -0.141147
     2  H   -0.047357   0.570574
     3  H   -0.047357   0.570574
 Sum of Mulliken charges =   0.00000   1.00000

 Dipole moment (field-independent basis, Debye):
    X=             -0.0000    Y=              0.0000    Z=              0.0000  Tot=              0.0000
 N-N= 2.700403076222D+00 E-N=-2.104455480487D+00  KE=-1.717682366790D+00
  Exact polarizability:   0.000   0.000   0.000  -0.000   0.000  11.993
 Approx polarizability:   0.000  -0.000  -0.000  -0.000  -0.000   7.235
 Leave Link  601 at Wed Oct 21 14:41:45 2020, MaxMem=  2684354560 cpu:               2.2 elap:               0.7
 (Enter /udrive/faculty/rpeverati/g16/g16/l701.exe)
 ... and contract with generalized density number  0.
 Compute integral second derivatives.
 R6Disp: Adding PM7 dispersion energy 2nd derivatives to the Hessian.
 Leave Link  701 at Wed Oct 21 14:41:47 2020, MaxMem=  2684354560 cpu:               3.7 elap:               1.0
 (Enter /udrive/faculty/rpeverati/g16/g16/l702.exe)

 ******    2 imaginary frequencies (negative Signs) ******

                      1                      2                      3
                     PIU                    PIU                    SGU
 Frequencies --   -258.2666              -258.2666              2551.7670
 Red. masses --      1.0078                 1.0078                 1.0078
 Frc consts  --      0.0396                 0.0396                 3.8665
 IR Inten    --     13.0164                13.0164               639.1188

                      4
                     SGG
 Frequencies --   3062.3451
 Red. masses --      1.0078
 Frc consts  --      5.5686
 IR Inten    --      0.0000

 - Thermochemistry -
 -------------------
 Temperature   298.150 Kelvin.  Pressure   1.00000 Atm.
 Atom     1 has atomic number  1 and mass   1.00783

 Molecular mass:     3.02348 amu.
 Principal axes and moments of inertia in atomic units:
                           1         2         3
     Eigenvalues --     0.00000   5.34028   5.34028
           X           -0.00000   1.00000   0.00000
           Y            0.00000   0.00000   1.00000
           Z            1.00000   0.00000   0.00000
 This molecule is a prolate symmetric top.
 Rotational symmetry number  2.
 Rotational temperature (Kelvin)     16.21898
 Rotational constant (GHZ):         337.948646
    2 imaginary frequencies ignored.
 Zero-point vibrational energy      33579.8 (Joules/Mol)
                                    8.02578 (Kcal/Mol)
 Vibrational temperatures:   3671.42  4406.03
          (Kelvin)

 Zero-point correction=                           0.012790 (Hartree/Particle)
 Thermal correction to Energy=                    0.015150
 Thermal correction to Enthalpy=                  0.016095
 Thermal correction to Gibbs Free Energy=        -0.001515
 Sum of electronic and zero-point Energies=              0.021118
 Sum of electronic and thermal Energies=                 0.023478
 Sum of electronic and thermal Enthalpies=               0.024422
 Sum of electronic and thermal Free Energies=            0.006813

                     E (Thermal)             CV                S
                      KCal/Mol        Cal/Mol-Kelvin    Cal/Mol-Kelvin
 Total                    9.507              4.970             37.062
 Electronic               0.000              0.000              1.377
 Translational            0.889              2.981             29.289
 Rotational               0.592              1.987              6.395
 Vibrational              8.026              0.002              0.000

 Optimization completed.
    -- Stationary point found.
 Normal termination of Gaussian 16 at Wed Oct 21 14:41:53 2020.
