 Gaussian 16, Revision A.03,

 ----------------------------------------------------------------------
 #P Opt(TS,MaxCyc=50,NoEigenTest,MaxStep=10,AddRedundant) PM7 5D 7F Int
 egral=UltraFineGrid SCF=(NoSymm,XQC,MaxCyc=120) IOp(1/33=1)
 ----------------------------------------------------------------------

 TstMul:  Mul=     3
 TstMul:  ICh=     0
 TstMul:  Mul=     3
 Symbolic Z-matrix:
 Charge =  0 Multiplicity = 3

 SCF Done:  E(UPM7) =  0.633727310862E-01 A.U. after   12 cycles
 SCF Done:  E(UPM7) =  0.608274576111E-01 A.U. after  121 cycles
 SCF Done:  E(UPM7) =  0.608262133979E-01 a.u. after   17 cycles
 SCF Done:  E(UPM7) =  0.605713109107E-01 A.U. after   10 cycles
 SCF Done:  E(UPM7) =  0.634261761912E-01 A.U. after   13 cycles
 SCF Done:  E(UPM7) =  0.627143261037E-01 A.U. after   11 cycles
 SCF Done:  E(UPM7) =  0.603129945653E-01 A.U. after   12 cycles
 SCF Done:  E(UPM7) =  0.582409345069E-01 A.U. after   12 cycles
 SCF Done:  E(UPM7) =  0.568172548055E-01 A.U. after   12 cycles
 SCF Done:  E(UPM7) =  0.562286545666E-01 A.U. after   12 cycles
 SCF Done:  E(UPM7) =  0.560953371523E-01 A.U. after   12 cycles
 SCF Done:  E(UPM7) =  0.561436449349E-01 A.U. after   11 cycles
 SCF Done:  E(UPM7) =  0.561871438148E-01 A.U. after   11 cycles
 SCF Done:  E(UPM7) =  0.561856364038E-01 A.U. after   11 cycles
 Optimization completed.
    -- Stationary point found.
 Normal termination of Gaussian 16 at Wed Oct 21 14:43:38 2020.
 Gaussian 16:  ES64L-G16RevA.03 25-Dec-2016

 ----------------------------------------------------------------------
 #P Freq PM7 5D 7F Integral=UltraFineGrid SCF=(NoSymm,XQC,MaxCyc=120) I
 Op(1/33=1) Geom=Check Guess=Read
 ----------------------------------------------------------------------

 TstMul:  Mul=     3
 TstMul:  ICh=     0
 TstMul:  Mul=     3
 Structure from the checkpoint file:  "MN_89_RKT14_BH76_PM7_SE.chk"
 Charge =  0 Multiplicity = 3

                         Standard orientation:
 ---------------------------------------------------------------------
 Center     Atomic      Atomic             Coordinates (Angstroms)
 Number     Number       Type             X           Y           Z
 ---------------------------------------------------------------------
      1          1           0       -0.000190   -0.947171    0.000000
      2          8           0       -0.000000    0.333311   -0.000000
      3          1           0        0.000190   -1.719319    0.000000
 ---------------------------------------------------------------------

 SCF Done:  E(UPM7) =  0.561856364038E-01 A.U. after    2 cycles

 The electronic state is 3-A".
 Alpha  occ. eigenvalues --   -1.13537  -0.66644  -0.51082  -0.44087  -0.42144
 Alpha virt. eigenvalues --    0.22506
  Beta  occ. eigenvalues --   -0.82663  -0.58109  -0.37798
  Beta virt. eigenvalues --   -0.02710  -0.01187   0.25528

 Mulliken charges and spin densities:
               1          2
     1  H    0.075364  -0.064857
     2  O   -0.149411   1.776257
     3  H    0.074047   0.288600
 Sum of Mulliken charges =  -0.00000   2.00000

 Dipole moment (field-independent basis, Debye):
    X=             -0.0000    Y=             -1.2688    Z=             -0.0000  Tot=              1.2688
 N-N= 1.574191702013D+01 E-N=-7.285277875010D+00  KE=-1.912554820331D+01
  Exact polarizability:   0.007  -0.002  15.173  -0.000  -0.000   0.247
 Approx polarizability:   0.002  -0.001   8.731  -0.000  -0.000   0.111
 Leave Link  601 at Wed Oct 21 14:43:59 2020, MaxMem=  2684354560 cpu:               2.2 elap:               0.5
 (Enter /udrive/faculty/rpeverati/g16/g16/l701.exe)
 ... and contract with generalized density number  0.
 Compute integral second derivatives.
 R6Disp: Adding PM7 dispersion energy 2nd derivatives to the Hessian.
 Leave Link  701 at Wed Oct 21 14:44:00 2020, MaxMem=  2684354560 cpu:               3.3 elap:               0.7
 (Enter /udrive/faculty/rpeverati/g16/g16/l702.exe)

 ******    1 imaginary frequencies (negative Signs) ******

                      1                      2                      3
                     A'                     A'                     A'
 Frequencies --  -1111.1875               942.5036              4865.7830
 Red. masses --      1.0139                 1.1253                 1.0083
 Frc consts  --      0.7376                 0.5890                14.0648
 IR Inten    --      1.2572               132.6912               492.9508

 - Thermochemistry -
 -------------------
 Temperature   298.150 Kelvin.  Pressure   1.00000 Atm.
 Atom     1 has atomic number  1 and mass   1.00783

 Molecular mass:    18.01056 amu.
 Principal axes and moments of inertia in atomic units:
                           1         2         3
     Eigenvalues --     0.00000  18.82734  18.82734
           X           -0.00003   1.00000   0.00000
           Y            1.00000   0.00003   0.00000
           Z           -0.00000   0.00000   1.00000
 This molecule is a prolate symmetric top.
 Rotational symmetry number  1.
 Rotational temperatures (Kelvin) ************     4.60043     4.60043
 Rotational constants (GHZ):      ************    95.85745    95.85745
    1 imaginary frequencies ignored.
 Zero-point vibrational energy      34741.3 (Joules/Mol)
                                    8.30336 (Kcal/Mol)
 Vibrational temperatures:   1356.05  7000.78
          (Kelvin)

 Zero-point correction=                           0.013232 (Hartree/Particle)
 Thermal correction to Energy=                    0.016111
 Thermal correction to Enthalpy=                  0.017055
 Thermal correction to Gibbs Free Energy=         0.000224
 Sum of electronic and zero-point Energies=              0.069418
 Sum of electronic and thermal Energies=                 0.072296
 Sum of electronic and thermal Enthalpies=               0.073241
 Sum of electronic and thermal Free Energies=            0.056409

                     E (Thermal)             CV                S
                      KCal/Mol        Cal/Mol-Kelvin    Cal/Mol-Kelvin
 Total                   10.110              6.406             35.424
 Electronic               0.000              0.000              2.183
 Translational            0.889              2.981             34.608
 Rotational               0.889              2.981             -1.485
 Vibrational              8.332              0.445              0.118

 Optimization completed.
    -- Stationary point found.
 Normal termination of Gaussian 16 at Wed Oct 21 14:44:05 2020.
