 Gaussian 16, Revision A.03,

 ----------------------------------------------------------------------
 #P Opt(TS,MaxCyc=50,NoEigenTest,MaxStep=10,AddRedundant) PM7 5D 7F Int
 egral=UltraFineGrid SCF=(NoSymm,XQC,MaxCyc=120) IOp(1/33=1)
 ----------------------------------------------------------------------

 TstMul:  Mul=     2
 TstMul:  ICh=     0
 TstMul:  Mul=     2
 Symbolic Z-matrix:
 Charge =  0 Multiplicity = 2

 SCF Done:  E(UPM7) =  0.115951627893E-01 A.U. after   18 cycles
 SCF Done:  E(UPM7) =  0.100633446584E-01 A.U. after   16 cycles
 SCF Done:  E(UPM7) =  0.723111474565E-02 A.U. after   17 cycles
 SCF Done:  E(UPM7) =  0.727028039393E-02 A.U. after   16 cycles
 SCF Done:  E(UPM7) =  0.600220236074E-02 A.U. after   16 cycles
 SCF Done:  E(UPM7) =  0.378505631828E-02 A.U. after   16 cycles
 SCF Done:  E(UPM7) =  0.476768840459E-02 A.U. after   16 cycles
 SCF Done:  E(UPM7) =  0.231992327384E-02 A.U. after   14 cycles
 SCF Done:  E(UPM7) =  0.451069440900E-02 A.U. after   15 cycles
 SCF Done:  E(UPM7) =  0.256336549288E-02 A.U. after   15 cycles
 SCF Done:  E(UPM7) = -0.200198000279E-03 A.U. after   15 cycles
 SCF Done:  E(UPM7) =  0.725810995093E-04 A.U. after   15 cycles
 SCF Done:  E(UPM7) = -0.867077970071E-03 A.U. after   15 cycles
 SCF Done:  E(UPM7) = -0.854391093469E-03 A.U. after   15 cycles
 SCF Done:  E(UPM7) = -0.933514195339E-03 A.U. after   14 cycles
 SCF Done:  E(UPM7) = -0.948655285946E-03 A.U. after   13 cycles
 SCF Done:  E(UPM7) = -0.969730444780E-03 A.U. after   14 cycles
 SCF Done:  E(UPM7) = -0.974629121501E-03 A.U. after   14 cycles
 SCF Done:  E(UPM7) = -0.976052253698E-03 A.U. after   11 cycles
 Optimization completed.
    -- Stationary point found.
 Normal termination of Gaussian 16 at Wed Oct 21 14:45:56 2020.
 Gaussian 16:  ES64L-G16RevA.03 25-Dec-2016

 ----------------------------------------------------------------------
 #P Freq PM7 5D 7F Integral=UltraFineGrid SCF=(NoSymm,XQC,MaxCyc=120) I
 Op(1/33=1) Geom=Check Guess=Read
 ----------------------------------------------------------------------

 TstMul:  Mul=     2
 TstMul:  ICh=     0
 TstMul:  Mul=     2
 Structure from the checkpoint file:  "MN_83_RKT07_BH76_PM7_SE.chk"
 Charge =  0 Multiplicity = 2

                         Standard orientation:
 ---------------------------------------------------------------------
 Center     Atomic      Atomic             Coordinates (Angstroms)
 Number     Number       Type             X           Y           Z
 ---------------------------------------------------------------------
      1          7           0       -0.999162    0.017017   -0.086313
      2          8           0        0.974204   -0.109283    0.052648
      3          1           0       -1.103458   -0.762246    0.523942
      4          1           0       -1.033913    0.866442    0.423488
      5          1           0       -0.000867   -0.114961   -0.765414
      6          1           0        1.338739    0.765912    0.000995
 ---------------------------------------------------------------------

 SCF Done:  E(UPM7) = -0.976052253719E-03 A.U. after    2 cycles

 The electronic state is 2-A.
 Alpha  occ. eigenvalues --   -1.31808  -1.03244  -0.65544  -0.63184  -0.54888
 Alpha  occ. eigenvalues --   -0.48523  -0.42617  -0.39321
 Alpha virt. eigenvalues --    0.13241   0.20008   0.22446   0.23418
  Beta  occ. eigenvalues --   -1.26560  -0.96572  -0.63437  -0.60887  -0.52782
  Beta  occ. eigenvalues --   -0.41159  -0.40562
  Beta virt. eigenvalues --   -0.03158   0.15153   0.21248   0.23239   0.23811

 Mulliken charges and spin densities:
               1          2
     1  N   -0.498712   0.688721
     2  O   -0.700083   0.432733
     3  H    0.259643  -0.029592
     4  H    0.248500  -0.030141
     5  H    0.394130  -0.046865
     6  H    0.296522  -0.014856
 Sum of Mulliken charges =  -0.00000   1.00000

 Dipole moment (field-independent basis, Debye):
    X=             -1.2842    Y=              1.5529    Z=              0.4841  Tot=              2.0724
 N-N= 4.206445148317D+01 E-N=-4.072731174409D+01  KE=-3.309266494416D+01
  Exact polarizability:  43.333  -1.868  10.090   4.134  -0.824   5.489
 Approx polarizability:  19.613   0.070   6.285   1.465  -0.205   3.369
 Leave Link  601 at Wed Oct 21 14:46:08 2020, MaxMem=  2684354560 cpu:               1.3 elap:               0.3
 (Enter /udrive/faculty/rpeverati/g16/g16/l701.exe)
 ... and contract with generalized density number  0.
 Compute integral second derivatives.
 R6Disp: Adding PM7 dispersion energy 2nd derivatives to the Hessian.
 Leave Link  701 at Wed Oct 21 14:46:08 2020, MaxMem=  2684354560 cpu:               2.6 elap:               0.5
 (Enter /udrive/faculty/rpeverati/g16/g16/l702.exe)

 ******    1 imaginary frequencies (negative Signs) ******

                      1                      2                      3
                      A                      A                      A
 Frequencies --  -1289.2735               338.7478               450.0232
 Red. masses --      1.0564                 1.0955                 3.9921
 Frc consts  --      1.0346                 0.0741                 0.4763
 IR Inten    --      2.0621                91.2134                79.3266

                      4                      5                      6
                      A                      A                      A
 Frequencies --    509.4358               895.6900               935.2098
 Red. masses --      1.0254                 1.1265                 1.2278
 Frc consts  --      0.1568                 0.5325                 0.6327
 IR Inten    --     42.4777                13.3613               394.3110

                      7                      8                      9
                      A                      A                      A
 Frequencies --   1341.5398              1590.1862              1979.8230
 Red. masses --      1.0595                 1.1083                 1.0738
 Frc consts  --      1.1235                 1.6511                 2.4799
 IR Inten    --    111.2023                78.0931               288.1033

                     10                     11                     12
                      A                      A                      A
 Frequencies --   2783.6028              2825.7311              2842.5052
 Red. masses --      1.0906                 1.0462                 1.0545
 Frc consts  --      4.9787                 4.9220                 5.0200
 IR Inten    --     99.5148               163.0257               277.3611

 - Thermochemistry -
 -------------------
 Temperature   298.150 Kelvin.  Pressure   1.00000 Atm.
 Atom     1 has atomic number  7 and mass  14.00307

 Molecular mass:    34.02929 amu.
 Principal axes and moments of inertia in atomic units:
                           1         2         3
     Eigenvalues --    11.64270 123.11558 126.45369
           X            0.99904   0.03133  -0.03050
           Y           -0.03034   0.99902   0.03216
           Z            0.03148  -0.03120   0.99902
 This molecule is an asymmetric top.
 Rotational symmetry number  1.
 Rotational temperatures (Kelvin)      7.43933     0.70352     0.68495
 Rotational constants (GHZ):         155.01050    14.65892    14.27195
    1 imaginary frequencies ignored.
 Zero-point vibrational energy      98647.0 (Joules/Mol)
                                   23.57720 (Kcal/Mol)
 Warning -- explicit consideration of   3 degrees of freedom as
           vibrations may cause significant error
 Vibrational temperatures:    487.38   647.48   732.96  1288.70  1345.56
          (Kelvin)           1930.18  2287.92  2848.52  4004.98  4065.60
                             4089.73

 Zero-point correction=                           0.037573 (Hartree/Particle)
 Thermal correction to Energy=                    0.041376
 Thermal correction to Enthalpy=                  0.042320
 Thermal correction to Gibbs Free Energy=         0.013498
 Sum of electronic and zero-point Energies=              0.036597
 Sum of electronic and thermal Energies=                 0.040400
 Sum of electronic and thermal Enthalpies=               0.041344
 Sum of electronic and thermal Free Energies=            0.012522

                     E (Thermal)             CV                S
                      KCal/Mol        Cal/Mol-Kelvin    Cal/Mol-Kelvin
 Total                   25.964             11.307             60.660
 Electronic               0.000              0.000              1.377
 Translational            0.889              2.981             36.505
 Rotational               0.889              2.981             19.833
 Vibrational             24.186              5.345              2.945
 Vibration     1          0.719              1.598              1.218
 Vibration     2          0.809              1.361              0.796
 Vibration     3          0.865              1.229              0.635

 Optimization completed.
    -- Stationary point found.
 Normal termination of Gaussian 16 at Wed Oct 21 14:46:12 2020.
