 Gaussian 16, Revision A.03,

 ----------------------------------------------------------------------
 #P Opt(TS,MaxCyc=50,NoEigenTest,MaxStep=10,AddRedundant) PM7 5D 7F Int
 egral=UltraFineGrid SCF=(NoSymm,XQC,MaxCyc=120) IOp(1/33=1)
 ----------------------------------------------------------------------

 TstMul:  Mul=     2
 TstMul:  ICh=     0
 TstMul:  Mul=     2
 Symbolic Z-matrix:
 Charge =  0 Multiplicity = 2

 SCF Done:  E(UPM7) =  0.263462415004E-01 A.U. after   17 cycles
 SCF Done:  E(UPM7) =  0.253133049448E-01 A.U. after   13 cycles
 SCF Done:  E(UPM7) =  0.256167315786E-01 A.U. after   13 cycles
 SCF Done:  E(UPM7) =  0.258678138574E-01 A.U. after   13 cycles
 SCF Done:  E(UPM7) =  0.260934756546E-01 A.U. after   14 cycles
 SCF Done:  E(UPM7) =  0.263020577194E-01 A.U. after   13 cycles
 SCF Done:  E(UPM7) =  0.264959787689E-01 A.U. after   13 cycles
 SCF Done:  E(UPM7) =  0.266842935719E-01 A.U. after   13 cycles
 SCF Done:  E(UPM7) =  0.268523960439E-01 A.U. after   13 cycles
 SCF Done:  E(UPM7) =  0.270202675137E-01 A.U. after   13 cycles
 SCF Done:  E(UPM7) =  0.270827704249E-01 A.U. after   13 cycles
 SCF Done:  E(UPM7) =  0.270819834471E-01 A.U. after   13 cycles
 SCF Done:  E(UPM7) =  0.270815277620E-01 A.U. after   13 cycles
 SCF Done:  E(UPM7) =  0.270807626142E-01 A.U. after   13 cycles
 SCF Done:  E(UPM7) =  0.270798990646E-01 A.U. after   13 cycles
 SCF Done:  E(UPM7) =  0.270777422739E-01 A.U. after   16 cycles
 SCF Done:  E(UPM7) =  0.270775505742E-01 A.U. after   13 cycles
 SCF Done:  E(UPM7) =  0.270775117639E-01 A.U. after   13 cycles
 SCF Done:  E(UPM7) =  0.270775037604E-01 A.U. after   12 cycles
 Optimization completed.
    -- Stationary point found.
 Normal termination of Gaussian 16 at Wed Oct 21 14:46:54 2020.
 Gaussian 16:  ES64L-G16RevA.03 25-Dec-2016

 ----------------------------------------------------------------------
 #P Freq PM7 5D 7F Integral=UltraFineGrid SCF=(NoSymm,XQC,MaxCyc=120) I
 Op(1/33=1) Geom=Check Guess=Read
 ----------------------------------------------------------------------

 TstMul:  Mul=     2
 TstMul:  ICh=     0
 TstMul:  Mul=     2
 Structure from the checkpoint file:  "MN_84_RKT08_BH76_PM7_SE.chk"
 Charge =  0 Multiplicity = 2

                         Standard orientation:
 ---------------------------------------------------------------------
 Center     Atomic      Atomic             Coordinates (Angstroms)
 Number     Number       Type             X           Y           Z
 ---------------------------------------------------------------------
      1          6           0        1.752980    0.000014   -0.000022
      2          1           0        2.021864   -0.679135   -0.795939
      3          1           0        2.022646   -0.349528    0.985937
      4          1           0        2.021813    1.028838   -0.190445
      5          1           0        0.506170   -0.000283    0.000624
      6         17           0       -1.005316    0.000002   -0.000002
 ---------------------------------------------------------------------

 SCF Done:  E(UPM7) =  0.270775037604E-01 A.U. after    2 cycles

 The electronic state is 2-A.
 Alpha  occ. eigenvalues --   -0.99918  -0.92902  -0.57555  -0.55232  -0.55231
 Alpha  occ. eigenvalues --   -0.41748  -0.41748  -0.38576
 Alpha virt. eigenvalues --    0.14070   0.18367   0.18367   0.21484   2.57743
 Alpha virt. eigenvalues --    2.58627   2.58627   2.61922   2.61922
  Beta  occ. eigenvalues --   -0.96400  -0.85240  -0.54731  -0.54731  -0.52667
  Beta  occ. eigenvalues --   -0.41255  -0.41255
  Beta virt. eigenvalues --   -0.10765   0.15548   0.18728   0.18728   0.21832
  Beta virt. eigenvalues --    2.59786   2.60173   2.60173   2.62085   2.62085

 Mulliken charges and spin densities:
               1          2
     1  C   -0.442470   0.495309
     2  H    0.160436  -0.011365
     3  H    0.160430  -0.011359
     4  H    0.160437  -0.011365
     5  H    0.202990  -0.063782
     6  Cl  -0.241822   0.602562
 Sum of Mulliken charges =   0.00000   1.00000

 Dipole moment (field-independent basis, Debye):
    X=              2.6484    Y=             -0.0003    Z=              0.0004  Tot=              2.6484
 N-N= 3.419275664023D+01 E-N=-3.311061766296D+01  KE=-2.612884680221D+01
  Exact polarizability:  50.843  -0.002   8.311   0.004   0.000   7.607
 Approx polarizability:  28.231  -0.001   5.514   0.002   0.000   5.084
 Leave Link  601 at Wed Oct 21 14:47:02 2020, MaxMem=  2684354560 cpu:               1.3 elap:               0.3
 (Enter /udrive/faculty/rpeverati/g16/g16/l701.exe)
 ... and contract with generalized density number  0.
 Compute integral second derivatives.
 R6Disp: Adding PM7 dispersion energy 2nd derivatives to the Hessian.
 Leave Link  701 at Wed Oct 21 14:47:03 2020, MaxMem=  2684354560 cpu:               2.2 elap:               0.4
 (Enter /udrive/faculty/rpeverati/g16/g16/l702.exe)

 ******    1 imaginary frequencies (negative Signs) ******

                      1                      2                      3
                      A                      A                      A
 Frequencies --   -913.8128                90.6715                90.8057
 Red. masses --      1.0761                 1.0258                 1.0258
 Frc consts  --      0.5295                 0.0050                 0.0050
 IR Inten    --   1124.8880                12.8881                13.4032

                      4                      5                      6
                      A                      A                      A
 Frequencies --    485.0999               980.6120               980.6672
 Red. masses --      7.0329                 1.0664                 1.0664
 Frc consts  --      0.9751                 0.6042                 0.6043
 IR Inten    --     26.5876                50.4602                52.1528

                      7                      8                      9
                      A                      A                      A
 Frequencies --   1290.0862              1290.0966              1385.9703
 Red. masses --      1.1110                 1.1110                 1.0906
 Frc consts  --      1.0894                 1.0894                 1.2343
 IR Inten    --     78.6392                77.9227               209.2961

                     10                     11                     12
                      A                      A                      A
 Frequencies --   2686.7559              2686.7692              2762.8785
 Red. masses --      1.0987                 1.0987                 1.0177
 Frc consts  --      4.6729                 4.6730                 4.5769
 IR Inten    --     96.7114                97.1400               113.2153

 - Thermochemistry -
 -------------------
 Temperature   298.150 Kelvin.  Pressure   1.00000 Atm.
 Atom     1 has atomic number  6 and mass  12.00000

 Molecular mass:    51.00015 amu.
 Principal axes and moments of inertia in atomic units:
                           1         2         3
     Eigenvalues --    11.81829 304.93699 304.93714
           X            1.00000  -0.00000   0.00000
           Y            0.00000   1.00000   0.00003
           Z           -0.00000  -0.00003   1.00000
 This molecule is an asymmetric top.
 Rotational symmetry number  1.
 Rotational temperatures (Kelvin)      7.32880     0.28404     0.28404
 Rotational constants (GHZ):         152.70748     5.91841     5.91840
    1 imaginary frequencies ignored.
 Zero-point vibrational energy      88107.4 (Joules/Mol)
                                   21.05818 (Kcal/Mol)
 Warning -- explicit consideration of   3 degrees of freedom as
           vibrations may cause significant error
 Vibrational temperatures:    130.46   130.65   697.95  1410.88  1410.96
          (Kelvin)           1856.15  1856.16  1994.10  3865.64  3865.66
                             3975.17

 Zero-point correction=                           0.033558 (Hartree/Particle)
 Thermal correction to Energy=                    0.038242
 Thermal correction to Enthalpy=                  0.039186
 Thermal correction to Gibbs Free Energy=         0.006414
 Sum of electronic and zero-point Energies=              0.060636
 Sum of electronic and thermal Energies=                 0.065319
 Sum of electronic and thermal Enthalpies=               0.066264
 Sum of electronic and thermal Free Energies=            0.033491

                     E (Thermal)             CV                S
                      KCal/Mol        Cal/Mol-Kelvin    Cal/Mol-Kelvin
 Total                   23.997             12.373             68.975
 Electronic               0.000              0.000              1.377
 Translational            0.889              2.981             37.711
 Rotational               0.889              2.981             21.624
 Vibrational             22.220              6.411              8.263
 Vibration     1          0.602              1.956              3.646
 Vibration     2          0.602              1.956              3.643
 Vibration     3          0.841              1.283              0.696

 Optimization completed.
    -- Stationary point found.
 Normal termination of Gaussian 16 at Wed Oct 21 14:47:05 2020.
