 Gaussian 16, Revision A.03,

 ----------------------------------------------------------------------
 #P Opt(TS,MaxCyc=50,NoEigenTest,MaxStep=10,AddRedundant) PM7 5D 7F Int
 egral=UltraFineGrid SCF=(NoSymm,XQC,MaxCyc=120) IOp(1/33=1)
 ----------------------------------------------------------------------

 TstMul:  Mul=     1
 TstMul:  ICh=     0
 TstMul:  Mul=     1
 Symbolic Z-matrix:
 Charge =  0 Multiplicity = 1

 SCF Done:  E(RPM7) =  0.102596089306     A.U. after   15 cycles
 SCF Done:  E(RPM7) =  0.100874201842     A.U. after   14 cycles
 SCF Done:  E(RPM7) =  0.100625346697     A.U. after   12 cycles
 SCF Done:  E(RPM7) =  0.100767785722     A.U. after   12 cycles
 SCF Done:  E(RPM7) =  0.100790623060     A.U. after   14 cycles
 SCF Done:  E(RPM7) =  0.101249439419     A.U. after   14 cycles
 SCF Done:  E(RPM7) =  0.100419651285     A.U. after   14 cycles
 SCF Done:  E(RPM7) =  0.994613634714E-01 A.U. after   14 cycles
 SCF Done:  E(RPM7) =  0.985525955213E-01 A.U. after   14 cycles
 SCF Done:  E(RPM7) =  0.987105919965E-01 A.U. after   14 cycles
 SCF Done:  E(RPM7) =  0.981218234549E-01 A.U. after   13 cycles
 SCF Done:  E(RPM7) =  0.981071862228E-01 A.U. after   12 cycles
 SCF Done:  E(RPM7) =  0.981027523530E-01 A.U. after   12 cycles
 SCF Done:  E(RPM7) =  0.980999148556E-01 A.U. after   12 cycles
 SCF Done:  E(RPM7) =  0.985441271386E-01 A.U. after   13 cycles
 SCF Done:  E(RPM7) =  0.990510806024E-01 A.U. after   12 cycles
 SCF Done:  E(RPM7) =  0.981752722033E-01 A.U. after   14 cycles
 SCF Done:  E(RPM7) =  0.981029613133E-01 A.U. after   12 cycles
 SCF Done:  E(RPM7) =  0.980986433613E-01 A.U. after   11 cycles
 Optimization completed.
    -- Stationary point found.
 Normal termination of Gaussian 16 at Wed Oct 21 14:46:37 2020.
 Gaussian 16:  ES64L-G16RevA.03 25-Dec-2016

 ----------------------------------------------------------------------
 #P Freq PM7 5D 7F Integral=UltraFineGrid SCF=(NoSymm,XQC,MaxCyc=120) I
 Op(1/33=1) Geom=Check Guess=Read
 ----------------------------------------------------------------------

 TstMul:  Mul=     1
 TstMul:  ICh=     0
 TstMul:  Mul=     1
 Structure from the checkpoint file:  "MN_96_RKT22_BH76_PM7_SE.chk"
 Charge =  0 Multiplicity = 1

                         Standard orientation:
 ---------------------------------------------------------------------
 Center     Atomic      Atomic             Coordinates (Angstroms)
 Number     Number       Type             X           Y           Z
 ---------------------------------------------------------------------
      1          6           0       -1.304775   -0.892773   -0.004071
      2          6           0       -1.207364    0.507552   -0.037159
      3          6           0       -0.000095    1.179664    0.138210
      4          6           0        1.207257    0.507706   -0.037122
      5          6           0        1.304943   -0.892671   -0.004072
      6          1           0        2.117348   -1.372230   -0.533144
      7          1           0        1.051003   -1.441340    0.897212
      8          1           0        2.074131    1.087902   -0.363286
      9          1           0       -0.000212    2.265925    0.195210
     10          1           0       -2.074254    1.087642   -0.363344
     11          1           0       -2.116906   -1.372636   -0.533252
     12          1           0        0.000139   -1.270870   -0.531517
     13          1           0       -1.051046   -1.441267    0.897409
 ---------------------------------------------------------------------

 SCF Done:  E(RPM7) =  0.980986433611E-01 A.U. after    2 cycles

 The electronic state is 1-A.
 Alpha  occ. eigenvalues --   -1.08656  -0.93637  -0.88852  -0.74068  -0.67249
 Alpha  occ. eigenvalues --   -0.62443  -0.53508  -0.52572  -0.52265  -0.48121
 Alpha  occ. eigenvalues --   -0.46014  -0.45081  -0.35477  -0.32683
 Alpha virt. eigenvalues --   -0.00354   0.04722   0.16044   0.17896   0.17983
 Alpha virt. eigenvalues --    0.19560   0.20459   0.21511   0.21867   0.22878
 Alpha virt. eigenvalues --    0.23123   0.23296   0.24801   0.24810

 Mulliken charges:
               1
     1  C   -0.484734
     2  C   -0.035601
     3  C   -0.279507
     4  C   -0.035604
     5  C   -0.484701
     6  H    0.146322
     7  H    0.163482
     8  H    0.138854
     9  H    0.151819
    10  H    0.138851
    11  H    0.146317
    12  H    0.271017
    13  H    0.163484
 Sum of Mulliken charges =  -0.00000

 Dipole moment (field-independent basis, Debye):
    X=              0.0000    Y=             -0.3955    Z=             -0.3757  Tot=              0.5455
 N-N= 1.045971783369D+02 E-N=-1.495556769028D+02  KE=-4.223000865860D+01
  Exact polarizability:  66.922  -0.001  56.895  -0.001   0.528  16.191
 Approx polarizability:  55.150  -0.001  45.420  -0.001   1.569  10.924
 Leave Link  601 at Wed Oct 21 14:46:50 2020, MaxMem=  2684354560 cpu:               0.5 elap:               0.2
 (Enter /udrive/faculty/rpeverati/g16/g16/l701.exe)
 ... and contract with generalized density number  0.
 Compute integral second derivatives.
 R6Disp: Adding PM7 dispersion energy 2nd derivatives to the Hessian.
 Leave Link  701 at Wed Oct 21 14:46:50 2020, MaxMem=  2684354560 cpu:               1.7 elap:               0.5
 (Enter /udrive/faculty/rpeverati/g16/g16/l702.exe)

 ******    1 imaginary frequencies (negative Signs) ******

                      1                      2                      3
                      A                      A                      A
 Frequencies --  -2059.2312               262.8524               419.6379
 Red. masses --      1.2350                 2.0107                 1.8724
 Frc consts  --      3.0854                 0.0819                 0.1943
 IR Inten    --      0.7218                 0.5410                 1.5370

                      4                      5                      6
                      A                      A                      A
 Frequencies --    444.3141               496.5434               604.8937
 Red. masses --      3.0337                 3.2032                 1.2180
 Frc consts  --      0.3529                 0.4653                 0.2626
 IR Inten    --      2.1383                 4.1876                 3.6463

                      7                      8                      9
                      A                      A                      A
 Frequencies --    724.3052               755.8407               836.8471
 Red. masses --      1.9220                 1.1499                 1.2687
 Frc consts  --      0.5941                 0.3870                 0.5235
 IR Inten    --     16.7471                 3.9126               115.0526

                     10                     11                     12
                      A                      A                      A
 Frequencies --    937.7552               973.5424              1029.3475
 Red. masses --      1.1853                 1.3085                 1.5433
 Frc consts  --      0.6141                 0.7307                 0.9634
 IR Inten    --     12.1648                24.2024                 0.6612

                     13                     14                     15
                      A                      A                      A
 Frequencies --   1050.2503              1087.9419              1156.0239
 Red. masses --      1.7682                 1.5295                 1.2274
 Frc consts  --      1.1491                 1.0666                 0.9664
 IR Inten    --      4.7255                70.2083                26.6281

                     16                     17                     18
                      A                      A                      A
 Frequencies --   1182.2055              1209.3218              1245.4716
 Red. masses --      1.0485                 1.6672                 1.1129
 Frc consts  --      0.8634                 1.4366                 1.0171
 IR Inten    --     46.4476                 0.8919                 0.3032

                     19                     20                     21
                      A                      A                      A
 Frequencies --   1299.8251              1307.4692              1362.5985
 Red. masses --      1.1021                 1.1418                 1.1540
 Frc consts  --      1.0971                 1.1500                 1.2623
 IR Inten    --      4.5341                 4.9680                11.9087

                     22                     23                     24
                      A                      A                      A
 Frequencies --   1400.3615              1535.2854              1613.9925
 Red. masses --      1.6709                 3.7766                 1.0844
 Frc consts  --      1.9305                 5.2448                 1.6644
 IR Inten    --     62.2577                 1.3682                76.9203

                     25                     26                     27
                      A                      A                      A
 Frequencies --   1661.1852              1669.7534              2689.5097
 Red. masses --      7.1155                 5.8356                 1.0857
 Frc consts  --     11.5689                 9.5860                 4.6271
 IR Inten    --     42.6485               201.9994                 1.5365

                     28                     29                     30
                      A                      A                      A
 Frequencies --   2694.9003              2742.0210              2744.0458
 Red. masses --      1.0874                 1.0719                 1.0698
 Frc consts  --      4.6528                 4.7485                 4.7460
 IR Inten    --     88.5890                57.6941               172.3441

                     31                     32                     33
                      A                      A                      A
 Frequencies --   2765.8643              2767.4074              2770.2146
 Red. masses --      1.0519                 1.0498                 1.0693
 Frc consts  --      4.7411                 4.7369                 4.8349
 IR Inten    --    217.3467                69.4619                23.1778

 - Thermochemistry -
 -------------------
 Temperature   298.150 Kelvin.  Pressure   1.00000 Atm.
 Atom     1 has atomic number  6 and mass  12.00000

 Molecular mass:    68.06260 amu.
 Principal axes and moments of inertia in atomic units:
                           1         2         3
     Eigenvalues --   221.90886 352.87379 553.10275
           X            1.00000  -0.00000  -0.00000
           Y            0.00000   0.99990  -0.01387
           Z            0.00000   0.01387   0.99990
 This molecule is an asymmetric top.
 Rotational symmetry number  1.
 Rotational temperatures (Kelvin)      0.39031     0.24545     0.15660
 Rotational constants (GHZ):           8.13280     5.11441     3.26294
    1 imaginary frequencies ignored.
 Zero-point vibrational energy     271800.7 (Joules/Mol)
                                   64.96193 (Kcal/Mol)
 Warning -- explicit consideration of   5 degrees of freedom as
           vibrations may cause significant error
 Vibrational temperatures:    378.19   603.77   639.27   714.42   870.31
          (Kelvin)           1042.11  1087.49  1204.04  1349.22  1400.71
                             1481.00  1511.08  1565.31  1663.26  1700.93
                             1739.94  1791.96  1870.16  1881.16  1960.48
                             2014.81  2208.93  2322.18  2390.07  2402.40
                             3869.60  3877.36  3945.16  3948.07  3979.46
                             3981.68  3985.72

 Zero-point correction=                           0.103523 (Hartree/Particle)
 Thermal correction to Energy=                    0.108327
 Thermal correction to Enthalpy=                  0.109272
 Thermal correction to Gibbs Free Energy=         0.076133
 Sum of electronic and zero-point Energies=              0.201622
 Sum of electronic and thermal Energies=                 0.206426
 Sum of electronic and thermal Enthalpies=               0.207370
 Sum of electronic and thermal Free Energies=            0.174231

                     E (Thermal)             CV                S
                      KCal/Mol        Cal/Mol-Kelvin    Cal/Mol-Kelvin
 Total                   67.976             18.254             69.746
 Electronic               0.000              0.000              0.000
 Translational            0.889              2.981             38.571
 Rotational               0.889              2.981             25.274
 Vibrational             66.199             12.292              5.901
 Vibration     1          0.670              1.741              1.643
 Vibration     2          0.782              1.428              0.893
 Vibration     3          0.804              1.373              0.813
 Vibration     4          0.852              1.258              0.667
 Vibration     5          0.963              1.021              0.441

 Optimization completed.
    -- Stationary point found.
 Normal termination of Gaussian 16 at Wed Oct 21 14:46:53 2020.
