 Gaussian 16, Revision A.03,

 ----------------------------------------------------------------------
 #P Opt(TS,MaxCyc=50,NoEigenTest,MaxStep=10,AddRedundant) PM7 5D 7F Int
 egral=UltraFineGrid SCF=(NoSymm,XQC,MaxCyc=120) IOp(1/33=1)
 ----------------------------------------------------------------------

 TstMul:  Mul=     3
 TstMul:  ICh=     0
 TstMul:  Mul=     3
 Symbolic Z-matrix:
 Charge =  0 Multiplicity = 3

 SCF Done:  E(UPM7) =  0.732675792789E-01 A.U. after   20 cycles
 SCF Done:  E(UPM7) =  0.732803851504E-01 A.U. after   17 cycles
 SCF Done:  E(UPM7) =  0.728235510813E-01 A.U. after   17 cycles
 SCF Done:  E(UPM7) =  0.724439795186E-01 A.U. after   17 cycles
 SCF Done:  E(UPM7) =  0.718113619495E-01 A.U. after   16 cycles
 SCF Done:  E(UPM7) =  0.712659234889E-01 A.U. after   16 cycles
 SCF Done:  E(UPM7) =  0.708686109460E-01 A.U. after   16 cycles
 SCF Done:  E(UPM7) =  0.706760048347E-01 A.U. after   16 cycles
 SCF Done:  E(UPM7) =  0.706793986329E-01 A.U. after   14 cycles
 SCF Done:  E(UPM7) =  0.706805308755E-01 A.U. after   15 cycles
 SCF Done:  E(UPM7) =  0.706806563427E-01 A.U. after   14 cycles
 Optimization completed.
    -- Stationary point found.
 Normal termination of Gaussian 16 at Wed Oct 21 14:44:49 2020.
 Gaussian 16:  ES64L-G16RevA.03 25-Dec-2016

 ----------------------------------------------------------------------
 #P Freq PM7 5D 7F Integral=UltraFineGrid SCF=(NoSymm,XQC,MaxCyc=120) I
 Op(1/33=1) Geom=Check Guess=Read
 ----------------------------------------------------------------------

 TstMul:  Mul=     3
 TstMul:  ICh=     0
 TstMul:  Mul=     3
 Structure from the checkpoint file:  "MN_91_RKT17_BH76_PM7_SE.chk"
 Charge =  0 Multiplicity = 3

                         Standard orientation:
 ---------------------------------------------------------------------
 Center     Atomic      Atomic             Coordinates (Angstroms)
 Number     Number       Type             X           Y           Z
 ---------------------------------------------------------------------
      1         17           0        0.029272   -0.737115    0.000000
      2          1           0       -0.731806    0.448973    0.000000
      3          8           0        0.029272    1.510247    0.000000
 ---------------------------------------------------------------------

 SCF Done:  E(UPM7) =  0.706806563427E-01 A.U. after    2 cycles

 The electronic state is 3-A".
 Alpha  occ. eigenvalues --   -1.21471  -0.97798  -0.65499  -0.56688  -0.52287
 Alpha  occ. eigenvalues --   -0.44491  -0.43042  -0.42431
 Alpha virt. eigenvalues --    0.07321   2.56698   2.57772   2.57927   2.61709
 Alpha virt. eigenvalues --    2.61722
  Beta  occ. eigenvalues --   -0.95786  -0.87021  -0.58772  -0.43621  -0.42926
  Beta  occ. eigenvalues --   -0.41595
  Beta virt. eigenvalues --   -0.09248  -0.08226   0.08921   2.57434   2.58389
  Beta virt. eigenvalues --    2.58672   2.61893   2.61906

 Mulliken charges and spin densities:
               1          2
     1  Cl  -0.277312   0.262597
     2  H    0.286145  -0.060962
     3  O   -0.008832   1.798366
 Sum of Mulliken charges =  -0.00000   2.00000

 Dipole moment (field-independent basis, Debye):
    X=             -1.2235    Y=              1.8198    Z=             -0.0000  Tot=              2.1928
 N-N= 3.415368885558D+01 E-N=-2.489512472960D+01  KE=-3.433660555738D+01
  Exact polarizability:   5.638  -3.445  56.262  -0.000  -0.000   1.649
 Approx polarizability:   4.185  -1.792  24.620  -0.000  -0.000   1.303
 Leave Link  601 at Wed Oct 21 14:45:12 2020, MaxMem=  2684354560 cpu:               5.0 elap:               1.0
 (Enter /udrive/faculty/rpeverati/g16/g16/l701.exe)
 ... and contract with generalized density number  0.
 Compute integral second derivatives.
 R6Disp: Adding PM7 dispersion energy 2nd derivatives to the Hessian.
 Leave Link  701 at Wed Oct 21 14:45:13 2020, MaxMem=  2684354560 cpu:               5.5 elap:               0.9
 (Enter /udrive/faculty/rpeverati/g16/g16/l702.exe)

 ******    1 imaginary frequencies (negative Signs) ******

                      1                      2                      3
                     A'                     A'                     A'
 Frequencies --   -868.7371               298.0330              1819.9796
 Red. masses --      1.2035                 4.3312                 1.0814
 Frc consts  --      0.5351                 0.2267                 2.1104
 IR Inten    --    136.4217                68.6091               404.7985

 - Thermochemistry -
 -------------------
 Temperature   298.150 Kelvin.  Pressure   1.00000 Atm.
 Atom     1 has atomic number 17 and mass  34.96885

 Molecular mass:    51.97159 amu.
 Principal axes and moments of inertia in atomic units:
                           1         2         3
     Eigenvalues --     2.03579 198.76957 200.80536
           X           -0.00656   0.99998   0.00000
           Y            0.99998   0.00656   0.00000
           Z            0.00000   0.00000   1.00000
 This molecule is an asymmetric top.
 Rotational symmetry number  1.
 Rotational temperatures (Kelvin)     42.54562     0.43575     0.43133
 Rotational constants (GHZ):         886.50691     9.07957     8.98752
    1 imaginary frequencies ignored.
 Zero-point vibrational energy      12668.5 (Joules/Mol)
                                    3.02785 (Kcal/Mol)
 Warning -- explicit consideration of   1 degrees of freedom as
           vibrations may cause significant error
 Vibrational temperatures:    428.80  2618.54
          (Kelvin)

 Zero-point correction=                           0.004825 (Hartree/Particle)
 Thermal correction to Energy=                    0.008082
 Thermal correction to Enthalpy=                  0.009026
 Thermal correction to Gibbs Free Energy=        -0.019680
 Sum of electronic and zero-point Energies=              0.075506
 Sum of electronic and thermal Energies=                 0.078762
 Sum of electronic and thermal Enthalpies=               0.079706
 Sum of electronic and thermal Free Energies=            0.051000

                     E (Thermal)             CV                S
                      KCal/Mol        Cal/Mol-Kelvin    Cal/Mol-Kelvin
 Total                    5.071              7.663             60.417
 Electronic               0.000              0.000              2.183
 Translational            0.889              2.981             37.767
 Rotational               0.889              2.981             19.036
 Vibrational              3.294              1.701              1.431
 Vibration     1          0.691              1.677              1.428

 Optimization completed.
    -- Stationary point found.
 Normal termination of Gaussian 16 at Wed Oct 21 14:45:19 2020.
