 Gaussian 16, Revision A.03,

 ----------------------------------------------------------------------
 #P Opt(TS,MaxCyc=50,NoEigenTest,MaxStep=10,AddRedundant) PM7 5D 7F Int
 egral=UltraFineGrid SCF=(NoSymm,XQC,MaxCyc=120) IOp(1/33=1)
 ----------------------------------------------------------------------

 TstMul:  Mul=     3
 TstMul:  ICh=     0
 TstMul:  Mul=     3
 Symbolic Z-matrix:
 Charge =  0 Multiplicity = 3

 SCF Done:  E(UPM7) =  0.143434560079     A.U. after   16 cycles
 SCF Done:  E(UPM7) =  0.142702963686     A.U. after   12 cycles
 SCF Done:  E(UPM7) =  0.141797027847     A.U. after   14 cycles
 SCF Done:  E(UPM7) =  0.141445975064     A.U. after   13 cycles
 SCF Done:  E(UPM7) =  0.140879015447     A.U. after   14 cycles
 SCF Done:  E(UPM7) =  0.140292012981     A.U. after   14 cycles
 SCF Done:  E(UPM7) =  0.139969453792     A.U. after   14 cycles
 SCF Done:  E(UPM7) =  0.140302870041     A.U. after   13 cycles
 SCF Done:  E(UPM7) =  0.140616085443     A.U. after   14 cycles
 SCF Done:  E(UPM7) =  0.140900686953     A.U. after   14 cycles
 SCF Done:  E(UPM7) =  0.141071148911     A.U. after   13 cycles
 SCF Done:  E(UPM7) =  0.141070002136     A.U. after   11 cycles
 SCF Done:  E(UPM7) =  0.141068828664     A.U. after   13 cycles
 SCF Done:  E(UPM7) =  0.141066282850     A.U. after   13 cycles
 SCF Done:  E(UPM7) =  0.141098779296     A.U. after   15 cycles
 SCF Done:  E(UPM7) =  0.141066434407     A.U. after   14 cycles
 SCF Done:  E(UPM7) =  0.141059211072     A.U. after   13 cycles
 SCF Done:  E(UPM7) =  0.141058699982     A.U. after   11 cycles
 SCF Done:  E(UPM7) =  0.141058622830     A.U. after   11 cycles
 Optimization completed.
    -- Stationary point found.
 Normal termination of Gaussian 16 at Wed Oct 21 14:47:14 2020.
 Gaussian 16:  ES64L-G16RevA.03 25-Dec-2016

 ----------------------------------------------------------------------
 #P Freq PM7 5D 7F Integral=UltraFineGrid SCF=(NoSymm,XQC,MaxCyc=120) I
 Op(1/33=1) Geom=Check Guess=Read
 ----------------------------------------------------------------------

 TstMul:  Mul=     3
 TstMul:  ICh=     0
 TstMul:  Mul=     3
 Structure from the checkpoint file:  "MN_92_RKT18_BH76_PM7_SE.chk"
 Charge =  0 Multiplicity = 3

                         Standard orientation:
 ---------------------------------------------------------------------
 Center     Atomic      Atomic             Coordinates (Angstroms)
 Number     Number       Type             X           Y           Z
 ---------------------------------------------------------------------
      1          6           0       -1.160301   -0.019920    0.000028
      2          7           0        1.361355    0.119278    0.000025
      3          1           0       -1.297269   -0.566600    0.910914
      4          1           0       -1.292425   -0.592151   -0.895701
      5          1           0       -1.626023    0.947312   -0.014876
      6          1           0        0.149066    0.355488   -0.000642
      7          1           0        1.498971   -0.859469   -0.000042
 ---------------------------------------------------------------------

 SCF Done:  E(UPM7) =  0.141058622830     A.U. after    2 cycles

 The electronic state is 3-A.
 Alpha  occ. eigenvalues --   -1.23155  -0.90418  -0.60548  -0.53412  -0.53204
 Alpha  occ. eigenvalues --   -0.50172  -0.47128  -0.37249
 Alpha virt. eigenvalues --    0.16398   0.20728   0.20790   0.21012   0.24306
  Beta  occ. eigenvalues --   -1.10561  -0.88638  -0.55933  -0.52743  -0.52335
  Beta  occ. eigenvalues --   -0.41014
  Beta virt. eigenvalues --   -0.02501  -0.00001   0.19476   0.21222   0.21259
  Beta virt. eigenvalues --    0.22738   0.25055

 Mulliken charges and spin densities:
               1          2
     1  C   -0.539018   0.620663
     2  N   -0.375013   1.630038
     3  H    0.145726  -0.016013
     4  H    0.145547  -0.016023
     5  H    0.153666  -0.015579
     6  H    0.254921  -0.135815
     7  H    0.214172  -0.067272
 Sum of Mulliken charges =  -0.00000   2.00000

 Dipole moment (field-independent basis, Debye):
    X=             -1.1420    Y=             -1.5577    Z=             -0.0009  Tot=              1.9314
 N-N= 3.291920595860D+01 E-N=-3.471862761956D+01  KE=-2.167256122328D+01
  Exact polarizability:  43.397   0.414  10.865   0.003  -0.001   8.043
 Approx polarizability:  21.761  -0.026   7.001   0.002  -0.001   4.809
 Leave Link  601 at Wed Oct 21 14:47:22 2020, MaxMem=  2684354560 cpu:               4.2 elap:               0.5
 (Enter /udrive/faculty/rpeverati/g16/g16/l701.exe)
 ... and contract with generalized density number  0.
 Compute integral second derivatives.
 R6Disp: Adding PM7 dispersion energy 2nd derivatives to the Hessian.
 Leave Link  701 at Wed Oct 21 14:47:22 2020, MaxMem=  2684354560 cpu:               2.7 elap:               0.5
 (Enter /udrive/faculty/rpeverati/g16/g16/l702.exe)

 ******    1 imaginary frequencies (negative Signs) ******

                      1                      2                      3
                      A                      A                      A
 Frequencies --  -2209.3493                67.6164               223.0468
 Red. masses --      1.0707                 1.0279                 1.4960
 Frc consts  --      3.0792                 0.0028                 0.0439
 IR Inten    --   1621.8248                70.5675                17.8105

                      4                      5                      6
                      A                      A                      A
 Frequencies --    342.9163               624.0652               852.3701
 Red. masses --      1.0919                 1.6981                 1.2656
 Frc consts  --      0.0756                 0.3897                 0.5417
 IR Inten    --     82.6340                 9.4412                80.9690

                      7                      8                      9
                      A                      A                      A
 Frequencies --    965.4565              1248.1209              1291.4837
 Red. masses --      1.0589                 1.1607                 1.0771
 Frc consts  --      0.5815                 1.0653                 1.0585
 IR Inten    --     96.1005                63.6234                33.4581

                     10                     11                     12
                      A                      A                      A
 Frequencies --   1299.7583              1341.1200              2704.0431
 Red. masses --      1.1086                 1.0882                 1.1003
 Frc consts  --      1.1034                 1.1531                 4.7403
 IR Inten    --     84.0698               158.5524                81.1299

                     13                     14                     15
                      A                      A                      A
 Frequencies --   2709.2563              2777.3564              2781.1495
 Red. masses --      1.1010                 1.0466                 1.0396
 Frc consts  --      4.7613                 4.7566                 4.7376
 IR Inten    --     73.4935                62.6577                40.1265

 - Thermochemistry -
 -------------------
 Temperature   298.150 Kelvin.  Pressure   1.00000 Atm.
 Atom     1 has atomic number  6 and mass  12.00000

 Molecular mass:    31.04220 amu.
 Principal axes and moments of inertia in atomic units:
                           1         2         3
     Eigenvalues --    15.19611 185.35342 188.80044
           X            0.99968  -0.02535  -0.00000
           Y            0.02535   0.99968  -0.00001
           Z            0.00000   0.00001   1.00000
 This molecule is an asymmetric top.
 Rotational symmetry number  1.
 Rotational temperatures (Kelvin)      5.69974     0.46729     0.45876
 Rotational constants (GHZ):         118.76339     9.73676     9.55899
    1 imaginary frequencies ignored.
 Zero-point vibrational energy     115007.5 (Joules/Mol)
                                   27.48746 (Kcal/Mol)
 Warning -- explicit consideration of   3 degrees of freedom as
           vibrations may cause significant error
 Vibrational temperatures:     97.28   320.91   493.38   897.89  1226.37
          (Kelvin)           1389.08  1795.77  1858.16  1870.06  1929.57
                             3890.51  3898.02  3996.00  4001.45

 Zero-point correction=                           0.043804 (Hartree/Particle)
 Thermal correction to Energy=                    0.048630
 Thermal correction to Enthalpy=                  0.049574
 Thermal correction to Gibbs Free Energy=         0.017517
 Sum of electronic and zero-point Energies=              0.184863
 Sum of electronic and thermal Energies=                 0.189688
 Sum of electronic and thermal Enthalpies=               0.190633
 Sum of electronic and thermal Free Energies=            0.158575

                     E (Thermal)             CV                S
                      KCal/Mol        Cal/Mol-Kelvin    Cal/Mol-Kelvin
 Total                   30.516             13.901             67.470
 Electronic               0.000              0.000              2.183
 Translational            0.889              2.981             36.231
 Rotational               0.889              2.981             20.903
 Vibrational             28.738              7.939              8.153
 Vibration     1          0.598              1.970              4.222
 Vibration     2          0.649              1.806              1.934
 Vibration     3          0.722              1.590              1.199

                           ! Non-Optimized Parameters !
 Normal termination of Gaussian 16 at Wed Oct 21 14:47:26 2020.
