 Gaussian 16, Revision A.03,

 ----------------------------------------------------------------------
 #P Opt(TS,MaxCyc=50,NoEigenTest,MaxStep=10,AddRedundant) PM7 5D 7F Int
 egral=UltraFineGrid SCF=(NoSymm,XQC,MaxCyc=120) IOp(1/33=1)
 ----------------------------------------------------------------------

 TstMul:  Mul=     2
 TstMul:  ICh=     0
 TstMul:  Mul=     2
 Symbolic Z-matrix:
 Charge =  0 Multiplicity = 2

 SCF Done:  E(UPM7) =  0.790947908079E-01 A.U. after   15 cycles
 SCF Done:  E(UPM7) =  0.784575584925E-01 A.U. after   13 cycles
 SCF Done:  E(UPM7) =  0.774004499010E-01 A.U. after   13 cycles
 SCF Done:  E(UPM7) =  0.769220988697E-01 A.U. after   13 cycles
 SCF Done:  E(UPM7) =  0.763983149032E-01 A.U. after   13 cycles
 SCF Done:  E(UPM7) =  0.759490151960E-01 A.U. after   13 cycles
 SCF Done:  E(UPM7) =  0.754578186012E-01 A.U. after   13 cycles
 SCF Done:  E(UPM7) =  0.750583920316E-01 A.U. after   13 cycles
 SCF Done:  E(UPM7) =  0.750798167749E-01 A.U. after   14 cycles
 SCF Done:  E(UPM7) =  0.747496421101E-01 A.U. after   14 cycles
 SCF Done:  E(UPM7) =  0.754680987282E-01 A.U. after   13 cycles
 SCF Done:  E(UPM7) =  0.754677585434E-01 A.U. after   13 cycles
 SCF Done:  E(UPM7) =  0.754659384412E-01 A.U. after   13 cycles
 SCF Done:  E(UPM7) =  0.754627357727E-01 A.U. after   13 cycles
 SCF Done:  E(UPM7) =  0.754766636245E-01 A.U. after   14 cycles
 SCF Done:  E(UPM7) =  0.754647350821E-01 A.U. after   13 cycles
 SCF Done:  E(UPM7) =  0.754657157209E-01 A.U. after   14 cycles
 SCF Done:  E(UPM7) =  0.754625769766E-01 A.U. after   12 cycles
 SCF Done:  E(UPM7) =  0.754624817839E-01 A.U. after   11 cycles
 Optimization completed.
    -- Stationary point found.
 Normal termination of Gaussian 16 at Wed Oct 21 14:46:20 2020.
 Gaussian 16:  ES64L-G16RevA.03 25-Dec-2016

 ----------------------------------------------------------------------
 #P Freq PM7 5D 7F Integral=UltraFineGrid SCF=(NoSymm,XQC,MaxCyc=120) I
 Op(1/33=1) Geom=Check Guess=Read
 ----------------------------------------------------------------------

 TstMul:  Mul=     2
 TstMul:  ICh=     0
 TstMul:  Mul=     2
 Structure from the checkpoint file:  "MN_95_RKT21_BH76_PM7_SE.chk"
 Charge =  0 Multiplicity = 2

                         Standard orientation:
 ---------------------------------------------------------------------
 Center     Atomic      Atomic             Coordinates (Angstroms)
 Number     Number       Type             X           Y           Z
 ---------------------------------------------------------------------
      1          6           0       -1.211855   -0.000181    0.023276
      2          7           0        1.260443    0.000281   -0.120429
      3          1           0       -1.644423    0.817794   -0.521480
      4          1           0       -1.190529    0.146047    1.083315
      5          1           0       -1.566688   -0.966966   -0.278554
      6          1           0        0.031680    0.006670   -0.461540
      7          1           0        1.412683    0.808436    0.443385
      8          1           0        1.405312   -0.812863    0.438219
 ---------------------------------------------------------------------

 SCF Done:  E(UPM7) =  0.754624817838E-01 A.U. after    2 cycles

 The electronic state is 2-A.
 Alpha  occ. eigenvalues --   -1.28803  -0.89881  -0.60996  -0.57218  -0.52506
 Alpha  occ. eigenvalues --   -0.52281  -0.42893  -0.35857
 Alpha virt. eigenvalues --    0.16191   0.21230   0.21513   0.21822   0.23947
 Alpha virt. eigenvalues --    0.25377
  Beta  occ. eigenvalues --   -1.24009  -0.88885  -0.59728  -0.53843  -0.51722
  Beta  occ. eigenvalues --   -0.51355  -0.37649
  Beta virt. eigenvalues --   -0.02227   0.18062   0.21674   0.21907   0.22628
  Beta virt. eigenvalues --    0.24747   0.25949

 Mulliken charges and spin densities:
               1          2
     1  C   -0.572676   0.547760
     2  N   -0.605916   0.654394
     3  H    0.151332  -0.013231
     4  H    0.140166  -0.014546
     5  H    0.149634  -0.013600
     6  H    0.277217  -0.105374
     7  H    0.230029  -0.027692
     8  H    0.230213  -0.027713
 Sum of Mulliken charges =   0.00000   1.00000

 Dipole moment (field-independent basis, Debye):
    X=             -0.5709    Y=             -0.0002    Z=              1.8282  Tot=              1.9153
 N-N= 3.722690198786D+01 E-N=-4.154143353646D+01  KE=-2.288520088715D+01
  Exact polarizability:  49.073  -0.023  12.179  -0.870  -0.019   9.303
 Approx polarizability:  22.363  -0.011   7.889  -0.004  -0.012   5.942
 Leave Link  601 at Wed Oct 21 14:46:30 2020, MaxMem=  2684354560 cpu:               0.8 elap:               0.3
 (Enter /udrive/faculty/rpeverati/g16/g16/l701.exe)
 ... and contract with generalized density number  0.
 Compute integral second derivatives.
 R6Disp: Adding PM7 dispersion energy 2nd derivatives to the Hessian.
 Leave Link  701 at Wed Oct 21 14:46:30 2020, MaxMem=  2684354560 cpu:               1.5 elap:               0.4
 (Enter /udrive/faculty/rpeverati/g16/g16/l702.exe)

 ******    1 imaginary frequencies (negative Signs) ******

                      1                      2                      3
                      A                      A                      A
 Frequencies --  -2206.7257                19.2526               247.8855
 Red. masses --      1.0679                 1.0132                 1.8596
 Frc consts  --      3.0639                 0.0002                 0.0673
 IR Inten    --   1857.7178                32.0874                12.3402

                      4                      5                      6
                      A                      A                      A
 Frequencies --    290.3439               693.5373               779.5275
 Red. masses --      1.0216                 1.3820                 1.1176
 Frc consts  --      0.0507                 0.3916                 0.4001
 IR Inten    --     37.4678                22.8469                14.9813

                      7                      8                      9
                      A                      A                      A
 Frequencies --    923.8138              1250.3370              1252.3593
 Red. masses --      1.3001                 1.1439                 1.0376
 Frc consts  --      0.6537                 1.0536                 0.9588
 IR Inten    --    218.4198                53.2256                35.7469

                     10                     11                     12
                      A                      A                      A
 Frequencies --   1291.8498              1306.5686              1376.6972
 Red. masses --      1.0784                 1.1147                 1.1322
 Frc consts  --      1.0603                 1.1211                 1.2643
 IR Inten    --     30.0849               111.5742               280.9770

                     13                     14                     15
                      A                      A                      A
 Frequencies --   1575.2131              2705.2987              2709.9319
 Red. masses --      1.0776                 1.0997                 1.0992
 Frc consts  --      1.5754                 4.7421                 4.7562
 IR Inten    --     18.3227                76.0236                71.0491

                     16                     17                     18
                      A                      A                      A
 Frequencies --   2777.5316              2781.6824              2822.9398
 Red. masses --      1.0921                 1.0176                 1.0386
 Frc consts  --      4.9638                 4.6392                 4.8763
 IR Inten    --     59.5191                93.0000                39.6791

 - Thermochemistry -
 -------------------
 Temperature   298.150 Kelvin.  Pressure   1.00000 Atm.
 Atom     1 has atomic number  6 and mass  12.00000

 Molecular mass:    32.05002 amu.
 Principal axes and moments of inertia in atomic units:
                           1         2         3
     Eigenvalues --    18.81551 188.41487 190.75794
           X            0.99969  -0.00008   0.02470
           Y            0.00008   1.00000   0.00023
           Z           -0.02470  -0.00022   0.99969
 This molecule is an asymmetric top.
 Rotational symmetry number  1.
 Rotational temperatures (Kelvin)      4.60333     0.45970     0.45405
 Rotational constants (GHZ):          95.91774     9.57855     9.46090
    1 imaginary frequencies ignored.
 Zero-point vibrational energy     148365.5 (Joules/Mol)
                                   35.46020 (Kcal/Mol)
 Warning -- explicit consideration of   3 degrees of freedom as
           vibrations may cause significant error
 Vibrational temperatures:     27.70   356.65   417.74   997.85  1121.57
          (Kelvin)           1329.16  1798.96  1801.87  1858.68  1879.86
                             1980.76  2266.38  3892.32  3898.99  3996.25
                             4002.22  4061.58

 Zero-point correction=                           0.056509 (Hartree/Particle)
 Thermal correction to Energy=                    0.061476
 Thermal correction to Enthalpy=                  0.062420
 Thermal correction to Gibbs Free Energy=         0.029356
 Sum of electronic and zero-point Energies=              0.131972
 Sum of electronic and thermal Energies=                 0.136938
 Sum of electronic and thermal Enthalpies=               0.137882
 Sum of electronic and thermal Free Energies=            0.104819

                     E (Thermal)             CV                S
                      KCal/Mol        Cal/Mol-Kelvin    Cal/Mol-Kelvin
 Total                   38.576             14.220             69.588
 Electronic               0.000              0.000              1.377
 Translational            0.889              2.981             36.326
 Rotational               0.889              2.981             21.141
 Vibrational             36.799              8.258             10.743
 Vibration     1          0.593              1.986              6.710
 Vibration     2          0.662              1.766              1.746
 Vibration     3          0.686              1.692              1.472

                           ! Non-Optimized Parameters !
 Normal termination of Gaussian 16 at Wed Oct 21 14:46:33 2020.
