 Gaussian 16, Revision A.03,

 ----------------------------------------------------------------------
 #P Opt(TS,MaxCyc=50,NoEigenTest,MaxStep=10,AddRedundant) PM6 5D 7F Int
 egral=UltraFineGrid SCF=(NoSymm,XQC,MaxCyc=120) IOp(1/33=1)
 ----------------------------------------------------------------------

 TstMul:  Mul=     2
 TstMul:  ICh=     0
 TstMul:  Mul=     2
 Symbolic Z-matrix:
 Charge =  0 Multiplicity = 2

 SCF Done:  E(UPM6) =  0.804813381050E-01 A.U. after   17 cycles
 SCF Done:  E(UPM6) =  0.780571422654E-01 A.U. after   14 cycles
 SCF Done:  E(UPM6) =  0.768822442965E-01 A.U. after   14 cycles
 SCF Done:  E(UPM6) =  0.761867784712E-01 A.U. after   14 cycles
 SCF Done:  E(UPM6) =  0.762707294589E-01 A.U. after   14 cycles
 SCF Done:  E(UPM6) =  0.754704024958E-01 A.U. after   15 cycles
 SCF Done:  E(UPM6) =  0.762110867885E-01 A.U. after   15 cycles
 SCF Done:  E(UPM6) =  0.759279285702E-01 A.U. after   15 cycles
 SCF Done:  E(UPM6) =  0.751116084692E-01 A.U. after   14 cycles
 SCF Done:  E(UPM6) =  0.758999340251E-01 A.U. after   15 cycles
 SCF Done:  E(UPM6) =  0.769153315230E-01 A.U. after   12 cycles
 SCF Done:  E(UPM6) =  0.769152508666E-01 A.U. after   12 cycles
 SCF Done:  E(UPM6) =  0.769152007616E-01 A.U. after   11 cycles
 SCF Done:  E(UPM6) =  0.769152215187E-01 A.U. after   12 cycles
 SCF Done:  E(UPM6) =  0.769151511486E-01 A.U. after   11 cycles
 SCF Done:  E(UPM6) =  0.769358333031E-01 A.U. after   14 cycles
 SCF Done:  E(UPM6) =  0.769153523126E-01 A.U. after   13 cycles
 SCF Done:  E(UPM6) =  0.769151291511E-01 A.U. after   13 cycles
 SCF Done:  E(UPM6) =  0.769150976103E-01 A.U. after   12 cycles
 Optimization completed.
    -- Stationary point found.
 Normal termination of Gaussian 16 at Wed Oct 21 14:34:45 2020.
 Gaussian 16:  ES64L-G16RevA.03 25-Dec-2016

 ----------------------------------------------------------------------
 #P Freq PM6 5D 7F Integral=UltraFineGrid SCF=(NoSymm,XQC,MaxCyc=120) I
 Op(1/33=1) Geom=Check Guess=Read
 ----------------------------------------------------------------------

 TstMul:  Mul=     2
 TstMul:  ICh=     0
 TstMul:  Mul=     2
 Structure from the checkpoint file:  "MN_17_c3h7ts_BH76_PM6_SE.chk"
 Charge =  0 Multiplicity = 2

                         Standard orientation:
 ---------------------------------------------------------------------
 Center     Atomic      Atomic             Coordinates (Angstroms)
 Number     Number       Type             X           Y           Z
 ---------------------------------------------------------------------
      1          6           0       -0.455119    0.702332   -0.000018
      2          6           0       -1.247318   -0.395829   -0.000004
      3          1           0       -0.212428    1.241172   -0.909041
      4          1           0       -0.212466    1.241242    0.908968
      5          1           0       -1.576990   -0.882569    0.903821
      6          1           0       -1.576925   -0.882634   -0.903819
      7          6           0        1.492841   -0.265311    0.000017
      8          1           0        2.049079    0.640249   -0.001069
      9          1           0        1.393429   -0.803229   -0.911444
     10          1           0        1.393878   -0.801379    0.912618
 ---------------------------------------------------------------------

 SCF Done:  E(UPM6) =  0.769150976103E-01 A.U. after    2 cycles

 The electronic state is 2-A.
 Alpha  occ. eigenvalues --   -0.99317  -0.86545  -0.75202  -0.59040  -0.53777
 Alpha  occ. eigenvalues --   -0.51530  -0.50859  -0.44343  -0.41910  -0.32555
 Alpha virt. eigenvalues --    0.04913   0.20454   0.20883   0.22883   0.23294
 Alpha virt. eigenvalues --    0.23396   0.23984   0.24023   0.24834
  Beta  occ. eigenvalues --   -0.99068  -0.85417  -0.74930  -0.58884  -0.53297
  Beta  occ. eigenvalues --   -0.50476  -0.50065  -0.44239  -0.38792
  Beta virt. eigenvalues --    0.01806   0.07267   0.20463   0.21009   0.22869
  Beta virt. eigenvalues --    0.24045   0.24136   0.24145   0.24268   0.25565

 Mulliken charges and spin densities:
               1          2
     1  C   -0.224813  -0.391434
     2  C   -0.316175   0.536922
     3  H    0.141065   0.016570
     4  H    0.141063   0.016568
     5  H    0.143611  -0.018007
     6  H    0.143611  -0.018007
     7  C   -0.463736   0.947482
     8  H    0.142906  -0.029375
     9  H    0.146235  -0.030358
    10  H    0.146233  -0.030359
 Sum of Mulliken charges =   0.00000   1.00000

 Dipole moment (field-independent basis, Debye):
    X=              0.0503    Y=              0.1559    Z=              0.0000  Tot=              0.1638
 N-N= 5.453436800243D+01 E-N=-7.067510588351D+01  KE=-2.673736428138D+01
  Exact polarizability:  34.473   8.039  22.614  -0.001   0.000  17.148
 Approx polarizability:  19.399   6.246  15.807  -0.001   0.000  11.287
 Leave Link  601 at Wed Oct 21 14:35:16 2020, MaxMem=  2684354560 cpu:               1.0 elap:               0.7
 (Enter /udrive/faculty/rpeverati/g16/g16/l701.exe)
 ... and contract with generalized density number  0.
 Compute integral second derivatives.
 Leave Link  701 at Wed Oct 21 14:35:18 2020, MaxMem=  2684354560 cpu:               7.0 elap:               1.5
 (Enter /udrive/faculty/rpeverati/g16/g16/l702.exe)
 L702 exits ... SP integral derivatives will be done elsewhere.

 ******    1 imaginary frequencies (negative Signs) ******

                      1                      2                      3
                      A                      A                      A
 Frequencies --   -553.4920                80.0254               205.8423
 Red. masses --     11.4983                 1.0826                 2.9482
 Frc consts  --      2.0754                 0.0041                 0.0736
 IR Inten    --      4.5627                 0.0091                 0.5423

                      4                      5                      6
                      A                      A                      A
 Frequencies --    347.1018               575.0195               581.0219
 Red. masses --      1.0772                 1.0464                 1.0545
 Frc consts  --      0.0765                 0.2038                 0.2097
 IR Inten    --      0.1656                 2.6326                 2.0562

                      7                      8                      9
                      A                      A                      A
 Frequencies --    825.9966               870.3743               946.9935
 Red. masses --      1.0532                 1.0153                 1.0990
 Frc consts  --      0.4234                 0.4532                 0.5807
 IR Inten    --     17.2030                 2.4732                24.9218

                     10                     11                     12
                      A                      A                      A
 Frequencies --   1013.1829              1049.7300              1124.7077
 Red. masses --      1.2682                 1.2257                 1.5709
 Frc consts  --      0.7670                 0.7958                 1.1708
 IR Inten    --     38.1733               132.0738                 0.0765

                     13                     14                     15
                      A                      A                      A
 Frequencies --   1257.6361              1261.4262              1315.4106
 Red. masses --      1.1107                 1.1097                 1.0245
 Frc consts  --      1.0350                 1.0403                 1.0444
 IR Inten    --     42.3589                37.7223                 0.2179

                     16                     17                     18
                      A                      A                      A
 Frequencies --   1329.5419              1535.4852              2708.7145
 Red. masses --      1.1050                 6.6216                 1.0858
 Frc consts  --      1.1508                 9.1982                 4.6936
 IR Inten    --     25.2411                 1.8436                 1.8465

                     19                     20                     21
                      A                      A                      A
 Frequencies --   2742.6838              2749.1000              2749.3220
 Red. masses --      1.1052                 1.1059                 1.1062
 Frc consts  --      4.8981                 4.9241                 4.9266
 IR Inten    --     52.4742                47.0325               110.9091

                     22                     23                     24
                      A                      A                      A
 Frequencies --   2767.8086              2787.2309              2795.2870
 Red. masses --      1.0440                 1.0468                 1.0157
 Frc consts  --      4.7122                 4.7912                 4.6761
 IR Inten    --     23.8334               121.7351                13.5710

 - Thermochemistry -
 -------------------
 Temperature   298.150 Kelvin.  Pressure   1.00000 Atm.
 Atom     1 has atomic number  6 and mass  12.00000

 Molecular mass:    43.05478 amu.
 Principal axes and moments of inertia in atomic units:
                           1         2         3
     Eigenvalues --    71.34978 236.18356 271.90342
           X            0.99959   0.02849  -0.00000
           Y           -0.02849   0.99959   0.00001
           Z            0.00000  -0.00001   1.00000
 This molecule is an asymmetric top.
 Rotational symmetry number  1.
 Rotational temperatures (Kelvin)      1.21393     0.36672     0.31855
 Rotational constants (GHZ):          25.29428     7.64126     6.63743
    1 imaginary frequencies ignored.
 Zero-point vibrational energy     201090.1 (Joules/Mol)
                                   48.06169 (Kcal/Mol)
 Warning -- explicit consideration of   5 degrees of freedom as
           vibrations may cause significant error
 Vibrational temperatures:    115.14   296.16   499.40   827.32   835.96
          (Kelvin)           1188.42  1252.27  1362.51  1457.74  1510.33
                             1618.20  1809.46  1814.91  1892.58  1912.91
                             2209.22  3897.24  3946.11  3955.34  3955.66
                             3982.26  4010.20  4021.79

 Zero-point correction=                           0.076591 (Hartree/Particle)
 Thermal correction to Energy=                    0.081774
 Thermal correction to Enthalpy=                  0.082719
 Thermal correction to Gibbs Free Energy=         0.049193
 Sum of electronic and zero-point Energies=              0.153506
 Sum of electronic and thermal Energies=                 0.158689
 Sum of electronic and thermal Enthalpies=               0.159634
 Sum of electronic and thermal Free Energies=            0.126108

                     E (Thermal)             CV                S
                      KCal/Mol        Cal/Mol-Kelvin    Cal/Mol-Kelvin
 Total                   51.314             16.716             70.560
 Electronic               0.000              0.000              1.377
 Translational            0.889              2.981             37.206
 Rotational               0.889              2.981             23.042
 Vibrational             49.537             10.754              8.934
 Vibration     1          0.600              1.963              3.890
 Vibration     2          0.640              1.832              2.080
 Vibration     3          0.725              1.581              1.179
 Vibration     4          0.931              1.085              0.495
 Vibration     5          0.938              1.072              0.483

 Optimization completed.
    -- Stationary point found.
 Normal termination of Gaussian 16 at Wed Oct 21 14:35:28 2020.
