 Gaussian 16, Revision A.03,
 Gaussian 16:  ES64L-G16RevA.03 25-Dec-2016

 ----------------------------------------------------------------------
 #P Opt(MaxCyc=150) PM6 5D 7F Integral=UltraFineGrid SCF=(NoSymm,XQC,Ma
 xCyc=120) IOp(1/33=1)
 ----------------------------------------------------------------------

 TstMul:  Mul=     2
 TstMul:  ICh=     0
 TstMul:  Mul=     2
 Symbolic Z-matrix:
 Charge =  0 Multiplicity = 2

 SCF Done:  E(UPM6) =  0.266548245452E-01 A.U. after   13 cycles
 SCF Done:  E(UPM6) =  0.256996210487E-01 A.U. after   12 cycles
 SCF Done:  E(UPM6) =  0.255382557745E-01 A.U. after   11 cycles
 SCF Done:  E(UPM6) =  0.255341364794E-01 A.U. after   10 cycles
 SCF Done:  E(UPM6) =  0.255331008888E-01 A.U. after    9 cycles
 Optimization completed.
    -- Stationary point found.

                         Standard orientation:
 ---------------------------------------------------------------------
 Center     Atomic      Atomic             Coordinates (Angstroms)
 Number     Number       Type             X           Y           Z
 ---------------------------------------------------------------------
      1          6           0       -0.003448   -0.682172    0.000000
      2          6           0       -0.003448    0.783160   -0.000000
      3          1           0        1.032339   -1.065151    0.000000
      4          1           0       -0.497967   -1.103489    0.887045
      5          1           0       -0.497967   -1.103489   -0.887045
      6          1           0        0.002483    1.333100   -0.914825
      7          1           0        0.002483    1.333100    0.914825
 ---------------------------------------------------------------------

 The electronic state is 2-A'.
 Alpha  occ. eigenvalues --   -0.98083  -0.77515  -0.57157  -0.52282  -0.50380
 Alpha  occ. eigenvalues --   -0.44990  -0.33689
 Alpha virt. eigenvalues --    0.17471   0.20580   0.20864   0.23606   0.23826
 Alpha virt. eigenvalues --    0.24806
  Beta  occ. eigenvalues --   -0.97429  -0.76392  -0.56422  -0.50783  -0.49442
  Beta  occ. eigenvalues --   -0.44493
  Beta virt. eigenvalues --    0.04253   0.18808   0.20715   0.21283   0.24256
  Beta virt. eigenvalues --    0.24614   0.25217

 Mulliken charges and spin densities:
               1          2
     1  C   -0.447060  -0.051711
     2  C   -0.293220   1.058689
     3  H    0.163493   0.039400
     4  H    0.153891   0.011052
     5  H    0.153891   0.011052
     6  H    0.134503  -0.034242
     7  H    0.134503  -0.034242
 Sum of Mulliken charges =  -0.00000   1.00000

 Dipole moment (field-independent basis, Debye):
    X=              0.1032    Y=             -0.4551    Z=              0.0000  Tot=              0.4667
 N-N= 3.088769402315D+01 E-N=-3.572355458041D+01  KE=-1.811019537241D+01
 Leave Link  601 at Wed Oct 21 14:26:11 2020, MaxMem=  2684354560 cpu:               4.6 elap:               1.1
 (Enter /udrive/faculty/rpeverati/g16/g16/l9999.exe)

 Test job not archived.
 1\1\GINC-NODE06\FOpt\UPM6\ZDO\C2H5(2)\RPEVERATI\21-Oct-2020\0\\#P Opt(
 MaxCyc=150) PM6 5D 7F Integral=UltraFineGrid SCF=(NoSymm,XQC,MaxCyc=12
 0) IOp(1/33=1)\\TS search on BH76.\\0,2\C,-0.0101070012,-0.6805216847,
 0.\C,0.0303543113,0.7842519144,0.\H,1.0147092004,-1.0919549957,0.\H,-0
 .5160709822,-1.0880227566,0.8870451007\H,-0.5160709822,-1.0880227566,-

 Normal termination of Gaussian 16 at Wed Oct 21 14:26:13 2020.
