 Gaussian 16, Revision A.03,
 Gaussian 16:  ES64L-G16RevA.03 25-Dec-2016

 ----------------------------------------------------------------------
 #P Opt(MaxCyc=150) PM6 5D 7F Integral=UltraFineGrid SCF=(NoSymm,XQC,Ma
 xCyc=120) IOp(1/33=1)
 ----------------------------------------------------------------------

 TstMul:  Mul=     2
 TstMul:  ICh=     0
 TstMul:  Mul=     2
 Symbolic Z-matrix:
 Charge =  0 Multiplicity = 2

 SCF Done:  E(UPM6) =  0.207231153225E-01 A.U. after   13 cycles
 SCF Done:  E(UPM6) =  0.195384833816E-01 A.U. after   12 cycles
 SCF Done:  E(UPM6) =  0.193921845089E-01 A.U. after   11 cycles
 SCF Done:  E(UPM6) =  0.193804381227E-01 A.U. after   10 cycles
 SCF Done:  E(UPM6) =  0.193787622138E-01 A.U. after    9 cycles
 Optimization completed.
    -- Stationary point found.

                         Standard orientation:
 ---------------------------------------------------------------------
 Center     Atomic      Atomic             Coordinates (Angstroms)
 Number     Number       Type             X           Y           Z
 ---------------------------------------------------------------------
      1          6           0        1.191348   -0.285824    0.000048
      2          6           0       -0.072857    0.582515   -0.000053
      3          6           0       -1.282383   -0.261876    0.000001
      4          1           0        1.229668   -0.933669    0.883194
      5          1           0        1.229699   -0.933838   -0.882972
      6          1           0        2.093916    0.333943    0.000005
      7          1           0       -0.061821    1.252707   -0.885709
      8          1           0       -0.061838    1.252895    0.885456
      9          1           0       -1.723354   -0.590106    0.914487
     10          1           0       -1.722922   -0.590822   -0.914437
 ---------------------------------------------------------------------

 The electronic state is 2-A.
 Alpha  occ. eigenvalues --   -1.01980  -0.86276  -0.74275  -0.58873  -0.54658
 Alpha  occ. eigenvalues --   -0.49747  -0.49180  -0.45282  -0.42350  -0.34078
 Alpha virt. eigenvalues --    0.15795   0.17717   0.20213   0.21801   0.22082
 Alpha virt. eigenvalues --    0.23362   0.23899   0.24155   0.25154
  Beta  occ. eigenvalues --   -1.01594  -0.85484  -0.73595  -0.58381  -0.54045
  Beta  occ. eigenvalues --   -0.49168  -0.48117  -0.44715  -0.42137
  Beta virt. eigenvalues --    0.03757   0.16383   0.18777   0.20303   0.21909
  Beta virt. eigenvalues --    0.22180   0.23637   0.24634   0.24874   0.25218

 Mulliken charges and spin densities:
               1          2
     1  C   -0.446012   0.050193
     2  C   -0.217286  -0.062995
     3  C   -0.315483   1.065562
     4  H    0.148679  -0.001912
     5  H    0.148678  -0.001912
     6  H    0.143878  -0.000448
     7  H    0.132715   0.010079
     8  H    0.132708   0.010058
     9  H    0.136060  -0.034312
    10  H    0.136061  -0.034313
 Sum of Mulliken charges =   0.00000   1.00000

 Dipole moment (field-independent basis, Debye):
    X=              0.3683    Y=              0.0563    Z=             -0.0000  Tot=              0.3726
 N-N= 5.608438782974D+01 E-N=-7.384111770377D+01  KE=-2.674953883158D+01
 Leave Link  601 at Wed Oct 21 14:27:46 2020, MaxMem=  2684354560 cpu:               4.0 elap:               1.5
 (Enter /udrive/faculty/rpeverati/g16/g16/l9999.exe)

 Test job not archived.
 1\1\GINC-NODE62\FOpt\UPM6\ZDO\C3H7(2)\RPEVERATI\21-Oct-2020\0\\#P Opt(
 MaxCyc=150) PM6 5D 7F Integral=UltraFineGrid SCF=(NoSymm,XQC,MaxCyc=12
 0) IOp(1/33=1)\\TS search on BH76.\\0,2\C,1.1959896933,-0.2900762382,0
 .000051775\C,-0.0705995258,0.5747816012,-0.0000496094\C,-1.2777972498,
 -0.2729345659,0.0000050728\H,1.2360924425,-0.937813159,0.8831978215\H,

 Normal termination of Gaussian 16 at Wed Oct 21 14:27:49 2020.
