 Gaussian 16, Revision A.03,
 Gaussian 16:  ES64L-G16RevA.03 25-Dec-2016

 ----------------------------------------------------------------------
 #P Opt(MaxCyc=150) PM6 5D 7F Integral=UltraFineGrid SCF=(NoSymm,XQC,Ma
 xCyc=120) IOp(1/33=1)
 ----------------------------------------------------------------------

 TstMul:  Mul=     1
 TstMul:  ICh=     0
 TstMul:  Mul=     1
 Symbolic Z-matrix:
 Charge =  0 Multiplicity = 1

 SCF Done:  E(RPM6) =  0.326738859088E-01 A.U. after   13 cycles
 SCF Done:  E(RPM6) =  0.314579883543E-01 A.U. after   11 cycles
 SCF Done:  E(RPM6) =  0.313160246436E-01 A.U. after   11 cycles
 SCF Done:  E(RPM6) =  0.313049972427E-01 A.U. after   10 cycles
 SCF Done:  E(RPM6) =  0.313037342334E-01 A.U. after    8 cycles
 Optimization completed.
    -- Stationary point found.

                         Standard orientation:
 ---------------------------------------------------------------------
 Center     Atomic      Atomic             Coordinates (Angstroms)
 Number     Number       Type             X           Y           Z
 ---------------------------------------------------------------------
      1          6           0       -2.009146   -0.626843    0.000004
      2          6           0       -1.238610    0.648140    0.000049
      3          6           0        0.097743    0.761468    0.000029
      4          6           0        1.036289   -0.363250   -0.000041
      5          6           0        2.362668   -0.209574   -0.000038
      6          1           0       -2.657264   -0.694917    0.885640
      7          1           0       -2.657309   -0.694829   -0.885605
      8          1           0       -1.366459   -1.518760   -0.000056
      9          1           0       -1.864342    1.544993    0.000103
     10          1           0        0.558577    1.753508    0.000067
     11          1           0        0.583358   -1.360023   -0.000098
     12          1           0        3.052623   -1.039979   -0.000089
     13          1           0        2.857155    0.750358    0.000016
 ---------------------------------------------------------------------

 The electronic state is 1-A.
 Alpha  occ. eigenvalues --   -1.04178  -0.97821  -0.88750  -0.76468  -0.67758
 Alpha  occ. eigenvalues --   -0.60248  -0.56091  -0.52748  -0.50353  -0.47908
 Alpha  occ. eigenvalues --   -0.46796  -0.42408  -0.42252  -0.33673
 Alpha virt. eigenvalues --    0.01559   0.07899   0.15532   0.17244   0.19793
 Alpha virt. eigenvalues --    0.20048   0.20701   0.21601   0.22608   0.22741
 Alpha virt. eigenvalues --    0.22947   0.23728   0.24480   0.24946

 Mulliken charges:
               1
     1  C   -0.478626
     2  C   -0.070412
     3  C   -0.222563
     4  C   -0.066990
     5  C   -0.363947
     6  H    0.161645
     7  H    0.161645
     8  H    0.159557
     9  H    0.132202
    10  H    0.151062
    11  H    0.134443
    12  H    0.150082
    13  H    0.151901
 Sum of Mulliken charges =   0.00000

 Dipole moment (field-independent basis, Debye):
    X=             -0.8369    Y=             -0.2477    Z=              0.0000  Tot=              0.8728
 N-N= 1.017024893309D+02 E-N=-1.440657569739D+02  KE=-4.192755841419D+01
 Leave Link  601 at Wed Oct 21 14:27:17 2020, MaxMem=  2684354560 cpu:               2.1 elap:               0.8
 (Enter /udrive/faculty/rpeverati/g16/g16/l9999.exe)

 Test job not archived.
 1\1\GINC-NODE59\FOpt\RPM6\ZDO\C5H8\RPEVERATI\21-Oct-2020\0\\#P Opt(Max
 Cyc=150) PM6 5D 7F Integral=UltraFineGrid SCF=(NoSymm,XQC,MaxCyc=120)
 IOp(1/33=1)\\TS search on BH76.\\0,1\C,-2.0166560775,-0.6073355521,0.0
 000048387\C,-1.2384818435,0.662999934,0.0000494293\C,0.09852677,0.7683
 056641,0.0000294101\C,1.0303058375,-0.3620255155,-0.0000407235\C,2.357

 Normal termination of Gaussian 16 at Wed Oct 21 14:27:19 2020.
