 Gaussian 16, Revision A.03,
 Gaussian 16:  ES64L-G16RevA.03 25-Dec-2016

 ----------------------------------------------------------------------
 #P Opt(MaxCyc=150) PM6 5D 7F Integral=UltraFineGrid SCF=(NoSymm,XQC,Ma
 xCyc=120) IOp(1/33=1)
 ----------------------------------------------------------------------

 TstMul:  Mul=     1
 TstMul:  ICh=     0
 TstMul:  Mul=     1
 Symbolic Z-matrix:
 Charge =  0 Multiplicity = 1

 SCF Done:  E(RPM6) = -0.237559447457E-01 A.U. after   12 cycles
 SCF Done:  E(RPM6) = -0.239806095010E-01 A.U. after    9 cycles
 SCF Done:  E(RPM6) = -0.240023223622E-01 A.U. after    9 cycles
 SCF Done:  E(RPM6) = -0.240046791880E-01 A.U. after    8 cycles
 Optimization completed.
    -- Stationary point found.

                         Standard orientation:
 ---------------------------------------------------------------------
 Center     Atomic      Atomic             Coordinates (Angstroms)
 Number     Number       Type             X           Y           Z
 ---------------------------------------------------------------------
      1          6           0        0.000000    0.000000   -1.121685
      2         17           0        0.000000    0.000000    0.657291
      3          1           0        0.000000    1.035729   -1.481277
      4          1           0        0.896968   -0.517865   -1.481277
      5          1           0       -0.896968   -0.517865   -1.481277
 ---------------------------------------------------------------------

 The electronic state is 1-A1.
 Alpha  occ. eigenvalues --   -0.99878  -0.88754  -0.55841  -0.55841  -0.53305
 Alpha  occ. eigenvalues --   -0.39319  -0.39319
 Alpha virt. eigenvalues --    0.03086   0.18275   0.18275   0.20634   3.27074
 Alpha virt. eigenvalues --    3.27074   3.27186   3.28412   3.28412

 Mulliken charges:
               1
     1  C   -0.371411
     2  Cl  -0.134695
     3  H    0.168702
     4  H    0.168702
     5  H    0.168702
 Sum of Mulliken charges =  -0.00000

 Dipole moment (field-independent basis, Debye):
    X=             -0.0000    Y=             -0.0028    Z=             -1.9254  Tot=              1.9254
 N-N= 3.219882049434D+01 E-N=-3.147898625715D+01  KE=-2.432152017957D+01
 Leave Link  601 at Wed Oct 21 14:27:08 2020, MaxMem=  2684354560 cpu:               3.0 elap:               0.9
 (Enter /udrive/faculty/rpeverati/g16/g16/l9999.exe)

 Test job not archived.
 1\1\GINC-NODE39\FOpt\RPM6\ZDO\C1H3Cl1\RPEVERATI\21-Oct-2020\0\\#P Opt(
 MaxCyc=150) PM6 5D 7F Integral=UltraFineGrid SCF=(NoSymm,XQC,MaxCyc=12
 0) IOp(1/33=1)\\TS search on BH76.\\0,1\C,0.,0.,-0.1399945516\Cl,0.,0.
 ,1.638980898\H,-0.5178646884,-0.8969679518,-0.4995871949\H,-0.51786468
 84,0.8969679518,-0.4995871949\H,1.0357293768,0.,-0.4995871949\\Version

 Normal termination of Gaussian 16 at Wed Oct 21 14:27:10 2020.
