 Gaussian 16, Revision A.03,
 Gaussian 16:  ES64L-G16RevA.03 25-Dec-2016

 ----------------------------------------------------------------------
 #P Opt(MaxCyc=150) PM6 5D 7F Integral=UltraFineGrid SCF=(NoSymm,XQC,Ma
 xCyc=120) IOp(1/33=1)
 ----------------------------------------------------------------------

 TstMul:  Mul=     1
 TstMul:  ICh=     0
 TstMul:  Mul=     1
 Symbolic Z-matrix:
 Charge =  0 Multiplicity = 1

 SCF Done:  E(RPM6) =  0.257185736794E-01 A.U. after    9 cycles
 SCF Done:  E(RPM6) =  0.252400459749E-01 A.U. after    8 cycles
 SCF Done:  E(RPM6) =  0.251141447909E-01 A.U. after    7 cycles
 SCF Done:  E(RPM6) =  0.251113639144E-01 A.U. after    7 cycles
 Optimization completed.
    -- Stationary point found.

                         Standard orientation:
 ---------------------------------------------------------------------
 Center     Atomic      Atomic             Coordinates (Angstroms)
 Number     Number       Type             X           Y           Z
 ---------------------------------------------------------------------
      1          6           0        0.000000    0.000000    0.663794
      2          6           0        0.000000    0.000000   -0.663794
      3          1           0       -0.000000    0.901919    1.260767
      4          1           0       -0.000000   -0.901919    1.260767
      5          1           0        0.000000    0.901919   -1.260767
      6          1           0       -0.000000   -0.901919   -1.260767
 ---------------------------------------------------------------------

 The electronic state is 1-AG.
 Alpha  occ. eigenvalues --   -0.98709  -0.75705  -0.58854  -0.53154  -0.44266
 Alpha  occ. eigenvalues --   -0.39223
 Alpha virt. eigenvalues --    0.04251   0.20069   0.21095   0.23158   0.23859
 Alpha virt. eigenvalues --    0.23914

 Mulliken charges:
               1
     1  C   -0.286375
     2  C   -0.286375
     3  H    0.143187
     4  H    0.143187
     5  H    0.143187
     6  H    0.143187
 Sum of Mulliken charges =   0.00000

 Dipole moment (field-independent basis, Debye):
    X=             -0.0000    Y=              0.0000    Z=             -0.0000  Tot=              0.0000
 N-N= 2.749662109278D+01 E-N=-3.019298271754D+01  KE=-1.735180097756D+01
 Leave Link  601 at Wed Oct 21 14:25:55 2020, MaxMem=  2684354560 cpu:               4.4 elap:               1.0
 (Enter /udrive/faculty/rpeverati/g16/g16/l9999.exe)

 Test job not archived.
 1\1\GINC-NODE39\FOpt\RPM6\ZDO\C2H4\RPEVERATI\21-Oct-2020\0\\#P Opt(Max
 Cyc=150) PM6 5D 7F Integral=UltraFineGrid SCF=(NoSymm,XQC,MaxCyc=120)
 IOp(1/33=1)\\TS search on BH76.\\0,1\C,0.,0.,0.6637943264\C,0.,0.,-0.6
 637943264\H,0.,0.9019187391,1.2607667737\H,0.,-0.9019187391,1.26076677
 37\H,0.,0.9019187391,-1.2607667737\H,0.,-0.9019187391,-1.2607667737\\V

 Normal termination of Gaussian 16 at Wed Oct 21 14:25:57 2020.
