 Gaussian 16, Revision A.03,

 ----------------------------------------------------------------------
 #P Opt(TS,MaxCyc=50,NoEigenTest,MaxStep=10,AddRedundant) PM6 5D 7F Int
 egral=UltraFineGrid SCF=(NoSymm,XQC,MaxCyc=120) IOp(1/33=1)
 ----------------------------------------------------------------------

 TstMul:  Mul=     2
 TstMul:  ICh=     0
 TstMul:  Mul=     2
 Symbolic Z-matrix:
 Charge =  0 Multiplicity = 2

 SCF Done:  E(UPM6) =  0.107677193828     A.U. after   17 cycles
 SCF Done:  E(UPM6) =  0.106719444522     A.U. after   14 cycles
 SCF Done:  E(UPM6) =  0.106586876732     A.U. after   14 cycles
 SCF Done:  E(UPM6) =  0.106841835246     A.U. after   16 cycles
 SCF Done:  E(UPM6) =  0.106455368193     A.U. after   15 cycles
 SCF Done:  E(UPM6) =  0.106540144124     A.U. after   15 cycles
 SCF Done:  E(UPM6) =  0.106625058813     A.U. after   15 cycles
 SCF Done:  E(UPM6) =  0.106811508817     A.U. after   15 cycles
 SCF Done:  E(UPM6) =  0.106945527471     A.U. after   14 cycles
 SCF Done:  E(UPM6) =  0.107026098519     A.U. after   14 cycles
 SCF Done:  E(UPM6) =  0.107079613111     A.U. after   13 cycles
 SCF Done:  E(UPM6) =  0.107076309692     A.U. after   13 cycles
 SCF Done:  E(UPM6) =  0.107071436561     A.U. after   13 cycles
 SCF Done:  E(UPM6) =  0.107068330864     A.U. after   13 cycles
 SCF Done:  E(UPM6) =  0.107067396888     A.U. after   13 cycles
 SCF Done:  E(UPM6) =  0.107067242603     A.U. after   13 cycles
 SCF Done:  E(UPM6) =  0.107066906094     A.U. after   12 cycles
 SCF Done:  E(UPM6) =  0.107066512129     A.U. after   13 cycles
 SCF Done:  E(UPM6) =  0.107066447004     A.U. after   12 cycles
 Optimization completed.
    -- Stationary point found.
 Normal termination of Gaussian 16 at Wed Oct 21 14:42:58 2020.
 Gaussian 16:  ES64L-G16RevA.03 25-Dec-2016

 ----------------------------------------------------------------------
 #P Freq PM6 5D 7F Integral=UltraFineGrid SCF=(NoSymm,XQC,MaxCyc=120) I
 Op(1/33=1) Geom=Check Guess=Read
 ----------------------------------------------------------------------

 TstMul:  Mul=     2
 TstMul:  ICh=     0
 TstMul:  Mul=     2
 Structure from the checkpoint file:  "MN_13_c2h5ts_BH76_PM6_SE.chk"
 Charge =  0 Multiplicity = 2

                         Standard orientation:
 ---------------------------------------------------------------------
 Center     Atomic      Atomic             Coordinates (Angstroms)
 Number     Number       Type             X           Y           Z
 ---------------------------------------------------------------------
      1          6           0       -0.663695   -0.139005   -0.000557
      2          6           0        0.664504   -0.137233   -0.000557
      3          1           0       -0.006563    2.212731    0.009061
      4          1           0       -1.260411   -0.134378   -0.902988
      5          1           0       -1.260528   -0.146593    0.901740
      6          1           0        1.261333   -0.142863    0.901766
      7          1           0        1.261314   -0.131469   -0.902896
 ---------------------------------------------------------------------

 SCF Done:  E(UPM6) =  0.107066447004     A.U. after    2 cycles

 The electronic state is 2-A.
 Alpha  occ. eigenvalues --   -0.98971  -0.75809  -0.58957  -0.53260  -0.44380
 Alpha  occ. eigenvalues --   -0.42684  -0.36693
 Alpha virt. eigenvalues --    0.04113   0.19965   0.20966   0.23003   0.23747
 Alpha virt. eigenvalues --    0.23788
  Beta  occ. eigenvalues --   -0.98893  -0.75795  -0.58948  -0.53247  -0.44375
  Beta  occ. eigenvalues --   -0.39508
  Beta virt. eigenvalues --    0.04167   0.12972   0.19968   0.20971   0.23010
  Beta virt. eigenvalues --    0.23752   0.23797

 Mulliken charges and spin densities:
               1          2
     1  C   -0.282264   0.005123
     2  C   -0.282317   0.006139
     3  H   -0.010467   0.989432
     4  H    0.143763  -0.000155
     5  H    0.143764  -0.000156
     6  H    0.143759  -0.000191
     7  H    0.143763  -0.000191
 Sum of Mulliken charges =   0.00000   1.00000

 Dipole moment (field-independent basis, Debye):
    X=              0.0002    Y=             -0.1066    Z=             -0.0005  Tot=              0.1066
 N-N= 3.029479840597D+01 E-N=-3.479810169959D+01  KE=-1.776217513110D+01
  Exact polarizability:  29.035   0.029   4.407   0.000  -0.051  11.805
 Approx polarizability:  20.737   0.022   2.760   0.000  -0.033   7.625
 Leave Link  601 at Wed Oct 21 14:43:27 2020, MaxMem=  2684354560 cpu:               2.0 elap:               0.8
 (Enter /udrive/faculty/rpeverati/g16/g16/l701.exe)
 ... and contract with generalized density number  0.
 Compute integral second derivatives.
 Leave Link  701 at Wed Oct 21 14:43:29 2020, MaxMem=  2684354560 cpu:               4.7 elap:               1.1
 (Enter /udrive/faculty/rpeverati/g16/g16/l702.exe)
 L702 exits ... SP integral derivatives will be done elsewhere.

 ******    1 imaginary frequencies (negative Signs) ******

                      1                      2                      3
                      A                      A                      A
 Frequencies --    -52.5751                88.5271               301.4438
 Red. masses --      1.2017                 1.0184                 1.0367
 Frc consts  --      0.0020                 0.0047                 0.0555
 IR Inten    --      0.0028                 0.0240                 4.9899

                      4                      5                      6
                      A                      A                      A
 Frequencies --    837.5215               870.3175              1047.9354
 Red. masses --      1.0540                 1.0078                 1.5318
 Frc consts  --      0.4356                 0.4498                 0.9911
 IR Inten    --     22.4721                 0.0000                 0.0047

                      7                      8                      9
                      A                      A                      A
 Frequencies --   1068.5531              1131.0059              1323.3926
 Red. masses --      1.1600                 1.5959                 1.0103
 Frc consts  --      0.7804                 1.2028                 1.0425
 IR Inten    --    146.7298                 0.0000                 0.0004

                     10                     11                     12
                      A                      A                      A
 Frequencies --   1333.2164              1774.5187              2708.7756
 Red. masses --      1.1038                 7.6140                 1.0829
 Frc consts  --      1.1559                14.1261                 4.6816
 IR Inten    --     26.2267                 0.0279                 0.0000

                     13                     14                     15
                      A                      A                      A
 Frequencies --   2742.6521              2783.1569              2788.0909
 Red. masses --      1.1050                 1.0562                 1.0550
 Frc consts  --      4.8972                 4.8204                 4.8320
 IR Inten    --    111.3277                 0.0135               138.5756

 - Thermochemistry -
 -------------------
 Temperature   298.150 Kelvin.  Pressure   1.00000 Atm.
 Atom     1 has atomic number  6 and mass  12.00000

 Molecular mass:    29.03913 amu.
 Principal axes and moments of inertia in atomic units:
                           1         2         3
     Eigenvalues --    30.92389  72.40844  79.88830
           X            1.00000  -0.00057   0.00000
           Y            0.00057   1.00000  -0.00026
           Z           -0.00000   0.00026   1.00000
 This molecule is an asymmetric top.
 Rotational symmetry number  1.
 Rotational temperatures (Kelvin)      2.80087     1.19619     1.08419
 Rotational constants (GHZ):          58.36074    24.92446    22.59081
    1 imaginary frequencies ignored.
 Zero-point vibrational energy     124406.3 (Joules/Mol)
                                   29.73382 (Kcal/Mol)
 Warning -- explicit consideration of   2 degrees of freedom as
           vibrations may cause significant error
 Vibrational temperatures:    127.37   433.71  1205.01  1252.19  1507.75
          (Kelvin)           1537.41  1627.27  1904.07  1918.20  2553.14
                             3897.32  3946.06  4004.34  4011.44

 Zero-point correction=                           0.047384 (Hartree/Particle)
 Thermal correction to Energy=                    0.051623
 Thermal correction to Enthalpy=                  0.052567
 Thermal correction to Gibbs Free Energy=         0.022671
 Sum of electronic and zero-point Energies=              0.154450
 Sum of electronic and thermal Energies=                 0.158689
 Sum of electronic and thermal Enthalpies=               0.159633
 Sum of electronic and thermal Free Energies=            0.129737

                     E (Thermal)             CV                S
                      KCal/Mol        Cal/Mol-Kelvin    Cal/Mol-Kelvin
 Total                   32.394             11.912             62.922
 Electronic               0.000              0.000              1.377
 Translational            0.889              2.981             36.032
 Rotational               0.889              2.981             19.820
 Vibrational             30.616              5.951              5.692
 Vibration     1          0.601              1.957              3.692
 Vibration     2          0.693              1.671              1.409

                           ! Non-Optimized Parameters !
 Normal termination of Gaussian 16 at Wed Oct 21 14:43:37 2020.
