 Gaussian 16, Revision A.03,
 Gaussian 16:  ES64L-G16RevA.03 25-Dec-2016

 ----------------------------------------------------------------------
 #P Opt(MaxCyc=150) PM6 5D 7F Integral=UltraFineGrid SCF=(NoSymm,XQC,Ma
 xCyc=120) IOp(1/33=1)
 ----------------------------------------------------------------------

 TstMul:  Mul=     2
 TstMul:  ICh=     0
 TstMul:  Mul=     2
 Symbolic Z-matrix:
 Charge =  0 Multiplicity = 2

 SCF Done:  E(UPM6) =  0.266416198442E-01 A.U. after   13 cycles
 SCF Done:  E(UPM6) =  0.256919144074E-01 A.U. after   12 cycles
 SCF Done:  E(UPM6) =  0.255373757798E-01 A.U. after   11 cycles
 SCF Done:  E(UPM6) =  0.255338785816E-01 A.U. after   10 cycles
 SCF Done:  E(UPM6) =  0.255331016265E-01 A.U. after    9 cycles
 Optimization completed.
    -- Stationary point found.

                         Standard orientation:
 ---------------------------------------------------------------------
 Center     Atomic      Atomic             Coordinates (Angstroms)
 Number     Number       Type             X           Y           Z
 ---------------------------------------------------------------------
      1          6           0        0.783132    0.000076   -0.003706
      2          6           0       -0.682163    0.000145   -0.003225
      3          1           0       -1.104040    0.893128   -0.486305
      4          1           0        1.332912   -0.914882    0.002035
      5          1           0       -1.064839   -0.013456    1.032587
      6          1           0       -1.103238   -0.880818   -0.508822
      7          1           0        1.333391    0.914707    0.002092
 ---------------------------------------------------------------------

 The electronic state is 2-A.
 Alpha  occ. eigenvalues --   -0.98084  -0.77515  -0.57156  -0.52282  -0.50381
 Alpha  occ. eigenvalues --   -0.44989  -0.33688
 Alpha virt. eigenvalues --    0.17472   0.20580   0.20864   0.23606   0.23825
 Alpha virt. eigenvalues --    0.24806
  Beta  occ. eigenvalues --   -0.97430  -0.76392  -0.56422  -0.50782  -0.49443
  Beta  occ. eigenvalues --   -0.44493
  Beta virt. eigenvalues --    0.04253   0.18809   0.20714   0.21283   0.24256
  Beta virt. eigenvalues --    0.24613   0.25218

 Mulliken charges and spin densities:
               1          2
     1  C   -0.293229   1.058681
     2  C   -0.447051  -0.051710
     3  H    0.153757   0.010669
     4  H    0.134476  -0.034247
     5  H    0.163493   0.039401
     6  H    0.154029   0.011446
     7  H    0.134526  -0.034239
 Sum of Mulliken charges =  -0.00000   1.00000

 Dipole moment (field-independent basis, Debye):
    X=             -0.4551    Y=             -0.0034    Z=              0.1033  Tot=              0.4667
 N-N= 3.088777640933D+01 E-N=-3.572370020563D+01  KE=-1.811020193517D+01
 Leave Link  601 at Wed Oct 21 14:27:16 2020, MaxMem=  2684354560 cpu:               3.3 elap:               1.1
 (Enter /udrive/faculty/rpeverati/g16/g16/l9999.exe)

 Test job not archived.
 1\1\GINC-NODE60\FOpt\UPM6\ZDO\C2H5(2)\RPEVERATI\21-Oct-2020\0\\#P Opt(
 MaxCyc=150) PM6 5D 7F Integral=UltraFineGrid SCF=(NoSymm,XQC,MaxCyc=12
 0) IOp(1/33=1)\\TS search on BH76.\\0,2\C,0.7844103358,-0.0001264566,0
 .0192527032\C,-0.6807564925,0.0003445527,-0.0001118247\H,-1.0958080189
 ,0.8934906765,-0.4887714012\H,1.3338125861,-0.9152354965,0.0323475249\

 Normal termination of Gaussian 16 at Wed Oct 21 14:27:19 2020.
