 Gaussian 16, Revision A.03,
 Gaussian 16:  ES64L-G16RevA.03 25-Dec-2016

 ----------------------------------------------------------------------
 #P Opt(MaxCyc=150) PM6 5D 7F Integral=UltraFineGrid SCF=(NoSymm,XQC,Ma
 xCyc=120) IOp(1/33=1)
 ----------------------------------------------------------------------

 TstMul:  Mul=     1
 TstMul:  ICh=     0
 TstMul:  Mul=     1
 Symbolic Z-matrix:
 Charge =  0 Multiplicity = 1

 SCF Done:  E(RPM6) = -0.250587141232E-01 A.U. after   10 cycles
 SCF Done:  E(RPM6) = -0.251697257408E-01 A.U. after    9 cycles
 SCF Done:  E(RPM6) = -0.251796129127E-01 A.U. after    7 cycles
 Optimization completed.
    -- Stationary point found.

                         Standard orientation:
 ---------------------------------------------------------------------
 Center     Atomic      Atomic             Coordinates (Angstroms)
 Number     Number       Type             X           Y           Z
 ---------------------------------------------------------------------
      1          6           0       -0.760479    0.000000    0.000000
      2          6           0        0.760479   -0.000000   -0.000000
      3          1           0        1.160470   -0.993404   -0.234999
      4          1           0       -1.160470   -0.701010    0.742065
      5          1           0        1.160471    0.293187    0.977813
      6          1           0        1.160470    0.700217   -0.742814
      7          1           0       -1.160471    0.993152    0.236060
      8          1           0       -1.160470   -0.292142   -0.978125
 ---------------------------------------------------------------------

 The electronic state is 1-A.
 Alpha  occ. eigenvalues --   -0.99402  -0.79720  -0.54998  -0.54998  -0.48040
 Alpha  occ. eigenvalues --   -0.43815  -0.43815
 Alpha virt. eigenvalues --    0.16798   0.21041   0.21041   0.22931   0.22931
 Alpha virt. eigenvalues --    0.25422   0.25456

 Mulliken charges:
               1
     1  C   -0.423003
     2  C   -0.423004
     3  H    0.141001
     4  H    0.141001
     5  H    0.141001
     6  H    0.141001
     7  H    0.141001
     8  H    0.141001
 Sum of Mulliken charges =   0.00000

 Dipole moment (field-independent basis, Debye):
    X=             -0.0000    Y=              0.0000    Z=              0.0000  Tot=              0.0000
 N-N= 3.474786554286D+01 E-N=-4.211468209142D+01  KE=-1.893568754535D+01
 Leave Link  601 at Wed Oct 21 14:26:18 2020, MaxMem=  2684354560 cpu:               4.3 elap:               1.1
 (Enter /udrive/faculty/rpeverati/g16/g16/l9999.exe)

 Test job not archived.
 1\1\GINC-NODE23\FOpt\RPM6\ZDO\C2H6\RPEVERATI\21-Oct-2020\0\\#P Opt(Max
 Cyc=150) PM6 5D 7F Integral=UltraFineGrid SCF=(NoSymm,XQC,MaxCyc=120)
 IOp(1/33=1)\\TS search on BH76.\\0,1\C,-0.7604787642,-0.0000003181,0.0
 00000468\C,0.7604787956,-0.000000285,0.0000012603\H,1.1604708791,-0.44
 53935715,-0.9185304488\H,-1.1604703462,-1.018089778,-0.0746320425\H,1.

 Normal termination of Gaussian 16 at Wed Oct 21 14:26:20 2020.
