 Gaussian 16, Revision A.03,
 Gaussian 16:  ES64L-G16RevA.03 25-Dec-2016

 ----------------------------------------------------------------------
 #P Opt(MaxCyc=150) PM6 5D 7F Integral=UltraFineGrid SCF=(NoSymm,XQC,Ma
 xCyc=120) IOp(1/33=1)
 ----------------------------------------------------------------------

 TstMul:  Mul=     1
 TstMul:  ICh=     0
 TstMul:  Mul=     1
 Symbolic Z-matrix:
 Charge =  0 Multiplicity = 1

 SCF Done:  E(RPM6) = -0.195661835711E-01 A.U. after    8 cycles
 SCF Done:  E(RPM6) = -0.195848903820E-01 A.U. after    5 cycles
 Optimization completed.
    -- Stationary point found.

                         Standard orientation:
 ---------------------------------------------------------------------
 Center     Atomic      Atomic             Coordinates (Angstroms)
 Number     Number       Type             X           Y           Z
 ---------------------------------------------------------------------
      1          6           0        0.000000    0.000000    0.000000
      2          1           0        0.626358    0.626358    0.626358
      3          1           0       -0.626358   -0.626358    0.626358
      4          1           0        0.626358   -0.626358   -0.626358
      5          1           0       -0.626358    0.626358   -0.626358
 ---------------------------------------------------------------------

 The electronic state is 1-A1.
 Alpha  occ. eigenvalues --   -0.92610  -0.50249  -0.50249  -0.50249
 Alpha virt. eigenvalues --    0.22104   0.22104   0.22104   0.26649

 Mulliken charges:
               1
     1  C   -0.655067
     2  H    0.163767
     3  H    0.163767
     4  H    0.163767
     5  H    0.163767
 Sum of Mulliken charges =   0.00000

 Dipole moment (field-independent basis, Debye):
    X=              0.0000    Y=              0.0000    Z=             -0.0000  Tot=              0.0000
 N-N= 1.446398133095D+01 E-N=-1.374591936025D+01  KE=-1.035404987665D+01
 Leave Link  601 at Wed Oct 21 14:27:09 2020, MaxMem=  2684354560 cpu:               3.2 elap:               0.9
 (Enter /udrive/faculty/rpeverati/g16/g16/l9999.exe)

 Test job not archived.
 1\1\GINC-NODE21\FOpt\RPM6\ZDO\C1H4\RPEVERATI\21-Oct-2020\0\\#P Opt(Max
 Cyc=150) PM6 5D 7F Integral=UltraFineGrid SCF=(NoSymm,XQC,MaxCyc=120)
 IOp(1/33=1)\\TS search on BH76.\\0,1\C,0.,0.,0.\H,0.6263580288,0.62635
 80288,0.6263580288\H,-0.6263580288,-0.6263580288,0.6263580288\H,0.6263
 580288,-0.6263580288,-0.6263580288\H,-0.6263580288,0.6263580288,-0.626

 Normal termination of Gaussian 16 at Wed Oct 21 14:27:12 2020.
