 Gaussian 16, Revision A.03,
 Gaussian 16:  ES64L-G16RevA.03 25-Dec-2016

 ----------------------------------------------------------------------
 #P Opt(MaxCyc=150) PM6 5D 7F Integral=UltraFineGrid SCF=(NoSymm,XQC,Ma
 xCyc=120) IOp(1/33=1)
 ----------------------------------------------------------------------

 TstMul:  Mul=     1
 TstMul:  ICh=     0
 TstMul:  Mul=     1
 Symbolic Z-matrix:
 Charge =  0 Multiplicity = 1

 SCF Done:  E(RPM6) = -0.267150202810E-01 A.U. after   10 cycles
 SCF Done:  E(RPM6) = -0.267598362865E-01 A.U. after    8 cycles
 SCF Done:  E(RPM6) = -0.267621974324E-01 A.U. after    7 cycles
 Optimization completed.
    -- Stationary point found.

                         Standard orientation:
 ---------------------------------------------------------------------
 Center     Atomic      Atomic             Coordinates (Angstroms)
 Number     Number       Type             X           Y           Z
 ---------------------------------------------------------------------
      1          9           0        0.000000    0.000000   -1.071647
      2         17           0        0.000000    0.000000    0.567343
 ---------------------------------------------------------------------

 The electronic state is 1-SG.
 Alpha  occ. eigenvalues --   -1.59919  -0.96312  -0.66027  -0.66027  -0.59482
 Alpha  occ. eigenvalues --   -0.42261  -0.42261
 Alpha virt. eigenvalues --   -0.03898   3.17383   3.17383   3.17540   3.19840
 Alpha virt. eigenvalues --    3.19840

 Mulliken charges:
               1
     1  F    0.002235
     2  Cl  -0.002235
 Sum of Mulliken charges =   0.00000

 Dipole moment (field-independent basis, Debye):
    X=             -0.0000    Y=              0.0000    Z=             -0.1018  Tot=              0.1018
 N-N= 3.947092525738D+01 E-N=-2.500264251973D+01  KE=-4.334694904267D+01
 Leave Link  601 at Wed Oct 21 14:28:03 2020, MaxMem=  2684354560 cpu:               3.0 elap:               0.9
 (Enter /udrive/faculty/rpeverati/g16/g16/l9999.exe)

 Test job not archived.
 1\1\GINC-NODE39\FOpt\RPM6\ZDO\Cl1F1\RPEVERATI\21-Oct-2020\0\\#P Opt(Ma
 xCyc=150) PM6 5D 7F Integral=UltraFineGrid SCF=(NoSymm,XQC,MaxCyc=120)
  IOp(1/33=1)\\TS search on BH76.\\0,1\F,0.,0.,-1.070314333\Cl,0.,0.,0.
 5686755042\\Version=ES64L-G16RevA.03\State=1-SG\HF=-0.0267622\RMSD=4.6
 67e-09\RMSF=3.613e-08\Dipole=0.,0.,-0.0400628\PG=C*V [C*(F1Cl1)]\\@

 Normal termination of Gaussian 16 at Wed Oct 21 14:28:05 2020.
