 Gaussian 16, Revision A.03,
 Gaussian 16:  ES64L-G16RevA.03 25-Dec-2016

 ----------------------------------------------------------------------
 #P Opt(MaxCyc=150) PM6 5D 7F Integral=UltraFineGrid SCF=(NoSymm,XQC,Ma
 xCyc=120) IOp(1/33=1)
 ----------------------------------------------------------------------

 TstMul:  Mul=     1
 TstMul:  ICh=     0
 TstMul:  Mul=     1
 Symbolic Z-matrix:
 Charge =  0 Multiplicity = 1

 SCF Done:  E(RPM6) = -0.850681152911E-01 A.U. after   12 cycles
 SCF Done:  E(RPM6) = -0.853556695473E-01 A.U. after    9 cycles
 SCF Done:  E(RPM6) = -0.853621965875E-01 A.U. after    7 cycles
 Optimization completed.
    -- Stationary point found.

                         Standard orientation:
 ---------------------------------------------------------------------
 Center     Atomic      Atomic             Coordinates (Angstroms)
 Number     Number       Type             X           Y           Z
 ---------------------------------------------------------------------
      1          6           0        0.000000    0.000000   -0.628753
      2          9           0        0.000000    0.000000    0.741871
      3          1           0        0.000000    1.042211   -0.968107
      4          1           0        0.902581   -0.521105   -0.968107
      5          1           0       -0.902581   -0.521105   -0.968107
 ---------------------------------------------------------------------

 The electronic state is 1-A1.
 Alpha  occ. eigenvalues --   -1.51166  -0.91938  -0.62636  -0.62636  -0.57863
 Alpha  occ. eigenvalues --   -0.48766  -0.48766
 Alpha virt. eigenvalues --    0.11697   0.19219   0.19219   0.20908

 Mulliken charges:
               1
     1  C   -0.257804
     2  F   -0.168947
     3  H    0.142250
     4  H    0.142250
     5  H    0.142250
 Sum of Mulliken charges =   0.00000

 Dipole moment (field-independent basis, Debye):
    X=              0.0000    Y=             -0.0000    Z=             -1.6475  Tot=              1.6475
 N-N= 4.227007666736D+01 E-N=-3.572001282630D+01  KE=-3.851547059085D+01
 Leave Link  601 at Wed Oct 21 14:26:53 2020, MaxMem=  2684354560 cpu:               5.7 elap:               1.1
 (Enter /udrive/faculty/rpeverati/g16/g16/l9999.exe)

 Test job not archived.
 1\1\GINC-NODE41\FOpt\RPM6\ZDO\C1H3F1\RPEVERATI\21-Oct-2020\0\\#P Opt(M
 axCyc=150) PM6 5D 7F Integral=UltraFineGrid SCF=(NoSymm,XQC,MaxCyc=120
 ) IOp(1/33=1)\\TS search on BH76.\\0,1\C,0.,0.,0.0706000521\F,0.,0.,-1
 .3000241126\H,0.5211053728,-0.9025809818,0.4099536707\H,0.5211053728,0
 .9025809818,0.4099536707\H,-1.0422107456,0.,0.4099536707\\Version=ES64

 Normal termination of Gaussian 16 at Wed Oct 21 14:26:54 2020.
