 Gaussian 16, Revision A.03,
 Gaussian 16:  ES64L-G16RevA.03 25-Dec-2016

 ----------------------------------------------------------------------
 #P Opt(MaxCyc=150) PM6 5D 7F Integral=UltraFineGrid SCF=(NoSymm,XQC,Ma
 xCyc=120) IOp(1/33=1)
 ----------------------------------------------------------------------

 TstMul:  Mul=     1
 TstMul:  ICh=    -1
 TstMul:  Mul=     1
 Symbolic Z-matrix:
 Charge = -1 Multiplicity = 1

 SCF Done:  E(RPM6) = -0.136083534718     A.U. after   14 cycles
 SCF Done:  E(RPM6) = -0.137054006415     A.U. after    9 cycles
 SCF Done:  E(RPM6) = -0.138757586817     A.U. after   10 cycles
 SCF Done:  E(RPM6) = -0.138976081275     A.U. after    9 cycles
 SCF Done:  E(RPM6) = -0.139095401570     A.U. after    9 cycles
 SCF Done:  E(RPM6) = -0.139129864159     A.U. after    9 cycles
 SCF Done:  E(RPM6) = -0.139143305434     A.U. after    8 cycles
 SCF Done:  E(RPM6) = -0.139154846304     A.U. after    9 cycles
 Optimization completed.
    -- Stationary point found.

                         Standard orientation:
 ---------------------------------------------------------------------
 Center     Atomic      Atomic             Coordinates (Angstroms)
 Number     Number       Type             X           Y           Z
 ---------------------------------------------------------------------
      1         17           0        0.000000    0.000000   -2.253441
      2          6           0        0.000000    0.000000   -0.424920
      3          1           0       -0.000000    1.038144   -0.079147
      4          1           0       -0.899059   -0.519072   -0.079147
      5          1           0        0.899059   -0.519072   -0.079147
      6         17           0        0.000000    0.000000    2.417379
 ---------------------------------------------------------------------

 The electronic state is 1-A1.
 Alpha  occ. eigenvalues --   -0.87093  -0.77440  -0.75322  -0.40221  -0.40221
 Alpha  occ. eigenvalues --   -0.38593  -0.27293  -0.27293  -0.16737  -0.16737
 Alpha  occ. eigenvalues --   -0.16609
 Alpha virt. eigenvalues --    0.16571   0.34436   0.34436   0.36852   3.46883
 Alpha virt. eigenvalues --    3.46883   3.46897   3.48418   3.48418   3.93207
 Alpha virt. eigenvalues --    3.93245   3.93245   3.93619   3.93619

 Mulliken charges:
               1
     1  Cl  -0.306094
     2  C   -0.242449
     3  H    0.177713
     4  H    0.177713
     5  H    0.177713
     6  Cl  -0.984596
 Sum of Mulliken charges =  -1.00000

 Dipole moment (field-independent basis, Debye):
    X=             -0.0000    Y=             -0.0017    Z=             -7.9657  Tot=              7.9657
 N-N= 5.529767555376D+01 E-N=-6.066135509825D+01  KE=-4.094117480747D+01
 Leave Link  601 at Wed Oct 21 14:29:05 2020, MaxMem=  2684354560 cpu:               4.3 elap:               1.0
 (Enter /udrive/faculty/rpeverati/g16/g16/l9999.exe)

 Test job not archived.
 1\1\GINC-NODE41\FOpt\RPM6\ZDO\C1H3Cl2(1-)\RPEVERATI\21-Oct-2020\0\\#P
 Opt(MaxCyc=150) PM6 5D 7F Integral=UltraFineGrid SCF=(NoSymm,XQC,MaxCy
 c=120) IOp(1/33=1)\\TS search on BH76.\\-1,1\Cl,0.,0.,-2.1703701795\C,
 0.,0.,-0.3418492344\H,-0.5190721967,0.8990594175,0.003923172\H,-0.5190
 721967,-0.8990594175,0.003923172\H,1.0381443934,0.,0.003923172\Cl,0.,0

 Normal termination of Gaussian 16 at Wed Oct 21 14:29:07 2020.
