 Gaussian 16, Revision A.03,

 ----------------------------------------------------------------------
 #P Opt(TS,MaxCyc=50,NoEigenTest,MaxStep=10,AddRedundant) PM6 5D 7F Int
 egral=UltraFineGrid SCF=(NoSymm,XQC,MaxCyc=120) IOp(1/33=1)
 ----------------------------------------------------------------------

 TstMul:  Mul=     1
 TstMul:  ICh=    -1
 TstMul:  Mul=     1
 Symbolic Z-matrix:
 Charge = -1 Multiplicity = 1

 SCF Done:  E(RPM6) = -0.124203474855     A.U. after   13 cycles
 SCF Done:  E(RPM6) = -0.125331684857     A.U. after   10 cycles
 SCF Done:  E(RPM6) = -0.126004741668     A.U. after   10 cycles
 SCF Done:  E(RPM6) = -0.126270309719     A.U. after   10 cycles
 SCF Done:  E(RPM6) = -0.126385567899     A.U. after   10 cycles
 SCF Done:  E(RPM6) = -0.126385985010     A.U. after    9 cycles
 Optimization completed.
    -- Stationary point found.
 Normal termination of Gaussian 16 at Wed Oct 21 14:29:12 2020.
 Gaussian 16:  ES64L-G16RevA.03 25-Dec-2016

 ----------------------------------------------------------------------
 #P Freq PM6 5D 7F Integral=UltraFineGrid SCF=(NoSymm,XQC,MaxCyc=120) I
 Op(1/33=1) Geom=Check Guess=Read
 ----------------------------------------------------------------------

 TstMul:  Mul=     1
 TstMul:  ICh=    -1
 TstMul:  Mul=     1
 Structure from the checkpoint file:  "MN_28_clch3clts_BH76_PM6_SE.chk"
 Charge = -1 Multiplicity = 1

                         Standard orientation:
 ---------------------------------------------------------------------
 Center     Atomic      Atomic             Coordinates (Angstroms)
 Number     Number       Type             X           Y           Z
 ---------------------------------------------------------------------
      1         17           0        2.236566   -0.000002   -0.000016
      2          6           0        0.000031    0.000007    0.000032
      3          1           0        0.000013    0.930780   -0.549040
      4          1           0       -0.000011   -0.941017   -0.531282
      5          1           0        0.000016    0.010262    1.080660
      6         17           0       -2.236579   -0.000002   -0.000015
 ---------------------------------------------------------------------

 SCF Done:  E(RPM6) = -0.126385985010     A.U. after    2 cycles

 The electronic state is 1-A.
 Alpha  occ. eigenvalues --   -0.83386  -0.81676  -0.76329  -0.40576  -0.40572
 Alpha  occ. eigenvalues --   -0.30670  -0.22995  -0.22995  -0.22329  -0.22329
 Alpha  occ. eigenvalues --   -0.20133
 Alpha virt. eigenvalues --    0.15182   0.34169   0.34955   0.34957   3.73794
 Alpha virt. eigenvalues --    3.74325   3.74325   3.75161   3.75161   3.75188
 Alpha virt. eigenvalues --    3.76236   3.76236   3.76373   3.76373

 Mulliken charges:
               1
     1  Cl  -0.755755
     2  C    0.079568
     3  H    0.144008
     4  H    0.144010
     5  H    0.143987
     6  Cl  -0.755818
 Sum of Mulliken charges =  -1.00000

 Dipole moment (field-independent basis, Debye):
    X=              0.0008    Y=              0.0000    Z=              0.0003  Tot=              0.0008
 N-N= 5.575071892044D+01 E-N=-6.158425806942D+01  KE=-4.089018768020D+01
  Exact polarizability:  90.198   0.000  13.188   0.000   0.000  10.527
 Approx polarizability:  56.663   0.000   9.381   0.000   0.000   7.974
 Leave Link  601 at Wed Oct 21 14:29:40 2020, MaxMem=  2684354560 cpu:               0.7 elap:               0.5
 (Enter /udrive/faculty/rpeverati/g16/g16/l701.exe)
 ... and contract with generalized density number  0.
 Compute integral second derivatives.
 Leave Link  701 at Wed Oct 21 14:29:41 2020, MaxMem=  2684354560 cpu:               5.0 elap:               1.1
 (Enter /udrive/faculty/rpeverati/g16/g16/l702.exe)
 L702 exits ... SP integral derivatives will be done elsewhere.

 ******    1 imaginary frequencies (negative Signs) ******

                      1                      2                      3
                      A                      A                      A
 Frequencies --   -431.0719               210.5497               210.5637
 Red. masses --     13.2786                 4.3048                 4.3049
 Frc consts  --      1.4538                 0.1124                 0.1125
 IR Inten    --   1842.7558                29.7247                30.3857

                      4                      5                      6
                      A                      A                      A
 Frequencies --    253.5626              1053.9400              1053.9819
 Red. masses --     34.9024                 1.0128                 1.0128
 Frc consts  --      1.3221                 0.6628                 0.6629
 IR Inten    --      0.0000                 0.0000                 0.0000

                      7                      8                      9
                      A                      A                      A
 Frequencies --   1242.6018              1243.7974              1243.8679
 Red. masses --      1.0436                 1.1235                 1.1234
 Frc consts  --      0.9494                 1.0240                 1.0241
 IR Inten    --    113.0644                17.7474                19.1137

                     10                     11                     12
                      A                      A                      A
 Frequencies --   2705.3792              2705.4635              2726.3790
 Red. masses --      1.1070                 1.1070                 1.0079
 Frc consts  --      4.7736                 4.7740                 4.4140
 IR Inten    --     61.7626                64.2870                 0.0000

 - Thermochemistry -
 -------------------
 Temperature   298.150 Kelvin.  Pressure   1.00000 Atm.
 Atom     1 has atomic number 17 and mass  34.96885

 Molecular mass:    84.96118 amu.
 Principal axes and moments of inertia in atomic units:
                           1         2         3
     Eigenvalues --    12.609131255.627761255.62933
           X            1.00000   0.00000   0.00000
           Y           -0.00000   1.00000  -0.00001
           Z           -0.00000   0.00001   1.00000
 This molecule is an asymmetric top.
 Rotational symmetry number  1.
 Rotational temperatures (Kelvin)      6.86914     0.06898     0.06898
 Rotational constants (GHZ):         143.12971     1.43732     1.43732
    1 imaginary frequencies ignored.
 Zero-point vibrational energy      87627.0 (Joules/Mol)
                                   20.94335 (Kcal/Mol)
 Warning -- explicit consideration of   3 degrees of freedom as
           vibrations may cause significant error
 Vibrational temperatures:    302.93   302.95   364.82  1516.38  1516.44
          (Kelvin)           1787.83  1789.55  1789.65  3892.44  3892.56
                             3922.65

 Zero-point correction=                           0.033375 (Hartree/Particle)
 Thermal correction to Energy=                    0.037880
 Thermal correction to Enthalpy=                  0.038824
 Thermal correction to Gibbs Free Energy=         0.005674
 Sum of electronic and zero-point Energies=             -0.093011
 Sum of electronic and thermal Energies=                -0.088506
 Sum of electronic and thermal Enthalpies=              -0.087562
 Sum of electronic and thermal Free Energies=           -0.120712

                     E (Thermal)             CV                S
                      KCal/Mol        Cal/Mol-Kelvin    Cal/Mol-Kelvin
 Total                   23.770             12.548             69.770
 Electronic               0.000              0.000              0.000
 Translational            0.889              2.981             39.232
 Rotational               0.889              2.981             24.501
 Vibrational             21.993              6.586              6.038
 Vibration     1          0.643              1.825              2.039
 Vibration     2          0.643              1.825              2.039
 Vibration     3          0.665              1.757              1.706

 Optimization completed.
    -- Stationary point found.
 Normal termination of Gaussian 16 at Wed Oct 21 14:29:49 2020.
