 Gaussian 16, Revision A.03,
 Gaussian 16:  ES64L-G16RevA.03 25-Dec-2016

 ----------------------------------------------------------------------
 #P Opt(MaxCyc=150) PM6 5D 7F Integral=UltraFineGrid SCF=(NoSymm,XQC,Ma
 xCyc=120) IOp(1/33=1)
 ----------------------------------------------------------------------

 TstMul:  Mul=     1
 TstMul:  ICh=     0
 TstMul:  Mul=     1
 Symbolic Z-matrix:
 Charge =  0 Multiplicity = 1

 SCF Done:  E(RPM6) = -0.759498490904E-01 A.U. after   13 cycles
 SCF Done:  E(RPM6) = -0.767823636053E-01 A.U. after   11 cycles
 SCF Done:  E(RPM6) = -0.769071818918E-01 A.U. after   10 cycles
 SCF Done:  E(RPM6) = -0.769272047040E-01 A.U. after    9 cycles
 SCF Done:  E(RPM6) = -0.769317340791E-01 A.U. after    9 cycles
 Optimization completed.
    -- Stationary point found.

                         Standard orientation:
 ---------------------------------------------------------------------
 Center     Atomic      Atomic             Coordinates (Angstroms)
 Number     Number       Type             X           Y           Z
 ---------------------------------------------------------------------
      1          6           0       -0.045639    0.678958    0.000000
      2          8           0       -0.045639   -0.755462    0.000000
      3          1           0       -1.113175    0.936826    0.000000
      4          1           0        0.872771   -1.087396    0.000000
      5          1           0        0.439673    1.060260    0.903520
      6          1           0        0.439673    1.060260   -0.903520
 ---------------------------------------------------------------------

 The electronic state is 1-A'.
 Alpha  occ. eigenvalues --   -1.09439  -0.90612  -0.65955  -0.56634  -0.55044
 Alpha  occ. eigenvalues --   -0.45812  -0.38706
 Alpha virt. eigenvalues --    0.09683   0.18662   0.19463   0.20643   0.21847

 Mulliken charges:
               1
     1  C   -0.176525
     2  O   -0.528076
     3  H    0.156600
     4  H    0.301123
     5  H    0.123439
     6  H    0.123439
 Sum of Mulliken charges =  -0.00000

 Dipole moment (field-independent basis, Debye):
    X=              1.4271    Y=              1.4700    Z=             -0.0000  Tot=              2.0488
 N-N= 3.772491605299D+01 E-N=-3.782081566558D+01  KE=-2.853886208758D+01
 Leave Link  601 at Wed Oct 21 14:28:53 2020, MaxMem=  2684354560 cpu:               5.3 elap:               1.4
 (Enter /udrive/faculty/rpeverati/g16/g16/l9999.exe)

 Test job not archived.
 1\1\GINC-NODE56\FOpt\RPM6\ZDO\C1H4O1\RPEVERATI\21-Oct-2020\0\\#P Opt(M
 axCyc=150) PM6 5D 7F Integral=UltraFineGrid SCF=(NoSymm,XQC,MaxCyc=120
 ) IOp(1/33=1)\\TS search on BH76.\\0,1\C,-0.0417372358,0.6926026734,0.
 \O,-0.0509337968,-0.7417873309,0.\H,-1.1075983585,0.9573102491,0.\H,0.
 8653286609,-1.0796025076,0.\H,0.446009246,1.0707859606,0.9035201637\H,

 Normal termination of Gaussian 16 at Wed Oct 21 14:28:56 2020.
