 Gaussian 16, Revision A.03,
 Gaussian 16:  ES64L-G16RevA.03 25-Dec-2016

 ----------------------------------------------------------------------
 #P Opt(MaxCyc=150) PM6 5D 7F Integral=UltraFineGrid SCF=(NoSymm,XQC,Ma
 xCyc=120) IOp(1/33=1)
 ----------------------------------------------------------------------

 TstMul:  Mul=     2
 TstMul:  ICh=     0
 TstMul:  Mul=     2
 Symbolic Z-matrix:
 Charge =  0 Multiplicity = 2

 SCF Done:  E(UPM6) =  0.452694321760E-01 A.U. after   10 cycles
 SCF Done:  E(UPM6) =  0.447640404287E-01 A.U. after    8 cycles
 SCF Done:  E(UPM6) =  0.447429388971E-01 A.U. after    7 cycles
 Optimization completed.
    -- Stationary point found.

                         Standard orientation:
 ---------------------------------------------------------------------
 Center     Atomic      Atomic             Coordinates (Angstroms)
 Number     Number       Type             X           Y           Z
 ---------------------------------------------------------------------
      1          6           0        0.000000    0.000000    0.000000
      2          1           0        0.000000    1.059029    0.000000
      3          1           0        0.917146   -0.529515    0.000000
      4          1           0       -0.917146   -0.529515    0.000000
 ---------------------------------------------------------------------

 The electronic state is 2-A2".
 Alpha  occ. eigenvalues --   -0.87851  -0.53196  -0.53196  -0.37177
 Alpha virt. eigenvalues --    0.22719   0.22719   0.23657
  Beta  occ. eigenvalues --   -0.86346  -0.51925  -0.51925
  Beta virt. eigenvalues --    0.02689   0.23581   0.23581   0.24623

 Mulliken charges and spin densities:
               1          2
     1  C   -0.440497   1.104966
     2  H    0.146832  -0.034989
     3  H    0.146832  -0.034989
     4  H    0.146832  -0.034989
 Sum of Mulliken charges =  -0.00000   1.00000

 Dipole moment (field-independent basis, Debye):
    X=             -0.0000    Y=              0.0000    Z=              0.0000  Tot=              0.0000
 N-N= 1.164916710660D+01 E-N=-9.602772899691D+00  KE=-9.389908492685D+00
 Leave Link  601 at Wed Oct 21 14:27:23 2020, MaxMem=  2684354560 cpu:               4.0 elap:               0.9
 (Enter /udrive/faculty/rpeverati/g16/g16/l9999.exe)

 Test job not archived.
 1\1\GINC-NODE01\FOpt\UPM6\ZDO\C1H3(2)\RPEVERATI\21-Oct-2020\0\\#P Opt(
 MaxCyc=150) PM6 5D 7F Integral=UltraFineGrid SCF=(NoSymm,XQC,MaxCyc=12
 0) IOp(1/33=1)\\TS search on BH76.\\0,2\C,0.,0.,0.\H,0.5295145675,0.91
 71461343,0.\H,0.5295145675,-0.9171461343,0.\H,-1.059029135,0.,0.\\Vers
 ion=ES64L-G16RevA.03\State=2-A2"\HF=0.0447429\S2=0.753897\S2-1=0.\S2A=

 Normal termination of Gaussian 16 at Wed Oct 21 14:27:24 2020.
