 Gaussian 16, Revision A.03,
 Gaussian 16:  ES64L-G16RevA.03 25-Dec-2016

 ----------------------------------------------------------------------
 #P Opt(MaxCyc=150) PM6 5D 7F Integral=UltraFineGrid SCF=(NoSymm,XQC,Ma
 xCyc=120) IOp(1/33=1)
 ----------------------------------------------------------------------

 TstMul:  Mul=     1
 TstMul:  ICh=     0
 TstMul:  Mul=     1
 Symbolic Z-matrix:
 Charge =  0 Multiplicity = 1

 SCF Done:  E(RPM6) =  0.121600898122E-02 A.U. after    6 cycles
 SCF Done:  E(RPM6) =  0.635399469409E-03 A.U. after    5 cycles
 SCF Done:  E(RPM6) =  0.590638096782E-03 A.U. after    4 cycles
 Optimization completed.
    -- Stationary point found.

                         Standard orientation:
 ---------------------------------------------------------------------
 Center     Atomic      Atomic             Coordinates (Angstroms)
 Number     Number       Type             X           Y           Z
 ---------------------------------------------------------------------
      1          9           0        0.000000    0.000000    0.714074
      2          9           0        0.000000    0.000000   -0.714074
 ---------------------------------------------------------------------

 The electronic state is 1-SGG.
 Alpha  occ. eigenvalues --   -1.55754  -1.54984  -0.65403  -0.65403  -0.59572
 Alpha  occ. eigenvalues --   -0.59572  -0.57814
 Alpha virt. eigenvalues --   -0.02171

 Mulliken charges:
               1
     1  F    0.000000
     2  F   -0.000000
 Sum of Mulliken charges =  -0.00000

 Dipole moment (field-independent basis, Debye):
    X=             -0.0000    Y=              0.0000    Z=              0.0000  Tot=              0.0000
 N-N= 4.877234862097D+01 E-N=-2.800031098941D+01  KE=-5.717315654431D+01
 Leave Link  601 at Wed Oct 21 14:28:05 2020, MaxMem=  2684354560 cpu:               2.9 elap:               0.9
 (Enter /udrive/faculty/rpeverati/g16/g16/l9999.exe)

 Test job not archived.
 1\1\GINC-NODE23\FOpt\RPM6\ZDO\F2\RPEVERATI\21-Oct-2020\0\\#P Opt(MaxCy
 c=150) PM6 5D 7F Integral=UltraFineGrid SCF=(NoSymm,XQC,MaxCyc=120) IO
 p(1/33=1)\\TS search on BH76.\\0,1\F,0.,0.,0.7140740336\F,0.,0.,-0.714
 0740336\\Version=ES64L-G16RevA.03\State=1-SGG\HF=0.0005906\RMSD=1.254e
 -09\RMSF=6.661e-06\Dipole=0.,0.,0.\PG=D*H [C*(F1.F1)]\\@

 Normal termination of Gaussian 16 at Wed Oct 21 14:28:07 2020.
