 Gaussian 16, Revision A.03,
 Gaussian 16:  ES64L-G16RevA.03 25-Dec-2016

 ----------------------------------------------------------------------
 #P Opt(MaxCyc=150) PM6 5D 7F Integral=UltraFineGrid SCF=(NoSymm,XQC,Ma
 xCyc=120) IOp(1/33=1)
 ----------------------------------------------------------------------

 TstMul:  Mul=     1
 TstMul:  ICh=    -1
 TstMul:  Mul=     1
 Symbolic Z-matrix:
 Charge = -1 Multiplicity = 1

 SCF Done:  E(RPM6) = -0.138671126706     A.U. after   14 cycles
 SCF Done:  E(RPM6) = -0.139090557115     A.U. after   10 cycles
 SCF Done:  E(RPM6) = -0.139239331999     A.U. after   10 cycles
 SCF Done:  E(RPM6) = -0.139357724975     A.U. after   10 cycles
 SCF Done:  E(RPM6) = -0.139486076128     A.U. after   10 cycles
 SCF Done:  E(RPM6) = -0.139578737132     A.U. after   10 cycles
 SCF Done:  E(RPM6) = -0.139625352299     A.U. after    9 cycles
 SCF Done:  E(RPM6) = -0.139636927622     A.U. after    9 cycles
 SCF Done:  E(RPM6) = -0.139643184921     A.U. after    9 cycles
 SCF Done:  E(RPM6) = -0.139644179350     A.U. after    8 cycles
 Optimization completed.
    -- Stationary point found.

                         Standard orientation:
 ---------------------------------------------------------------------
 Center     Atomic      Atomic             Coordinates (Angstroms)
 Number     Number       Type             X           Y           Z
 ---------------------------------------------------------------------
      1         17           0        0.000000    0.000000    1.665876
      2          6           0        0.000000    0.000000   -0.156398
      3          1           0        0.000000    1.034530   -0.512264
      4          1           0        0.895929   -0.517265   -0.512264
      5          1           0       -0.895929   -0.517265   -0.512264
      6          9           0        0.000000    0.000000   -2.871635
 ---------------------------------------------------------------------

 The electronic state is 1-A1.
 Alpha  occ. eigenvalues --   -0.93339  -0.86810  -0.74730  -0.39541  -0.39541
 Alpha  occ. eigenvalues --   -0.38129  -0.26991  -0.26991  -0.15590  -0.15590
 Alpha  occ. eigenvalues --   -0.15526
 Alpha virt. eigenvalues --    0.17043   0.35122   0.35122   0.37758   3.46720
 Alpha virt. eigenvalues --    3.46720   3.46750   3.48236   3.48236

 Mulliken charges:
               1
     1  Cl  -0.299392
     2  C   -0.243428
     3  H    0.179517
     4  H    0.179517
     5  H    0.179517
     6  F   -0.995730
 Sum of Mulliken charges =  -1.00000

 Dipole moment (field-independent basis, Debye):
    X=              0.0000    Y=             -0.0021    Z=             10.3671  Tot=             10.3671
 N-N= 6.380343239791D+01 E-N=-6.193670220809D+01  KE=-5.649389327860D+01
 Leave Link  601 at Wed Oct 21 14:31:05 2020, MaxMem=  2684354560 cpu:               5.7 elap:               1.3
 (Enter /udrive/faculty/rpeverati/g16/g16/l9999.exe)

 Test job not archived.
 1\1\GINC-NODE61\FOpt\RPM6\ZDO\C1H3Cl1F1(1-)\RPEVERATI\21-Oct-2020\0\\#
 P Opt(MaxCyc=150) PM6 5D 7F Integral=UltraFineGrid SCF=(NoSymm,XQC,Max
 Cyc=120) IOp(1/33=1)\\TS search on BH76.\\-1,1\Cl,0.,0.,2.1490162198\C
 ,0.,0.,0.3267416843\H,-0.5172647555,-0.8959288375,-0.0291242947\H,-0.5
 172647555,0.8959288375,-0.0291242947\H,1.034529511,0.,-0.0291242947\F,

 Normal termination of Gaussian 16 at Wed Oct 21 14:31:08 2020.
