 Gaussian 16, Revision A.03,
 Gaussian 16:  ES64L-G16RevA.03 25-Dec-2016

 ----------------------------------------------------------------------
 #P Opt(MaxCyc=150) PM6 5D 7F Integral=UltraFineGrid SCF=(NoSymm,XQC,Ma
 xCyc=120) IOp(1/33=1)
 ----------------------------------------------------------------------

 TstMul:  Mul=     1
 TstMul:  ICh=     0
 TstMul:  Mul=     1
 Symbolic Z-matrix:
 Charge =  0 Multiplicity = 1

 SCF Done:  E(RPM6) = -0.216022444110E-01 A.U. after    9 cycles
 SCF Done:  E(RPM6) = -0.217893998203E-01 A.U. after    9 cycles
 SCF Done:  E(RPM6) = -0.218017622897E-01 A.U. after    8 cycles
 Optimization completed.
    -- Stationary point found.

                         Standard orientation:
 ---------------------------------------------------------------------
 Center     Atomic      Atomic             Coordinates (Angstroms)
 Number     Number       Type             X           Y           Z
 ---------------------------------------------------------------------
      1          8           0        0.000000    0.000000    0.488412
      2          6           0        0.000000    0.000000   -0.651216
 ---------------------------------------------------------------------

 The electronic state is 1-SG.
 Alpha  occ. eigenvalues --   -1.24682  -0.73787  -0.57823  -0.57823  -0.44172
 Alpha virt. eigenvalues --    0.04352   0.04352   0.19056

 Mulliken charges:
               1
     1  O   -0.325125
     2  C    0.325125
 Sum of Mulliken charges =  -0.00000

 Dipole moment (field-independent basis, Debye):
    X=             -0.0000    Y=              0.0000    Z=             -0.1725  Tot=              0.1725
 N-N= 2.350575978909D+01 E-N=-1.480679493564D+01  KE=-2.508255652545D+01
 Leave Link  601 at Wed Oct 21 14:28:03 2020, MaxMem=  2684354560 cpu:               4.1 elap:               0.9
 (Enter /udrive/faculty/rpeverati/g16/g16/l9999.exe)

 Test job not archived.
 1\1\GINC-NODE63\FOpt\RPM6\ZDO\C1O1\RPEVERATI\21-Oct-2020\0\\#P Opt(Max
 Cyc=150) PM6 5D 7F Integral=UltraFineGrid SCF=(NoSymm,XQC,MaxCyc=120)
 IOp(1/33=1)\\TS search on BH76.\\0,1\O,0.,0.,0.4891276029\C,0.,0.,-0.6
 504996641\\Version=ES64L-G16RevA.03\State=1-SG\HF=-0.0218018\RMSD=2.71
 8e-09\RMSF=2.882e-07\Dipole=0.,0.,-0.0678653\PG=C*V [C*(C1O1)]\\@

 Normal termination of Gaussian 16 at Wed Oct 21 14:28:05 2020.
