 Gaussian 16, Revision A.03,
 Gaussian 16:  ES64L-G16RevA.03 25-Dec-2016

 ----------------------------------------------------------------------
 #P Opt(MaxCyc=150) PM6 5D 7F Integral=UltraFineGrid SCF=(NoSymm,XQC,Ma
 xCyc=120) IOp(1/33=1)
 ----------------------------------------------------------------------

 TstMul:  Mul=     1
 TstMul:  ICh=    -1
 TstMul:  Mul=     1
 Symbolic Z-matrix:
 Charge = -1 Multiplicity = 1

 SCF Done:  E(RPM6) = -0.193575853808     A.U. after   12 cycles
 SCF Done:  E(RPM6) = -0.194753934158     A.U. after   10 cycles
 SCF Done:  E(RPM6) = -0.195353377405     A.U. after   10 cycles
 SCF Done:  E(RPM6) = -0.195971753432     A.U. after   10 cycles
 SCF Done:  E(RPM6) = -0.196180051505     A.U. after    9 cycles
 SCF Done:  E(RPM6) = -0.196294120992     A.U. after    9 cycles
 SCF Done:  E(RPM6) = -0.196296390894     A.U. after    9 cycles
 SCF Done:  E(RPM6) = -0.196297998858     A.U. after    8 cycles
 Optimization completed.
    -- Stationary point found.

                         Standard orientation:
 ---------------------------------------------------------------------
 Center     Atomic      Atomic             Coordinates (Angstroms)
 Number     Number       Type             X           Y           Z
 ---------------------------------------------------------------------
      1          9           0        0.000000    0.000000   -2.472631
      2          6           0        0.000000    0.000000   -1.090554
      3          1           0       -0.000000    1.037893   -0.739826
      4          1           0       -0.898842   -0.518946   -0.739826
      5          1           0        0.898842   -0.518946   -0.739826
      6         17           0        0.000000    0.000000    1.824499
 ---------------------------------------------------------------------

 The electronic state is 1-A1.
 Alpha  occ. eigenvalues --   -1.35597  -0.76872  -0.75623  -0.47890  -0.47890
 Alpha  occ. eigenvalues --   -0.43559  -0.33152  -0.33152  -0.15943  -0.15943
 Alpha  occ. eigenvalues --   -0.15883
 Alpha virt. eigenvalues --    0.25926   0.35747   0.35747   0.37927   3.94611
 Alpha virt. eigenvalues --    3.94629   3.94629   3.94895   3.94895

 Mulliken charges:
               1
     1  F   -0.267649
     2  C   -0.200526
     3  H    0.154154
     4  H    0.154154
     5  H    0.154154
     6  Cl  -0.994285
 Sum of Mulliken charges =  -1.00000

 Dipole moment (field-independent basis, Debye):
    X=             -0.0000    Y=              0.0002    Z=             -6.2983  Tot=              6.2983
 N-N= 6.576048067085D+01 E-N=-6.580220246740D+01  KE=-5.528129488996D+01
 Leave Link  601 at Wed Oct 21 14:29:28 2020, MaxMem=  2684354560 cpu:               2.5 elap:               0.7
 (Enter /udrive/faculty/rpeverati/g16/g16/l9999.exe)

 Test job not archived.
 1\1\GINC-NODE59\FOpt\RPM6\ZDO\C1H3Cl1F1(1-)\RPEVERATI\21-Oct-2020\0\\#
 P Opt(MaxCyc=150) PM6 5D 7F Integral=UltraFineGrid SCF=(NoSymm,XQC,Max
 Cyc=120) IOp(1/33=1)\\TS search on BH76.\\-1,1\F,0.,0.,-1.8129371219\C
 ,0.,0.,-0.4308599487\H,-0.5189464822,0.8988416736,-0.0801318526\H,-0.5
 189464822,-0.8988416736,-0.0801318526\H,1.0378929645,0.,-0.0801318526\

 Normal termination of Gaussian 16 at Wed Oct 21 14:29:30 2020.
