 Gaussian 16, Revision A.03,

 ----------------------------------------------------------------------
 #P Opt(TS,MaxCyc=50,NoEigenTest,MaxStep=10,AddRedundant) PM6 5D 7F Int
 egral=UltraFineGrid SCF=(NoSymm,XQC,MaxCyc=120) IOp(1/33=1)
 ----------------------------------------------------------------------

 TstMul:  Mul=     1
 TstMul:  ICh=    -1
 TstMul:  Mul=     1
 Symbolic Z-matrix:
 Charge = -1 Multiplicity = 1

 SCF Done:  E(RPM6) = -0.135307516495     A.U. after   14 cycles
 SCF Done:  E(RPM6) = -0.136196763490     A.U. after   10 cycles
 SCF Done:  E(RPM6) = -0.136063920260     A.U. after   10 cycles
 SCF Done:  E(RPM6) = -0.136065893223     A.U. after   11 cycles
 SCF Done:  E(RPM6) = -0.136148205027     A.U. after   11 cycles
 SCF Done:  E(RPM6) = -0.136131510335     A.U. after   10 cycles
 SCF Done:  E(RPM6) = -0.136132435293     A.U. after    9 cycles
 SCF Done:  E(RPM6) = -0.136132552761     A.U. after    9 cycles
 Optimization completed.
    -- Stationary point found.
 Normal termination of Gaussian 16 at Wed Oct 21 14:30:32 2020.
 Gaussian 16:  ES64L-G16RevA.03 25-Dec-2016

 ----------------------------------------------------------------------
 #P Freq PM6 5D 7F Integral=UltraFineGrid SCF=(NoSymm,XQC,MaxCyc=120) I
 Op(1/33=1) Geom=Check Guess=Read
 ----------------------------------------------------------------------

 TstMul:  Mul=     1
 TstMul:  ICh=    -1
 TstMul:  Mul=     1
 Structure from the checkpoint file:  "MN_37_fch3clts_BH76_PM6_SE.chk"
 Charge = -1 Multiplicity = 1

                         Standard orientation:
 ---------------------------------------------------------------------
 Center     Atomic      Atomic             Coordinates (Angstroms)
 Number     Number       Type             X           Y           Z
 ---------------------------------------------------------------------
      1          9           0        0.000000    0.000000   -2.496442
      2          6           0        0.000000    0.000000   -0.406478
      3          1           0       -0.000000    1.065821   -0.609275
      4          1           0       -0.923028   -0.532911   -0.609275
      5          1           0        0.923028   -0.532911   -0.609275
      6         17           0        0.000000    0.000000    1.572628
 ---------------------------------------------------------------------

 SCF Done:  E(RPM6) = -0.136132552761     A.U. after    2 cycles

 The electronic state is 1-A1.
 Alpha  occ. eigenvalues --   -0.99961  -0.84333  -0.73805  -0.37905  -0.37905
 Alpha  occ. eigenvalues --   -0.32477  -0.24771  -0.24771  -0.20582  -0.20582
 Alpha  occ. eigenvalues --   -0.18271
 Alpha virt. eigenvalues --    0.18489   0.37326   0.37326   0.37961   3.61124
 Alpha virt. eigenvalues --    3.61336   3.61336   3.63229   3.63229

 Mulliken charges:
               1
     1  F   -0.913390
     2  C    0.019084
     3  H    0.146305
     4  H    0.146305
     5  H    0.146305
     6  Cl  -0.544609
 Sum of Mulliken charges =  -1.00000

 Dipole moment (field-independent basis, Debye):
    X=              0.0000    Y=             -0.0012    Z=              5.7098  Tot=              5.7098
 N-N= 6.577373084895D+01 E-N=-6.601051732990D+01  KE=-5.630195678213D+01
  Exact polarizability:   9.459   0.000   9.786  -0.000  -0.003  55.660
 Approx polarizability:   6.644  -0.000   6.645  -0.000  -0.002  34.131
 Leave Link  601 at Wed Oct 21 14:31:05 2020, MaxMem=  2684354560 cpu:               5.8 elap:               1.5
 (Enter /udrive/faculty/rpeverati/g16/g16/l701.exe)
 ... and contract with generalized density number  0.
 Compute integral second derivatives.
 Leave Link  701 at Wed Oct 21 14:31:07 2020, MaxMem=  2684354560 cpu:               5.3 elap:               1.5
 (Enter /udrive/faculty/rpeverati/g16/g16/l702.exe)
 L702 exits ... SP integral derivatives will be done elsewhere.

 ******    1 imaginary frequencies (negative Signs) ******

                      1                      2                      3
                     A1                      E                      E
 Frequencies --   -349.2024               196.7114               196.7114
 Red. masses --     12.9980                 4.0990                 4.0990
 Frc consts  --      0.9339                 0.0935                 0.0935
 IR Inten    --   1199.1430                31.8140                32.3018

                      4                      5                      6
                     A1                      E                      E
 Frequencies --    331.2973              1006.3777              1006.3777
 Red. masses --     21.8257                 1.0706                 1.0706
 Frc consts  --      1.4114                 0.6388                 0.6388
 IR Inten    --     70.4803                 0.4269                 0.4261

                      7                      8                      9
                     A1                      E                      E
 Frequencies --   1234.6355              1244.1021              1244.1021
 Red. masses --      1.0507                 1.0956                 1.0956
 Frc consts  --      0.9436                 0.9991                 0.9991
 IR Inten    --     39.7417                33.5101                33.8155

                     10                     11                     12
                      E                      E                     A1
 Frequencies --   2699.0495              2699.0495              2741.1810
 Red. masses --      1.1020                 1.1020                 1.0126
 Frc consts  --      4.7301                 4.7301                 4.4830
 IR Inten    --     61.8535                61.7114                 1.1769

 - Thermochemistry -
 -------------------
 Temperature   298.150 Kelvin.  Pressure   1.00000 Atm.
 Atom     1 has atomic number  9 and mass  18.99840

 Molecular mass:    68.99073 amu.
 Principal axes and moments of inertia in atomic units:
                           1         2         3
     Eigenvalues --    12.26515 748.84435 748.84435
           X            0.00000   0.95375  -0.30060
           Y            0.00000   0.30060   0.95375
           Z            1.00000   0.00000   0.00000
 This molecule is a prolate symmetric top.
 Rotational symmetry number  3.
 Rotational temperatures (Kelvin)      7.06179     0.11566     0.11566
 Rotational constants (GHZ):         147.14382     2.41004     2.41004
    1 imaginary frequencies ignored.
 Zero-point vibrational energy      87325.0 (Joules/Mol)
                                   20.87117 (Kcal/Mol)
 Warning -- explicit consideration of   3 degrees of freedom as
           vibrations may cause significant error
 Vibrational temperatures:    283.02   283.02   476.66  1447.95  1447.95
          (Kelvin)           1776.37  1789.99  1789.99  3883.33  3883.33
                             3943.95

 Zero-point correction=                           0.033260 (Hartree/Particle)
 Thermal correction to Energy=                    0.037722
 Thermal correction to Enthalpy=                  0.038666
 Thermal correction to Gibbs Free Energy=         0.007430
 Sum of electronic and zero-point Energies=             -0.102872
 Sum of electronic and thermal Energies=                -0.098411
 Sum of electronic and thermal Enthalpies=              -0.097467
 Sum of electronic and thermal Free Energies=           -0.128703

                     E (Thermal)             CV                S
                      KCal/Mol        Cal/Mol-Kelvin    Cal/Mol-Kelvin
 Total                   23.671             12.545             65.743
 Electronic               0.000              0.000              0.000
 Translational            0.889              2.981             38.612
 Rotational               0.889              2.981             21.263
 Vibrational             21.893              6.583              5.868
 Vibration     1          0.636              1.844              2.164
 Vibration     2          0.636              1.844              2.164
 Vibration     3          0.714              1.613              1.254

 Optimization completed.
    -- Stationary point found.
 Normal termination of Gaussian 16 at Wed Oct 21 14:31:18 2020.
