 Gaussian 16, Revision A.03,

 ----------------------------------------------------------------------
 #P Opt(TS,MaxCyc=50,NoEigenTest,MaxStep=10,AddRedundant) PM6 5D 7F Int
 egral=UltraFineGrid SCF=(NoSymm,XQC,MaxCyc=120) IOp(1/33=1)
 ----------------------------------------------------------------------

 TstMul:  Mul=     1
 TstMul:  ICh=    -1
 TstMul:  Mul=     1
 Symbolic Z-matrix:
 Charge = -1 Multiplicity = 1

 SCF Done:  E(RPM6) = -0.161366878372     A.U. after   11 cycles
 SCF Done:  E(RPM6) = -0.163152535225     A.U. after   10 cycles
 SCF Done:  E(RPM6) = -0.164095257407     A.U. after   10 cycles
 SCF Done:  E(RPM6) = -0.164965875788     A.U. after    9 cycles
 SCF Done:  E(RPM6) = -0.165292295965     A.U. after   10 cycles
 SCF Done:  E(RPM6) = -0.165242195585     A.U. after   10 cycles
 SCF Done:  E(RPM6) = -0.165244515771     A.U. after    8 cycles
 Optimization completed.
    -- Stationary point found.
 Normal termination of Gaussian 16 at Wed Oct 21 14:29:29 2020.
 Gaussian 16:  ES64L-G16RevA.03 25-Dec-2016

 ----------------------------------------------------------------------
 #P Freq PM6 5D 7F Integral=UltraFineGrid SCF=(NoSymm,XQC,MaxCyc=120) I
 Op(1/33=1) Geom=Check Guess=Read
 ----------------------------------------------------------------------

 TstMul:  Mul=     1
 TstMul:  ICh=    -1
 TstMul:  Mul=     1
 Structure from the checkpoint file:  "MN_39_fch3fts_BH76_PM6_SE.chk"
 Charge = -1 Multiplicity = 1

                         Standard orientation:
 ---------------------------------------------------------------------
 Center     Atomic      Atomic             Coordinates (Angstroms)
 Number     Number       Type             X           Y           Z
 ---------------------------------------------------------------------
      1          9           0        1.720223    0.000004   -0.000007
      2          6           0       -0.000212   -0.000001    0.000004
      3          1           0        0.000456   -0.116473    1.077428
      4          1           0        0.000458    0.991303   -0.437820
      5          1           0        0.000455   -0.874893   -0.639510
      6          9           0       -1.720234    0.000004   -0.000007
 ---------------------------------------------------------------------

 SCF Done:  E(RPM6) = -0.165244515771     A.U. after    2 cycles

 The electronic state is 1-A.
 Alpha  occ. eigenvalues --   -1.09920  -1.09518  -0.70812  -0.36018  -0.36017
 Alpha  occ. eigenvalues --   -0.32284  -0.27413  -0.27413  -0.25079  -0.25079
 Alpha  occ. eigenvalues --   -0.18986
 Alpha virt. eigenvalues --    0.26637   0.40019   0.40775   0.40776

 Mulliken charges:
               1
     1  F   -0.743103
     2  C    0.175184
     3  H    0.103443
     4  H    0.103453
     5  H    0.103451
     6  F   -0.742428
 Sum of Mulliken charges =  -1.00000

 Dipole moment (field-independent basis, Debye):
    X=             -0.0052    Y=             -0.0001    Z=              0.0001  Tot=              0.0052
 N-N= 7.743878474684D+01 E-N=-7.378541002848D+01  KE=-7.105186351482D+01
  Exact polarizability:  41.578   0.000   6.665  -0.000   0.000   6.665
 Approx polarizability:  23.658   0.000   4.057  -0.000   0.000   4.057
 Leave Link  601 at Wed Oct 21 14:29:50 2020, MaxMem=  2684354560 cpu:               2.6 elap:               0.9
 (Enter /udrive/faculty/rpeverati/g16/g16/l701.exe)
 ... and contract with generalized density number  0.
 Compute integral second derivatives.
 Leave Link  701 at Wed Oct 21 14:29:52 2020, MaxMem=  2684354560 cpu:               4.2 elap:               1.0
 (Enter /udrive/faculty/rpeverati/g16/g16/l702.exe)
 L702 exits ... SP integral derivatives will be done elsewhere.

 ******    1 imaginary frequencies (negative Signs) ******

                      1                      2                      3
                      A                      A                      A
 Frequencies --   -686.2262               322.1685               322.1784
 Red. masses --     12.3988                 4.4299                 4.4300
 Frc consts  --      3.4400                 0.2709                 0.2709
 IR Inten    --   2014.5448                44.9180                44.9164

                      4                      5                      6
                      A                      A                      A
 Frequencies --    394.7969              1154.0067              1154.0245
 Red. masses --     18.8834                 1.0229                 1.0229
 Frc consts  --      1.7341                 0.8026                 0.8026
 IR Inten    --      0.0000                 0.0000                 0.0000

                      7                      8                      9
                      A                      A                      A
 Frequencies --   1249.6199              1249.6547              1322.6435
 Red. masses --      1.1407                 1.1407                 1.0702
 Frc consts  --      1.0495                 1.0495                 1.1031
 IR Inten    --      5.5716                 5.5711                24.9060

                     10                     11                     12
                      A                      A                      A
 Frequencies --   2700.9154              2700.9651              2717.9452
 Red. masses --      1.1051                 1.1051                 1.0082
 Frc consts  --      4.7498                 4.7500                 4.3879
 IR Inten    --     14.9232                14.9287                 0.0000

 - Thermochemistry -
 -------------------
 Temperature   298.150 Kelvin.  Pressure   1.00000 Atm.
 Atom     1 has atomic number  9 and mass  18.99840

 Molecular mass:    53.02028 amu.
 Principal axes and moments of inertia in atomic units:
                           1         2         3
     Eigenvalues --    12.68001 407.86882 407.86945
           X            1.00000   0.00000  -0.00000
           Y           -0.00000   1.00000   0.00000
           Z            0.00000  -0.00000   1.00000
 This molecule is an asymmetric top.
 Rotational symmetry number  1.
 Rotational temperatures (Kelvin)      6.83075     0.21236     0.21236
 Rotational constants (GHZ):         142.32964     4.42481     4.42480
    1 imaginary frequencies ignored.
 Zero-point vibrational energy      91448.0 (Joules/Mol)
                                   21.85661 (Kcal/Mol)
 Warning -- explicit consideration of   3 degrees of freedom as
           vibrations may cause significant error
 Vibrational temperatures:    463.53   463.54   568.02  1660.36  1660.38
          (Kelvin)           1797.92  1797.97  1902.99  3886.01  3886.09
                             3910.52

 Zero-point correction=                           0.034831 (Hartree/Particle)
 Thermal correction to Energy=                    0.038842
 Thermal correction to Enthalpy=                  0.039786
 Thermal correction to Gibbs Free Energy=         0.009439
 Sum of electronic and zero-point Energies=             -0.130414
 Sum of electronic and thermal Energies=                -0.126402
 Sum of electronic and thermal Enthalpies=              -0.125458
 Sum of electronic and thermal Free Energies=           -0.155805

                     E (Thermal)             CV                S
                      KCal/Mol        Cal/Mol-Kelvin    Cal/Mol-Kelvin
 Total                   24.374             11.667             63.871
 Electronic               0.000              0.000              0.000
 Translational            0.889              2.981             37.827
 Rotational               0.889              2.981             22.272
 Vibrational             22.596              5.706              3.772
 Vibration     1          0.707              1.631              1.299
 Vibration     2          0.707              1.631              1.299
 Vibration     3          0.762              1.481              0.982

 Optimization completed.
    -- Stationary point found.
 Normal termination of Gaussian 16 at Wed Oct 21 14:29:59 2020.
