 Gaussian 16, Revision A.03,
 Gaussian 16:  ES64L-G16RevA.03 25-Dec-2016

 ----------------------------------------------------------------------
 #P Opt(MaxCyc=150) PM6 5D 7F Integral=UltraFineGrid SCF=(NoSymm,XQC,Ma
 xCyc=120) IOp(1/33=1)
 ----------------------------------------------------------------------

 TstMul:  Mul=     1
 TstMul:  ICh=    -1
 TstMul:  Mul=     1
 Symbolic Z-matrix:
 Charge = -1 Multiplicity = 1

 SCF Done:  E(RPM6) = -0.194709389094     A.U. after   12 cycles
 SCF Done:  E(RPM6) = -0.196175192984     A.U. after   10 cycles
 SCF Done:  E(RPM6) = -0.196473053563     A.U. after    9 cycles
 SCF Done:  E(RPM6) = -0.196770218529     A.U. after    9 cycles
 SCF Done:  E(RPM6) = -0.196953858921     A.U. after    9 cycles
 SCF Done:  E(RPM6) = -0.197093405860     A.U. after    9 cycles
 SCF Done:  E(RPM6) = -0.197139045737     A.U. after    8 cycles
 SCF Done:  E(RPM6) = -0.197151494645     A.U. after    8 cycles
 SCF Done:  E(RPM6) = -0.197154002954     A.U. after    8 cycles
 Optimization completed.
    -- Stationary point found.

                         Standard orientation:
 ---------------------------------------------------------------------
 Center     Atomic      Atomic             Coordinates (Angstroms)
 Number     Number       Type             X           Y           Z
 ---------------------------------------------------------------------
      1          9           0        0.000000    0.000000   -1.903695
      2          6           0        0.000000    0.000000   -0.522578
      3          1           0       -0.000000    1.037038   -0.170298
      4          1           0       -0.898102   -0.518519   -0.170298
      5          1           0        0.898102   -0.518519   -0.170298
      6          9           0        0.000000    0.000000    2.308846
 ---------------------------------------------------------------------

 The electronic state is 1-A1.
 Alpha  occ. eigenvalues --   -1.35438  -0.92398  -0.75360  -0.47656  -0.47656
 Alpha  occ. eigenvalues --   -0.43082  -0.32691  -0.32691  -0.14721  -0.14717
 Alpha  occ. eigenvalues --   -0.14717
 Alpha virt. eigenvalues --    0.26243   0.36233   0.36233   0.38494

 Mulliken charges:
               1
     1  F   -0.267709
     2  C   -0.195748
     3  H    0.154060
     4  H    0.154060
     5  H    0.154060
     6  F   -0.998723
 Sum of Mulliken charges =  -1.00000

 Dipole moment (field-independent basis, Debye):
    X=              0.0000    Y=             -0.0000    Z=             -8.7081  Tot=              8.7081
 N-N= 7.407505278640D+01 E-N=-6.668745258811D+01  KE=-7.083442645762D+01
 Leave Link  601 at Wed Oct 21 14:29:49 2020, MaxMem=  2684354560 cpu:               2.2 elap:               0.8
 (Enter /udrive/faculty/rpeverati/g16/g16/l9999.exe)

 Test job not archived.
 1\1\GINC-NODE01\FOpt\RPM6\ZDO\C1H3F2(1-)\RPEVERATI\21-Oct-2020\0\\#P O
 pt(MaxCyc=150) PM6 5D 7F Integral=UltraFineGrid SCF=(NoSymm,XQC,MaxCyc
 =120) IOp(1/33=1)\\TS search on BH76.\\-1,1\F,0.,0.,-1.7989551318\C,0.
 ,0.,-0.4178373368\H,-0.5185191905,0.8981015827,-0.0655572807\H,-0.5185
 191905,-0.8981015827,-0.0655572807\H,1.037038381,0.,-0.0655572807\F,0.

 Normal termination of Gaussian 16 at Wed Oct 21 14:29:51 2020.
