 Gaussian 16, Revision A.03,

 ----------------------------------------------------------------------
 #P Opt(TS,MaxCyc=50,NoEigenTest,MaxStep=10,AddRedundant) PM6 5D 7F Int
 egral=UltraFineGrid SCF=(NoSymm,XQC,MaxCyc=120) IOp(1/33=1)
 ----------------------------------------------------------------------

 TstMul:  Mul=     1
 TstMul:  ICh=     0
 TstMul:  Mul=     1
 Symbolic Z-matrix:
 Charge =  0 Multiplicity = 1

 SCF Done:  E(RPM6) =  0.197197171812     A.U. after   14 cycles
 SCF Done:  E(RPM6) =  0.196966538726     A.U. after   12 cycles
 SCF Done:  E(RPM6) =  0.191996250107     A.U. after   12 cycles
 SCF Done:  E(RPM6) =  0.190069004005     A.U. after   12 cycles
 SCF Done:  E(RPM6) =  0.190024507768     A.U. after   11 cycles
 SCF Done:  E(RPM6) =  0.190024537831     A.U. after   10 cycles
 Optimization completed.
    -- Stationary point found.
 Normal termination of Gaussian 16 at Wed Oct 21 14:29:46 2020.
 Gaussian 16:  ES64L-G16RevA.03 25-Dec-2016

 ----------------------------------------------------------------------
 #P Freq PM6 5D 7F Integral=UltraFineGrid SCF=(NoSymm,XQC,MaxCyc=120) I
 Op(1/33=1) Geom=Check Guess=Read
 ----------------------------------------------------------------------

 TstMul:  Mul=     1
 TstMul:  ICh=     0
 TstMul:  Mul=     1
 Structure from the checkpoint file:  "MN_49_hcnts_BH76_PM6_SE.chk"
 Charge =  0 Multiplicity = 1

                         Standard orientation:
 ---------------------------------------------------------------------
 Center     Atomic      Atomic             Coordinates (Angstroms)
 Number     Number       Type             X           Y           Z
 ---------------------------------------------------------------------
      1          6           0        0.089828    0.631203    0.000000
      2          7           0        0.089828   -0.570539    0.000000
      3          1           0       -1.167768    0.206558    0.000000
 ---------------------------------------------------------------------

 SCF Done:  E(RPM6) =  0.190024537831     A.U. after    2 cycles

 The electronic state is 1-A'.
 Alpha  occ. eigenvalues --   -1.18412  -0.63059  -0.57659  -0.49759  -0.41453
 Alpha virt. eigenvalues --   -0.00904   0.03964   0.06105   0.19109

 Mulliken charges:
               1
     1  C   -0.029347
     2  N   -0.318907
     3  H    0.348254
 Sum of Mulliken charges =  -0.00000

 Dipole moment (field-independent basis, Debye):
    X=             -2.5442    Y=              0.3875    Z=             -0.0000  Tot=              2.5736
 N-N= 2.137135787704D+01 E-N=-1.731913957365D+01  KE=-1.843666866190D+01
  Exact polarizability:  10.844   0.782  22.941  -0.000   0.000   4.760
 Approx polarizability:   7.684  -0.072  19.614  -0.000   0.000   2.518
 Leave Link  601 at Wed Oct 21 14:30:08 2020, MaxMem=  2684354560 cpu:               2.9 elap:               0.9
 (Enter /udrive/faculty/rpeverati/g16/g16/l701.exe)
 ... and contract with generalized density number  0.
 Compute integral second derivatives.
 Leave Link  701 at Wed Oct 21 14:30:10 2020, MaxMem=  2684354560 cpu:               3.9 elap:               1.0
 (Enter /udrive/faculty/rpeverati/g16/g16/l702.exe)
 L702 exits ... SP integral derivatives will be done elsewhere.

 ******    1 imaginary frequencies (negative Signs) ******

                      1                      2                      3
                     A'                     A'                     A'
 Frequencies --  -1397.7863              1958.9159              2410.1717
 Red. masses --      1.2122                 5.5855                 1.1594
 Frc consts  --      1.3954                12.6284                 3.9680
 IR Inten    --     14.6052               214.1049               235.9724

 - Thermochemistry -
 -------------------
 Temperature   298.150 Kelvin.  Pressure   1.00000 Atm.
 Atom     1 has atomic number  6 and mass  12.00000

 Molecular mass:    27.01090 amu.
 Principal axes and moments of inertia in atomic units:
                           1         2         3
     Eigenvalues --     5.44612  33.53234  38.97846
           X           -0.03454   0.99940   0.00000
           Y            0.99940   0.03454   0.00000
           Z            0.00000   0.00000   1.00000
 This molecule is an asymmetric top.
 Rotational symmetry number  1.
 Rotational temperatures (Kelvin)     15.90379     2.58300     2.22210
 Rotational constants (GHZ):         331.38118    53.82092    46.30099
    1 imaginary frequencies ignored.
 Zero-point vibrational energy      26132.9 (Joules/Mol)
                                    6.24592 (Kcal/Mol)
 Vibrational temperatures:   2818.44  3467.70
          (Kelvin)

 Zero-point correction=                           0.009954 (Hartree/Particle)
 Thermal correction to Energy=                    0.012787
 Thermal correction to Enthalpy=                  0.013731
 Thermal correction to Gibbs Free Energy=        -0.011182
 Sum of electronic and zero-point Energies=              0.199978
 Sum of electronic and thermal Energies=                 0.202811
 Sum of electronic and thermal Enthalpies=               0.203756
 Sum of electronic and thermal Free Energies=            0.178842

                     E (Thermal)             CV                S
                      KCal/Mol        Cal/Mol-Kelvin    Cal/Mol-Kelvin
 Total                    8.024              5.978             52.435
 Electronic               0.000              0.000              0.000
 Translational            0.889              2.981             35.816
 Rotational               0.889              2.981             16.617
 Vibrational              6.246              0.016              0.002

 Optimization completed.
    -- Stationary point found.
 Normal termination of Gaussian 16 at Wed Oct 21 14:30:17 2020.
