 Gaussian 16, Revision A.03,
 Gaussian 16:  ES64L-G16RevA.03 25-Dec-2016

 ----------------------------------------------------------------------
 #P Opt(MaxCyc=150) PM6 5D 7F Integral=UltraFineGrid SCF=(NoSymm,XQC,Ma
 xCyc=120) IOp(1/33=1)
 ----------------------------------------------------------------------

 TstMul:  Mul=     1
 TstMul:  ICh=     0
 TstMul:  Mul=     1
 Symbolic Z-matrix:
 Charge =  0 Multiplicity = 1

 SCF Done:  E(RPM6) =  0.530535427034E-01 A.U. after   11 cycles
 SCF Done:  E(RPM6) =  0.529734285500E-01 A.U. after    8 cycles
 SCF Done:  E(RPM6) =  0.529661419618E-01 A.U. after    8 cycles
 Optimization completed.
    -- Stationary point found.

                         Standard orientation:
 ---------------------------------------------------------------------
 Center     Atomic      Atomic             Coordinates (Angstroms)
 Number     Number       Type             X           Y           Z
 ---------------------------------------------------------------------
      1          6           0        0.000000    0.000000   -0.501202
      2          7           0        0.000000    0.000000    0.651564
      3          1           0        0.000000    0.000000   -1.553732
 ---------------------------------------------------------------------

 The electronic state is 1-SG.
 Alpha  occ. eigenvalues --   -1.17211  -0.75883  -0.51874  -0.51874  -0.48236
 Alpha virt. eigenvalues --    0.03640   0.03640   0.15304   0.20143

 Mulliken charges:
               1
     1  C   -0.064148
     2  N   -0.152651
     3  H    0.216800
 Sum of Mulliken charges =  -0.00000

 Dipole moment (field-independent basis, Debye):
    X=             -0.0000    Y=              0.0000    Z=             -2.6456  Tot=              2.6456
 N-N= 2.144526573780D+01 E-N=-1.750767557147D+01  KE=-1.837538710094D+01
 Leave Link  601 at Wed Oct 21 14:28:48 2020, MaxMem=  2684354560 cpu:               4.2 elap:               1.1
 (Enter /udrive/faculty/rpeverati/g16/g16/l9999.exe)

 Test job not archived.
 1\1\GINC-NODE21\FOpt\RPM6\ZDO\C1H1N1\RPEVERATI\21-Oct-2020\0\\#P Opt(M
 axCyc=150) PM6 5D 7F Integral=UltraFineGrid SCF=(NoSymm,XQC,MaxCyc=120
 ) IOp(1/33=1)\\TS search on BH76.\\0,1\C,0.,0.,-0.5047507714\N,0.,0.,0
 .64801494\H,0.,0.,-1.5572801811\\Version=ES64L-G16RevA.03\State=1-SG\H
 F=0.0529661\RMSD=7.534e-10\RMSF=2.809e-05\Dipole=0.,0.,-1.0408521\PG=C

 Normal termination of Gaussian 16 at Wed Oct 21 14:28:50 2020.
