 Gaussian 16, Revision A.03,

 ----------------------------------------------------------------------
 #P Opt(TS,MaxCyc=50,NoEigenTest,MaxStep=10,AddRedundant) PM6 5D 7F Int
 egral=UltraFineGrid SCF=(NoSymm,XQC,MaxCyc=120) IOp(1/33=1)
 ----------------------------------------------------------------------

 TstMul:  Mul=     2
 TstMul:  ICh=     0
 TstMul:  Mul=     2
 Symbolic Z-matrix:
 Charge =  0 Multiplicity = 2

 SCF Done:  E(UPM6) =  0.198430497026     A.U. after   10 cycles
 SCF Done:  E(UPM6) =  0.193408084932     A.U. after   86 cycles
 SCF Done:  E(UPM6) =  0.188675211255     A.U. after    8 cycles
 SCF Done:  E(UPM6) =  0.184685797725     A.U. after    8 cycles
 SCF Done:  E(UPM6) =  0.181551510249     A.U. after    8 cycles
 SCF Done:  E(UPM6) =  0.179392540359     A.U. after   10 cycles
 SCF Done:  E(UPM6) =  0.178338095191     A.U. after    8 cycles
 SCF Done:  E(UPM6) =  0.178255946264     A.U. after    7 cycles
 Optimization completed.
    -- Stationary point found.
 Normal termination of Gaussian 16 at Wed Oct 21 14:31:13 2020.
 Gaussian 16:  ES64L-G16RevA.03 25-Dec-2016

 ----------------------------------------------------------------------
 #P Freq PM6 5D 7F Integral=UltraFineGrid SCF=(NoSymm,XQC,MaxCyc=120) I
 Op(1/33=1) Geom=Check Guess=Read
 ----------------------------------------------------------------------

 TstMul:  Mul=     2
 TstMul:  ICh=     0
 TstMul:  Mul=     2
 Structure from the checkpoint file:  "MN_45_hclhts_BH76_PM6_SE.chk"
 Charge =  0 Multiplicity = 2

                         Standard orientation:
 ---------------------------------------------------------------------
 Center     Atomic      Atomic             Coordinates (Angstroms)
 Number     Number       Type             X           Y           Z
 ---------------------------------------------------------------------
      1          1           0       -0.000000    1.318568    0.005197
      2         17           0        0.000000   -0.000000   -0.000611
      3          1           0        0.000000   -1.318568    0.005197
 ---------------------------------------------------------------------

 SCF Done:  E(UPM6) =  0.178255946264     A.U. after    2 cycles

 The electronic state is 2-B1.
 Alpha  occ. eigenvalues --   -0.94772  -0.65977  -0.49060  -0.43820  -0.29511
 Alpha virt. eigenvalues --    0.16828   2.75318   2.75821   2.80584   2.84497
 Alpha virt. eigenvalues --    2.85954
  Beta  occ. eigenvalues --   -0.76993  -0.64485  -0.41144  -0.28856
  Beta virt. eigenvalues --   -0.13868   0.17920   2.80280   2.80282   2.85145
  Beta virt. eigenvalues --    2.85242   2.87501

 Mulliken charges and spin densities:
               1          2
     1  H   -0.425734  -0.013593
     2  Cl   0.851467   1.027186
     3  H   -0.425734  -0.013593
 Sum of Mulliken charges =   0.00000   1.00000

 Dipole moment (field-independent basis, Debye):
    X=             -0.0000    Y=             -0.0000    Z=             -0.0240  Tot=              0.0240
 N-N= 1.503756439263D+01 E-N=-1.024622065336D+01  KE=-1.452619868157D+01
  Exact polarizability:   4.990   0.000  40.415   0.000  -0.000   2.075
 Approx polarizability:   5.221  -0.000  36.711   0.000  -0.000   1.759
 Leave Link  601 at Wed Oct 21 14:31:45 2020, MaxMem=  2684354560 cpu:               2.4 elap:               1.1
 (Enter /udrive/faculty/rpeverati/g16/g16/l701.exe)
 ... and contract with generalized density number  0.
 Compute integral second derivatives.
 Leave Link  701 at Wed Oct 21 14:31:47 2020, MaxMem=  2684354560 cpu:               4.7 elap:               1.6
 (Enter /udrive/faculty/rpeverati/g16/g16/l702.exe)
 L702 exits ... SP integral derivatives will be done elsewhere.

                      1                      2                      3
                     A1                     A1                     B2
 Frequencies --   1159.7784              2625.9564              2761.9786
 Red. masses --      1.0641                 1.0078                 1.0641
 Frc consts  --      0.8433                 4.0946                 4.7829
 IR Inten    --    379.9887                 0.0001              1188.0876

 - Thermochemistry -
 -------------------
 Temperature   298.150 Kelvin.  Pressure   1.00000 Atm.
 Atom     1 has atomic number  1 and mass   1.00783

 Molecular mass:    36.98450 amu.
 Principal axes and moments of inertia in atomic units:
                           1         2         3
     Eigenvalues --     0.00023  12.51463  12.51486
           X           -0.00000   0.00000   1.00000
           Y            1.00000   0.00000   0.00000
           Z            0.00000   1.00000   0.00000
 This molecule is an asymmetric top.
 Rotational symmetry number  2.
 Rotational temperatures (Kelvin) 377166.43858     6.92101     6.92089
 Rotational constants (GHZ):      ************   144.21053   144.20789
 Zero-point vibrational energy      39164.0 (Joules/Mol)
                                    9.36043 (Kcal/Mol)
 Vibrational temperatures:   1668.66  3778.17  3973.87
          (Kelvin)

 Zero-point correction=                           0.014917 (Hartree/Particle)
 Thermal correction to Energy=                    0.017769
 Thermal correction to Enthalpy=                  0.018713
 Thermal correction to Gibbs Free Energy=        -0.000910
 Sum of electronic and zero-point Energies=              0.193173
 Sum of electronic and thermal Energies=                 0.196025
 Sum of electronic and thermal Enthalpies=               0.196969
 Sum of electronic and thermal Free Energies=            0.177346

                     E (Thermal)             CV                S
                      KCal/Mol        Cal/Mol-Kelvin    Cal/Mol-Kelvin
 Total                   11.150              6.196             41.301
 Electronic               0.000              0.000              1.377
 Translational            0.889              2.981             36.753
 Rotational               0.889              2.981              3.122
 Vibrational              9.373              0.234              0.049

                           ! Non-Optimized Parameters !
 Normal termination of Gaussian 16 at Wed Oct 21 14:31:58 2020.
