 Gaussian 16, Revision A.03,
 Gaussian 16:  ES64L-G16RevA.03 25-Dec-2016

 ----------------------------------------------------------------------
 #P Opt(MaxCyc=150) PM6 5D 7F Integral=UltraFineGrid SCF=(NoSymm,XQC,Ma
 xCyc=120) IOp(1/33=1)
 ----------------------------------------------------------------------

 TstMul:  Mul=     1
 TstMul:  ICh=     0
 TstMul:  Mul=     1
 Symbolic Z-matrix:
 Charge =  0 Multiplicity = 1

 SCF Done:  E(RPM6) = -0.236737318310E-02 A.U. after   15 cycles
 SCF Done:  E(RPM6) = -0.268948407817E-02 A.U. after   11 cycles
 SCF Done:  E(RPM6) = -0.269201514974E-02 A.U. after   10 cycles
 Optimization completed.
    -- Stationary point found.

                         Standard orientation:
 ---------------------------------------------------------------------
 Center     Atomic      Atomic             Coordinates (Angstroms)
 Number     Number       Type             X           Y           Z
 ---------------------------------------------------------------------
      1         16           0       -0.000000    0.000000    0.101231
      2          1           0        0.000000    0.996026   -0.809851
      3          1           0       -0.000000   -0.996026   -0.809851
 ---------------------------------------------------------------------

 The electronic state is 1-A1.
 Alpha  occ. eigenvalues --   -1.10961  -0.53712  -0.43021  -0.34697
 Alpha virt. eigenvalues --    0.01674   0.04251   0.07424   0.07827   0.07901
 Alpha virt. eigenvalues --    0.10977   0.13956

 Mulliken charges:
               1
     1  S   -0.370185
     2  H    0.185093
     3  H    0.185093
 Sum of Mulliken charges =  -0.00000

 Dipole moment (field-independent basis, Debye):
    X=             -0.0000    Y=             -0.0000    Z=             -1.3122  Tot=              1.3122
 N-N= 1.134813822857D+01 E-N=-6.685244111906D+00  KE=-1.116858712305D+01
 Leave Link  601 at Wed Oct 21 14:29:08 2020, MaxMem=  2684354560 cpu:               3.7 elap:               1.4
 (Enter /udrive/faculty/rpeverati/g16/g16/l9999.exe)

 Test job not archived.
 1\1\GINC-NODE62\FOpt\RPM6\ZDO\H2S1\RPEVERATI\21-Oct-2020\0\\#P Opt(Max
 Cyc=150) PM6 5D 7F Integral=UltraFineGrid SCF=(NoSymm,XQC,MaxCyc=120)
 IOp(1/33=1)\\TS search on BH76.\\0,1\S,0.,0.,0.0947905536\H,0.,0.99602
 62193,-0.8162916162\H,0.,-0.9960262193,-0.8162916162\\Version=ES64L-G1
 6RevA.03\State=1-A1\HF=-0.002692\RMSD=4.670e-09\RMSF=6.152e-05\Dipole=

 Normal termination of Gaussian 16 at Wed Oct 21 14:29:11 2020.
