 Gaussian 16, Revision A.03,
 Gaussian 16:  ES64L-G16RevA.03 25-Dec-2016

 ----------------------------------------------------------------------
 #P Opt(MaxCyc=150) PM6 5D 7F Integral=UltraFineGrid SCF=(NoSymm,XQC,Ma
 xCyc=120) IOp(1/33=1)
 ----------------------------------------------------------------------

 TstMul:  Mul=     1
 TstMul:  ICh=     0
 TstMul:  Mul=     1
 Symbolic Z-matrix:
 Charge =  0 Multiplicity = 1

 SCF Done:  E(RPM6) = -0.506479367849E-01 A.U. after    9 cycles
 SCF Done:  E(RPM6) = -0.509921840904E-01 A.U. after    7 cycles
 SCF Done:  E(RPM6) = -0.509979318788E-01 A.U. after    7 cycles
 Optimization completed.
    -- Stationary point found.

                         Standard orientation:
 ---------------------------------------------------------------------
 Center     Atomic      Atomic             Coordinates (Angstroms)
 Number     Number       Type             X           Y           Z
 ---------------------------------------------------------------------
      1         17           0        0.000000    0.000000    0.072095
      2          1           0        0.000000    0.000000   -1.225621
 ---------------------------------------------------------------------

 The electronic state is 1-SG.
 Alpha  occ. eigenvalues --   -0.99107  -0.59894  -0.42610  -0.42610
 Alpha virt. eigenvalues --    0.07683   3.26427   3.27051   3.27051   3.30296
 Alpha virt. eigenvalues --    3.30296

 Mulliken charges:
               1
     1  Cl  -0.224245
     2  H    0.224245
 Sum of Mulliken charges =   0.00000

 Dipole moment (field-independent basis, Debye):
    X=             -0.0000    Y=              0.0000    Z=             -1.5179  Tot=              1.5179
 N-N= 1.212248307428D+01 E-N=-3.809953114268D+00  KE=-1.565259015820D+01
 Leave Link  601 at Wed Oct 21 14:28:46 2020, MaxMem=  2684354560 cpu:               2.4 elap:               0.9
 (Enter /udrive/faculty/rpeverati/g16/g16/l9999.exe)

 Test job not archived.
 1\1\GINC-NODE20\FOpt\RPM6\ZDO\Cl1H1\RPEVERATI\21-Oct-2020\0\\#P Opt(Ma
 xCyc=150) PM6 5D 7F Integral=UltraFineGrid SCF=(NoSymm,XQC,MaxCyc=120)
  IOp(1/33=1)\\TS search on BH76.\\0,1\Cl,0.,0.,0.0824369047\H,0.,0.,-1
 .2152793688\\Version=ES64L-G16RevA.03\State=1-SG\HF=-0.0509979\RMSD=9.
 493e-11\RMSF=1.235e-07\Dipole=0.,0.,-0.59718\PG=C*V [C*(H1Cl1)]\\@

 Normal termination of Gaussian 16 at Wed Oct 21 14:28:48 2020.
