 Gaussian 16, Revision A.03,
 Gaussian 16:  ES64L-G16RevA.03 25-Dec-2016

 ----------------------------------------------------------------------
 #P Opt(MaxCyc=150) PM6 5D 7F Integral=UltraFineGrid SCF=(NoSymm,XQC,Ma
 xCyc=120) IOp(1/33=1)
 ----------------------------------------------------------------------

 TstMul:  Mul=     1
 TstMul:  ICh=     0
 TstMul:  Mul=     1
 Symbolic Z-matrix:
 Charge =  0 Multiplicity = 1

 SCF Done:  E(RPM6) = -0.405293158178E-01 A.U. after    2 cycles
 SCF Done:  E(RPM6) = -0.409113442232E-01 A.U. after    2 cycles
 SCF Done:  E(RPM6) = -0.410066797000E-01 A.U. after    2 cycles
 Optimization completed.
    -- Stationary point found.

                         Standard orientation:
 ---------------------------------------------------------------------
 Center     Atomic      Atomic             Coordinates (Angstroms)
 Number     Number       Type             X           Y           Z
 ---------------------------------------------------------------------
      1          1           0        0.000000    0.000000    0.381869
      2          1           0        0.000000    0.000000   -0.381869
 ---------------------------------------------------------------------

 The electronic state is 1-SGG.
 Alpha  occ. eigenvalues --   -0.55280
 Alpha virt. eigenvalues --    0.25714

 Mulliken charges:
               1
     1  H    0.000000
     2  H    0.000000
 Sum of Mulliken charges =   0.00000

 Dipole moment (field-independent basis, Debye):
    X=              0.0000    Y=              0.0000    Z=              0.0000  Tot=              0.0000
 N-N= 1.540801891234D+00 E-N=-8.429108405600D-01  KE=-1.215115160769D+00
 Leave Link  601 at Wed Oct 21 14:28:35 2020, MaxMem=  2684354560 cpu:               2.9 elap:               0.9
 (Enter /udrive/faculty/rpeverati/g16/g16/l9999.exe)

 Test job not archived.
 1\1\GINC-NODE38\FOpt\RPM6\ZDO\H2\RPEVERATI\21-Oct-2020\0\\#P Opt(MaxCy
 c=150) PM6 5D 7F Integral=UltraFineGrid SCF=(NoSymm,XQC,MaxCyc=120) IO
 p(1/33=1)\\TS search on BH76.\\0,1\H,0.,0.,0.3818687486\H,0.,0.,-0.381
 8687486\\Version=ES64L-G16RevA.03\State=1-SGG\HF=-0.0410067\RMSD=2.220
 e-16\RMSF=1.005e-06\Dipole=0.,0.,0.\PG=D*H [C*(H1.H1)]\\@

 Normal termination of Gaussian 16 at Wed Oct 21 14:28:37 2020.
