 Gaussian 16, Revision A.03,
 Gaussian 16:  ES64L-G16RevA.03 25-Dec-2016

 ----------------------------------------------------------------------
 #P Opt(MaxCyc=150) PM6 5D 7F Integral=UltraFineGrid SCF=(NoSymm,XQC,Ma
 xCyc=120) IOp(1/33=1)
 ----------------------------------------------------------------------

 TstMul:  Mul=     1
 TstMul:  ICh=     0
 TstMul:  Mul=     1
 Symbolic Z-matrix:
 Charge =  0 Multiplicity = 1

 SCF Done:  E(RPM6) = -0.862494957063E-01 A.U. after    9 cycles
 SCF Done:  E(RPM6) = -0.863694669035E-01 A.U. after    7 cycles
 SCF Done:  E(RPM6) = -0.863911677128E-01 A.U. after    7 cycles
 SCF Done:  E(RPM6) = -0.864067904280E-01 A.U. after    7 cycles
 Optimization completed.
    -- Stationary point found.

                         Standard orientation:
 ---------------------------------------------------------------------
 Center     Atomic      Atomic             Coordinates (Angstroms)
 Number     Number       Type             X           Y           Z
 ---------------------------------------------------------------------
      1          8           0       -0.000000   -0.000000    0.112134
      2          1           0        0.000000    0.766123   -0.448535
      3          1           0       -0.000000   -0.766123   -0.448535
 ---------------------------------------------------------------------

 The electronic state is 1-A1.
 Alpha  occ. eigenvalues --   -1.11682  -0.69763  -0.51849  -0.43742
 Alpha virt. eigenvalues --    0.14924   0.22192

 Mulliken charges:
               1
     1  O   -0.618853
     2  H    0.309427
     3  H    0.309427
 Sum of Mulliken charges =   0.00000

 Dipole moment (field-independent basis, Debye):
    X=             -0.0000    Y=              0.0000    Z=             -2.0680  Tot=              2.0680
 N-N= 1.675759568933D+01 E-N=-7.966647379447D+00  KE=-2.018064103727D+01
 Leave Link  601 at Wed Oct 21 14:28:56 2020, MaxMem=  2684354560 cpu:               1.7 elap:               0.9
 (Enter /udrive/faculty/rpeverati/g16/g16/l9999.exe)

 Test job not archived.
 1\1\GINC-NODE59\FOpt\RPM6\ZDO\H2O1\RPEVERATI\21-Oct-2020\0\\#P Opt(Max
 Cyc=150) PM6 5D 7F Integral=UltraFineGrid SCF=(NoSymm,XQC,MaxCyc=120)
 IOp(1/33=1)\\TS search on BH76.\\0,1\O,0.,0.,0.1004393462\H,0.,0.76612
 29915,-0.4602293511\H,0.,-0.7661229915,-0.4602293511\\Version=ES64L-G1
 6RevA.03\State=1-A1\HF=-0.0864068\RMSD=3.923e-11\RMSF=1.205e-04\Dipole

 Normal termination of Gaussian 16 at Wed Oct 21 14:28:58 2020.
