 Gaussian 16, Revision A.03,
 Gaussian 16:  ES64L-G16RevA.03 25-Dec-2016

 ----------------------------------------------------------------------
 #P Opt(MaxCyc=150) PM6 5D 7F Integral=UltraFineGrid SCF=(NoSymm,XQC,Ma
 xCyc=120) IOp(1/33=1)
 ----------------------------------------------------------------------

 TstMul:  Mul=     2
 TstMul:  ICh=     0
 TstMul:  Mul=     2
 Symbolic Z-matrix:
 Charge =  0 Multiplicity = 2

 SCF Done:  E(UPM6) =  0.100139170093     A.U. after   16 cycles
 SCF Done:  E(UPM6) =  0.938746869531E-01 A.U. after   16 cycles
 SCF Done:  E(UPM6) =  0.925383673961E-01 A.U. after   15 cycles
 SCF Done:  E(UPM6) =  0.924217049351E-01 A.U. after   15 cycles
 SCF Done:  E(UPM6) =  0.924150158148E-01 A.U. after   12 cycles
 SCF Done:  E(UPM6) =  0.924144625128E-01 A.U. after   12 cycles
 Optimization completed.
    -- Stationary point found.

                         Standard orientation:
 ---------------------------------------------------------------------
 Center     Atomic      Atomic             Coordinates (Angstroms)
 Number     Number       Type             X           Y           Z
 ---------------------------------------------------------------------
      1          7           0       -0.044908    0.672551    0.000000
      2          7           0       -0.044908   -0.493808    0.000000
      3          1           0        0.628709   -1.251197    0.000000
 ---------------------------------------------------------------------

 The electronic state is 2-A'.
 Alpha  occ. eigenvalues --   -1.32420  -0.88114  -0.62281  -0.56920  -0.52279
 Alpha  occ. eigenvalues --   -0.34269
 Alpha virt. eigenvalues --    0.00317   0.08769   0.20130
  Beta  occ. eigenvalues --   -1.29928  -0.85181  -0.55178  -0.54688  -0.48024
  Beta virt. eigenvalues --    0.02508   0.02609   0.11159   0.23870

 Mulliken charges and spin densities:
               1          2
     1  N   -0.147358   0.662852
     2  N   -0.094780   0.246059
     3  H    0.242137   0.091089
 Sum of Mulliken charges =   0.00000   1.00000

 Dipole moment (field-independent basis, Debye):
    X=              1.5559    Y=             -2.3536    Z=             -0.0000  Tot=              2.8214
 N-N= 2.544813325783D+01 E-N=-2.104370649261D+01  KE=-2.167490162005D+01
 Leave Link  601 at Wed Oct 21 14:30:30 2020, MaxMem=  2684354560 cpu:               2.7 elap:               0.9
 (Enter /udrive/faculty/rpeverati/g16/g16/l9999.exe)

 Test job not archived.
 1\1\GINC-NODE21\FOpt\UPM6\ZDO\H1N2(2)\RPEVERATI\21-Oct-2020\0\\#P Opt(
 MaxCyc=150) PM6 5D 7F Integral=UltraFineGrid SCF=(NoSymm,XQC,MaxCyc=12
 0) IOp(1/33=1)\\TS search on BH76.\\0,2\N,-0.1513930941,0.6933506664,0
 .\N,0.0525237037,-0.4550446499,0.\H,0.8481811459,-1.0829987891,0.\\Ver
 sion=ES64L-G16RevA.03\State=2-A'\HF=0.0924145\S2=0.754028\S2-1=0.\S2A=

 Normal termination of Gaussian 16 at Wed Oct 21 14:30:33 2020.
