 Gaussian 16, Revision A.03,

 ----------------------------------------------------------------------
 #P Opt(TS,MaxCyc=50,NoEigenTest,MaxStep=10,AddRedundant) PM6 5D 7F Int
 egral=UltraFineGrid SCF=(NoSymm,XQC,MaxCyc=120) IOp(1/33=1)
 ----------------------------------------------------------------------

 TstMul:  Mul=     2
 TstMul:  ICh=     0
 TstMul:  Mul=     2
 Symbolic Z-matrix:
 Charge =  0 Multiplicity = 2

 SCF Done:  E(UPM6) =  0.867230771591E-01 A.U. after   15 cycles
 SCF Done:  E(UPM6) =  0.859631870283E-01 A.U. after   11 cycles
 SCF Done:  E(UPM6) =  0.868678287946E-01 A.U. after   11 cycles
 SCF Done:  E(UPM6) =  0.872644666051E-01 A.U. after   11 cycles
 SCF Done:  E(UPM6) =  0.874237354501E-01 A.U. after   10 cycles
 SCF Done:  E(UPM6) =  0.874463093062E-01 A.U. after    9 cycles
 SCF Done:  E(UPM6) =  0.874477374405E-01 A.U. after    8 cycles
 Optimization completed.
    -- Stationary point found.
 Normal termination of Gaussian 16 at Wed Oct 21 14:30:04 2020.
 Gaussian 16:  ES64L-G16RevA.03 25-Dec-2016

 ----------------------------------------------------------------------
 #P Freq PM6 5D 7F Integral=UltraFineGrid SCF=(NoSymm,XQC,MaxCyc=120) I
 Op(1/33=1) Geom=Check Guess=Read
 ----------------------------------------------------------------------

 TstMul:  Mul=     2
 TstMul:  ICh=     0
 TstMul:  Mul=     2
 Structure from the checkpoint file:  "MN_52_hf2ts_BH76_PM6_SE.chk"
 Charge =  0 Multiplicity = 2

                         Standard orientation:
 ---------------------------------------------------------------------
 Center     Atomic      Atomic             Coordinates (Angstroms)
 Number     Number       Type             X           Y           Z
 ---------------------------------------------------------------------
      1          1           0        0.000000    0.000000   -2.344929
      2          9           0        0.000000    0.000000   -0.591824
      3          9           0        0.000000    0.000000    0.852371
 ---------------------------------------------------------------------

 SCF Done:  E(UPM6) =  0.874477374405E-01 A.U. after    2 cycles

 The electronic state is 2-SG.
 Alpha  occ. eigenvalues --   -1.55072  -1.54272  -0.64608  -0.64608  -0.59055
 Alpha  occ. eigenvalues --   -0.59055  -0.58077  -0.41494
 Alpha virt. eigenvalues --   -0.02171
  Beta  occ. eigenvalues --   -1.55178  -1.53730  -0.64716  -0.64716  -0.59227
  Beta  occ. eigenvalues --   -0.59227  -0.57071
  Beta virt. eigenvalues --   -0.03596   0.11063

 Mulliken charges and spin densities:
               1          2
     1  H    0.029901   0.957119
     2  F   -0.008328  -0.024705
     3  F   -0.021573   0.067586
 Sum of Mulliken charges =   0.00000   1.00000

 Dipole moment (field-independent basis, Debye):
    X=             -0.0000    Y=              0.0000    Z=             -0.4064  Tot=              0.4064
 N-N= 5.207335898357D+01 E-N=-3.358536106246D+01  KE=-5.768540241337D+01
  Exact polarizability:   0.003  -0.000   0.003  -0.000   0.000  37.268
 Approx polarizability:   0.001   0.000   0.001  -0.000   0.000  18.607
 Leave Link  601 at Wed Oct 21 14:30:26 2020, MaxMem=  2684354560 cpu:               2.9 elap:               0.9
 (Enter /udrive/faculty/rpeverati/g16/g16/l701.exe)
 ... and contract with generalized density number  0.
 Compute integral second derivatives.
 Leave Link  701 at Wed Oct 21 14:30:27 2020, MaxMem=  2684354560 cpu:               4.1 elap:               1.0
 (Enter /udrive/faculty/rpeverati/g16/g16/l702.exe)
 L702 exits ... SP integral derivatives will be done elsewhere.

 ******    1 imaginary frequencies (negative Signs) ******

                      1                      2                      3
                     SG                     PI                     PI
 Frequencies --   -638.1366               139.6162               139.6162
 Red. masses --      1.0904                 1.3249                 1.3249
 Frc consts  --      0.2616                 0.0152                 0.0152
 IR Inten    --    146.1093                 0.6356                 0.6356

                      4
                     SG
 Frequencies --    832.5765
 Red. masses --      9.6631
 Frc consts  --      3.9465
 IR Inten    --      7.4306

 - Thermochemistry -
 -------------------
 Temperature   298.150 Kelvin.  Pressure   1.00000 Atm.
 Atom     1 has atomic number  1 and mass   1.00783

 Molecular mass:    39.00463 amu.
 Principal axes and moments of inertia in atomic units:
                           1         2         3
     Eigenvalues --     0.00000  92.23166  92.23166
           X            0.00000   0.00000   1.00000
           Y            0.00000   1.00000   0.00000
           Z            1.00000   0.00000   0.00000
 This molecule is a prolate symmetric top.
 Rotational symmetry number  1.
 Rotational temperature (Kelvin)      0.93909
 Rotational constant (GHZ):          19.567481
    1 imaginary frequencies ignored.
 Zero-point vibrational energy       6650.1 (Joules/Mol)
                                    1.58941 (Kcal/Mol)
 Warning -- explicit consideration of   2 degrees of freedom as
           vibrations may cause significant error
 Vibrational temperatures:    200.88   200.88  1197.89
          (Kelvin)

 Zero-point correction=                           0.002533 (Hartree/Particle)
 Thermal correction to Energy=                    0.006286
 Thermal correction to Enthalpy=                  0.007230
 Thermal correction to Gibbs Free Energy=        -0.020101
 Sum of electronic and zero-point Energies=              0.089981
 Sum of electronic and thermal Energies=                 0.093734
 Sum of electronic and thermal Enthalpies=               0.094678
 Sum of electronic and thermal Free Energies=            0.067346

                     E (Thermal)             CV                S
                      KCal/Mol        Cal/Mol-Kelvin    Cal/Mol-Kelvin
 Total                    3.945              9.394             57.524
 Electronic               0.000              0.000              1.377
 Translational            0.889              2.981             36.912
 Rotational               0.592              1.987             13.434
 Vibrational              2.463              4.426              5.801
 Vibration     1          0.615              1.914              2.809
 Vibration     2          0.615              1.914              2.809

 Optimization completed.
    -- Stationary point found.
 Normal termination of Gaussian 16 at Wed Oct 21 14:30:34 2020.
