 Gaussian 16, Revision A.03,

 ----------------------------------------------------------------------
 #P Opt(TS,MaxCyc=50,NoEigenTest,MaxStep=10,AddRedundant) PM6 5D 7F Int
 egral=UltraFineGrid SCF=(NoSymm,XQC,MaxCyc=120) IOp(1/33=1)
 ----------------------------------------------------------------------

 TstMul:  Mul=     2
 TstMul:  ICh=     0
 TstMul:  Mul=     2
 Symbolic Z-matrix:
 Charge =  0 Multiplicity = 2

 SCF Done:  E(UPM6) =  0.197614845050     A.U. after    9 cycles
 SCF Done:  E(UPM6) =  0.194084939851     A.U. after    7 cycles
 SCF Done:  E(UPM6) =  0.191467281222     A.U. after    7 cycles
 SCF Done:  E(UPM6) =  0.189655081424     A.U. after    7 cycles
 SCF Done:  E(UPM6) =  0.188551726027     A.U. after    7 cycles
 SCF Done:  E(UPM6) =  0.188069757308     A.U. after    7 cycles
 SCF Done:  E(UPM6) =  0.188033174385     A.U. after   10 cycles
 SCF Done:  E(UPM6) =  0.188032814877     A.U. after    6 cycles
 Optimization completed.
    -- Stationary point found.
 Normal termination of Gaussian 16 at Wed Oct 21 14:31:36 2020.
 Gaussian 16:  ES64L-G16RevA.03 25-Dec-2016

 ----------------------------------------------------------------------
 #P Freq PM6 5D 7F Integral=UltraFineGrid SCF=(NoSymm,XQC,MaxCyc=120) I
 Op(1/33=1) Geom=Check Guess=Read
 ----------------------------------------------------------------------

 TstMul:  Mul=     2
 TstMul:  ICh=     0
 TstMul:  Mul=     2
 Structure from the checkpoint file:  "MN_54_hfhts_BH76_PM6_SE.chk"
 Charge =  0 Multiplicity = 2

                         Standard orientation:
 ---------------------------------------------------------------------
 Center     Atomic      Atomic             Coordinates (Angstroms)
 Number     Number       Type             X           Y           Z
 ---------------------------------------------------------------------
      1          1           0        0.000000    0.000000    1.275334
      2          9           0        0.000000    0.000000    0.000000
      3          1           0        0.000000    0.000000   -1.275334
 ---------------------------------------------------------------------

 SCF Done:  E(UPM6) =  0.188032814877     A.U. after    2 cycles

 The electronic state is 2-SGU.
 Alpha  occ. eigenvalues --   -1.33144  -0.56790  -0.48537  -0.48537  -0.17429
 Alpha virt. eigenvalues --   -0.09268
  Beta  occ. eigenvalues --   -1.30966  -0.56258  -0.50213  -0.50213
  Beta virt. eigenvalues --    0.03669   0.16988

 Mulliken charges and spin densities:
               1          2
     1  H    0.358873   0.380163
     2  F   -0.717746   0.239673
     3  H    0.358873   0.380163
 Sum of Mulliken charges =  -0.00000   1.00000

 Dipole moment (field-independent basis, Debye):
    X=              0.0000    Y=             -0.0000    Z=             -0.0000  Tot=              0.0000
 N-N= 2.299521104765D+01 E-N=-7.958245507255D+00  KE=-3.173525945281D+01
  Exact polarizability:   0.039   0.000   0.039  -0.000   0.000  -0.043
 Approx polarizability:   0.010   0.000   0.010  -0.000   0.000 113.721
 Leave Link  601 at Wed Oct 21 14:32:08 2020, MaxMem=  2684354560 cpu:               4.3 elap:               1.0
 (Enter /udrive/faculty/rpeverati/g16/g16/l701.exe)
 ... and contract with generalized density number  0.
 Compute integral second derivatives.
 Leave Link  701 at Wed Oct 21 14:32:10 2020, MaxMem=  2684354560 cpu:               3.3 elap:               1.1
 (Enter /udrive/faculty/rpeverati/g16/g16/l702.exe)
 L702 exits ... SP integral derivatives will be done elsewhere.

 ******    2 imaginary frequencies (negative Signs) ******

                      1                      2                      3
                     PIU                    PIU                    SGG
 Frequencies --  -1424.1862             -1424.1862              1693.1729
 Red. masses --      1.1085                 1.1085                 1.0078
 Frc consts  --      1.3247                 1.3247                 1.7023
 IR Inten    --    342.6986               342.6986                 0.0000

                      4
                     SGU
 Frequencies --   2635.5480
 Red. masses --      1.1085
 Frc consts  --      4.5366
 IR Inten    --  14896.6592

 - Thermochemistry -
 -------------------
 Temperature   298.150 Kelvin.  Pressure   1.00000 Atm.
 Atom     1 has atomic number  1 and mass   1.00783

 Molecular mass:    21.01405 amu.
 Principal axes and moments of inertia in atomic units:
                           1         2         3
     Eigenvalues --     0.00000  11.70740  11.70740
           X           -0.00000   0.70711   0.70711
           Y           -0.00000   0.70711  -0.70711
           Z            1.00000   0.00000   0.00000
 This molecule is a prolate symmetric top.
 Rotational symmetry number  2.
 Rotational temperature (Kelvin)      7.39822
 Rotational constant (GHZ):         154.153820
    2 imaginary frequencies ignored.
 Zero-point vibrational energy      25891.5 (Joules/Mol)
                                    6.18822 (Kcal/Mol)
 Vibrational temperatures:   2436.10  3791.97
          (Kelvin)

 Zero-point correction=                           0.009862 (Hartree/Particle)
 Thermal correction to Energy=                    0.012224
 Thermal correction to Enthalpy=                  0.013168
 Thermal correction to Gibbs Free Energy=        -0.007930
 Sum of electronic and zero-point Energies=              0.197894
 Sum of electronic and thermal Energies=                 0.200257
 Sum of electronic and thermal Enthalpies=               0.201201
 Sum of electronic and thermal Free Energies=            0.180103

                     E (Thermal)             CV                S
                      KCal/Mol        Cal/Mol-Kelvin    Cal/Mol-Kelvin
 Total                    7.671              5.007             44.406
 Electronic               0.000              0.000              1.377
 Translational            0.889              2.981             35.068
 Rotational               0.592              1.987              7.955
 Vibrational              6.190              0.039              0.005

 Optimization completed.
    -- Stationary point found.
 Normal termination of Gaussian 16 at Wed Oct 21 14:32:20 2020.
