 Gaussian 16, Revision A.03,

 ----------------------------------------------------------------------
 #P Opt(TS,MaxCyc=50,NoEigenTest,MaxStep=10,AddRedundant) PM6 5D 7F Int
 egral=UltraFineGrid SCF=(NoSymm,XQC,MaxCyc=120) IOp(1/33=1)
 ----------------------------------------------------------------------

 TstMul:  Mul=     2
 TstMul:  ICh=     0
 TstMul:  Mul=     2
 Symbolic Z-matrix:
 Charge =  0 Multiplicity = 2

 SCF Done:  E(UPM6) =  0.192155410044E-01 A.U. after   18 cycles
 SCF Done:  E(UPM6) =  0.134652395076E-01 A.U. after   13 cycles
 SCF Done:  E(UPM6) =  0.160254280326E-01 A.U. after   13 cycles
 SCF Done:  E(UPM6) =  0.126548926877E-01 A.U. after   13 cycles
 SCF Done:  E(UPM6) =  0.102442064115E-01 A.U. after   13 cycles
 SCF Done:  E(UPM6) =  0.931521956947E-02 A.U. after   13 cycles
 SCF Done:  E(UPM6) =  0.977036974147E-02 A.U. after   13 cycles
 SCF Done:  E(UPM6) =  0.105728311176E-01 A.U. after   13 cycles
 SCF Done:  E(UPM6) =  0.109446377330E-01 A.U. after   14 cycles
 SCF Done:  E(UPM6) =  0.109429014271E-01 A.U. after   12 cycles
 SCF Done:  E(UPM6) =  0.109268026879E-01 A.U. after   12 cycles
 SCF Done:  E(UPM6) =  0.108570005531E-01 A.U. after   12 cycles
 SCF Done:  E(UPM6) =  0.108117587526E-01 A.U. after   12 cycles
 SCF Done:  E(UPM6) =  0.108029831428E-01 A.U. after   12 cycles
 SCF Done:  E(UPM6) =  0.108031061889E-01 A.U. after   12 cycles
 SCF Done:  E(UPM6) =  0.108035259877E-01 A.U. after   11 cycles
 SCF Done:  E(UPM6) =  0.108032984195E-01 A.U. after   10 cycles
 Optimization completed.
    -- Stationary point found.
 Normal termination of Gaussian 16 at Wed Oct 21 14:33:11 2020.
 Gaussian 16:  ES64L-G16RevA.03 25-Dec-2016

 ----------------------------------------------------------------------
 #P Freq PM6 5D 7F Integral=UltraFineGrid SCF=(NoSymm,XQC,MaxCyc=120) I
 Op(1/33=1) Geom=Check Guess=Read
 ----------------------------------------------------------------------

 TstMul:  Mul=     2
 TstMul:  ICh=     0
 TstMul:  Mul=     2
 Structure from the checkpoint file:  "MN_53_hfch3ts_BH76_PM6_SE.chk"
 Charge =  0 Multiplicity = 2

                         Standard orientation:
 ---------------------------------------------------------------------
 Center     Atomic      Atomic             Coordinates (Angstroms)
 Number     Number       Type             X           Y           Z
 ---------------------------------------------------------------------
      1          1           0       -0.000851    1.906353   -0.000000
      2          9           0        0.000021    0.656548   -0.000000
      3          6           0        0.000021   -0.764908    0.000000
      4          1           0        1.044488   -1.075389   -0.000000
      5          1           0       -0.521978   -1.075224    0.904639
      6          1           0       -0.521978   -1.075224   -0.904639
 ---------------------------------------------------------------------

 SCF Done:  E(UPM6) =  0.108032984195E-01 A.U. after    2 cycles

 The electronic state is 2-A'.
 Alpha  occ. eigenvalues --   -1.50372  -0.90880  -0.61843  -0.61780  -0.61777
 Alpha  occ. eigenvalues --   -0.48931  -0.48925  -0.34789
 Alpha virt. eigenvalues --    0.12220   0.20470   0.20475   0.22253
  Beta  occ. eigenvalues --   -1.50845  -0.90365  -0.61090  -0.61087  -0.57936
  Beta  occ. eigenvalues --   -0.48441  -0.48435
  Beta virt. eigenvalues --    0.03480   0.20732   0.20737   0.21031   0.22629

 Mulliken charges and spin densities:
               1          2
     1  H    0.065090   0.788731
     2  F   -0.176273  -0.068433
     3  C   -0.310582   0.309123
     4  H    0.140574  -0.009807
     5  H    0.140595  -0.009807
     6  H    0.140595  -0.009807
 Sum of Mulliken charges =  -0.00000   1.00000

 Dipole moment (field-independent basis, Debye):
    X=              0.0001    Y=             -0.8869    Z=              0.0000  Tot=              0.8869
 N-N= 4.606972836398D+01 E-N=-4.227052057418D+01  KE=-3.907235903855D+01
  Exact polarizability:   6.566  -0.009  28.888   0.000   0.000   6.568
 Approx polarizability:   4.047  -0.005  17.016   0.000   0.000   4.049
 Leave Link  601 at Wed Oct 21 14:33:34 2020, MaxMem=  2684354560 cpu:               3.4 elap:               0.9
 (Enter /udrive/faculty/rpeverati/g16/g16/l701.exe)
 ... and contract with generalized density number  0.
 Compute integral second derivatives.
 Leave Link  701 at Wed Oct 21 14:33:35 2020, MaxMem=  2684354560 cpu:               4.3 elap:               1.0
 (Enter /udrive/faculty/rpeverati/g16/g16/l702.exe)
 L702 exits ... SP integral derivatives will be done elsewhere.

 ******    1 imaginary frequencies (negative Signs) ******

                      1                      2                      3
                     A'                     A'                     A"
 Frequencies --  -1021.4090               127.4126               127.4371
 Red. masses --      1.4073                 1.1750                 1.1750
 Frc consts  --      0.8650                 0.0112                 0.0112
 IR Inten    --    502.4789                 8.3087                 8.3081

                      4                      5                      6
                     A'                     A"                     A'
 Frequencies --   1006.1596              1006.2341              1088.0523
 Red. masses --      1.2077                 1.2077                 2.2744
 Frc consts  --      0.7203                 0.7204                 1.5864
 IR Inten    --      6.7689                 6.7622                38.4285

                      7                      8                      9
                     A'                     A"                     A'
 Frequencies --   1251.5371              1251.6429              1311.6935
 Red. masses --      1.0813                 1.0813                 1.2334
 Frc consts  --      0.9979                 0.9981                 1.2503
 IR Inten    --     36.0115                36.0037                 0.0729

                     10                     11                     12
                     A'                     A"                     A'
 Frequencies --   2689.1081              2689.3712              2758.0271
 Red. masses --      1.0938                 1.0939                 1.0200
 Frc consts  --      4.6603                 4.6614                 4.5714
 IR Inten    --     52.9745                53.0235                33.7365

 - Thermochemistry -
 -------------------
 Temperature   298.150 Kelvin.  Pressure   1.00000 Atm.
 Atom     1 has atomic number  1 and mass   1.00783

 Molecular mass:    35.02970 amu.
 Principal axes and moments of inertia in atomic units:
                           1         2         3
     Eigenvalues --    11.77819  85.37450  85.37762
           X           -0.00011   0.00000   1.00000
           Y            1.00000   0.00000   0.00011
           Z            0.00000   1.00000   0.00000
 This molecule is an asymmetric top.
 Rotational symmetry number  1.
 Rotational temperatures (Kelvin)      7.35375     1.01452     1.01448
 Rotational constants (GHZ):         153.22737    21.13911    21.13834
    1 imaginary frequencies ignored.
 Zero-point vibrational energy      91554.3 (Joules/Mol)
                                   21.88199 (Kcal/Mol)
 Warning -- explicit consideration of   2 degrees of freedom as
           vibrations may cause significant error
 Vibrational temperatures:    183.32   183.35  1447.64  1447.75  1565.46
          (Kelvin)           1800.68  1800.83  1887.23  3869.03  3869.41
                             3968.19

 Zero-point correction=                           0.034871 (Hartree/Particle)
 Thermal correction to Energy=                    0.039207
 Thermal correction to Enthalpy=                  0.040151
 Thermal correction to Gibbs Free Energy=         0.010042
 Sum of electronic and zero-point Energies=              0.045674
 Sum of electronic and thermal Energies=                 0.050010
 Sum of electronic and thermal Enthalpies=               0.050954
 Sum of electronic and thermal Free Energies=            0.020845

                     E (Thermal)             CV                S
                      KCal/Mol        Cal/Mol-Kelvin    Cal/Mol-Kelvin
 Total                   24.603             11.336             63.369
 Electronic               0.000              0.000              1.377
 Translational            0.889              2.981             36.591
 Rotational               0.889              2.981             19.091
 Vibrational             22.825              5.374              6.310
 Vibration     1          0.611              1.926              2.985
 Vibration     2          0.611              1.926              2.984

 Optimization completed.
    -- Stationary point found.
 Normal termination of Gaussian 16 at Wed Oct 21 14:33:42 2020.
