 Gaussian 16, Revision A.03,

 ----------------------------------------------------------------------
 #P Opt(TS,MaxCyc=50,NoEigenTest,MaxStep=10,AddRedundant) PM6 5D 7F Int
 egral=UltraFineGrid SCF=(NoSymm,XQC,MaxCyc=120) IOp(1/33=1)
 ----------------------------------------------------------------------

 TstMul:  Mul=     2
 TstMul:  ICh=     0
 TstMul:  Mul=     2
 Symbolic Z-matrix:
 Charge =  0 Multiplicity = 2

 SCF Done:  E(UPM6) =  0.137448781102     A.U. after   18 cycles
 SCF Done:  E(UPM6) =  0.138657915268     A.U. after   16 cycles
 SCF Done:  E(UPM6) =  0.142496296192     A.U. after   16 cycles
 SCF Done:  E(UPM6) =  0.145499407536     A.U. after   16 cycles
 SCF Done:  E(UPM6) =  0.147510663965     A.U. after   16 cycles
 SCF Done:  E(UPM6) =  0.148725541841     A.U. after   15 cycles
 SCF Done:  E(UPM6) =  0.149374780217     A.U. after   16 cycles
 SCF Done:  E(UPM6) =  0.149652240432     A.U. after   16 cycles
 SCF Done:  E(UPM6) =  0.149701093988     A.U. after   15 cycles
 SCF Done:  E(UPM6) =  0.149706500958     A.U. after   14 cycles
 SCF Done:  E(UPM6) =  0.149706656096     A.U. after   13 cycles
 Optimization completed.
    -- Stationary point found.
 Normal termination of Gaussian 16 at Wed Oct 21 14:34:34 2020.
 Gaussian 16:  ES64L-G16RevA.03 25-Dec-2016

 ----------------------------------------------------------------------
 #P Freq PM6 5D 7F Integral=UltraFineGrid SCF=(NoSymm,XQC,MaxCyc=120) I
 Op(1/33=1) Geom=Check Guess=Read
 ----------------------------------------------------------------------

 TstMul:  Mul=     2
 TstMul:  ICh=     0
 TstMul:  Mul=     2
 Structure from the checkpoint file:  "MN_59_hn2ts_BH76_PM6_SE.chk"
 Charge =  0 Multiplicity = 2

                         Standard orientation:
 ---------------------------------------------------------------------
 Center     Atomic      Atomic             Coordinates (Angstroms)
 Number     Number       Type             X           Y           Z
 ---------------------------------------------------------------------
      1          7           0        0.092999   -0.674949    0.000000
      2          7           0        0.092999    0.445212    0.000000
      3          1           0       -1.301983    1.608154    0.000000
 ---------------------------------------------------------------------

 SCF Done:  E(UPM6) =  0.149706656096     A.U. after    2 cycles

 The electronic state is 2-A'.
 Alpha  occ. eigenvalues --   -1.37315  -0.70242  -0.61884  -0.60802  -0.48988
 Alpha  occ. eigenvalues --   -0.37683
 Alpha virt. eigenvalues --   -0.00106   0.00092   0.13094
  Beta  occ. eigenvalues --   -1.37120  -0.69509  -0.60760  -0.60635  -0.47574
  Beta virt. eigenvalues --   -0.00581   0.00114   0.10948   0.15385

 Mulliken charges and spin densities:
               1          2
     1  N   -0.016762   0.125816
     2  N    0.007168  -0.058499
     3  H    0.009594   0.932683
 Sum of Mulliken charges =  -0.00000   1.00000

 Dipole moment (field-independent basis, Debye):
    X=             -0.1375    Y=              0.1798    Z=              0.0000  Tot=              0.2264
 N-N= 2.470539951545D+01 E-N=-2.002271680908D+01  KE=-2.116355704123D+01
  Exact polarizability:   6.876  -4.565  21.063   0.000  -0.000   2.608
 Approx polarizability:   3.960  -2.412  20.124   0.000  -0.000   1.959
 Leave Link  601 at Wed Oct 21 14:35:18 2020, MaxMem=  2684354560 cpu:               5.7 elap:               1.6
 (Enter /udrive/faculty/rpeverati/g16/g16/l701.exe)
 ... and contract with generalized density number  0.
 Compute integral second derivatives.
 Leave Link  701 at Wed Oct 21 14:35:21 2020, MaxMem=  2684354560 cpu:               5.9 elap:               1.6
 (Enter /udrive/faculty/rpeverati/g16/g16/l702.exe)
 L702 exits ... SP integral derivatives will be done elsewhere.

 ******    1 imaginary frequencies (negative Signs) ******

                      1                      2                      3
                     A'                     A'                     A'
 Frequencies --   -678.8941               232.7293              2368.3044
 Red. masses --      1.0590                 1.5143                13.5110
 Frc consts  --      0.2876                 0.0483                44.6491
 IR Inten    --     86.5336                 1.4580                29.1320

 - Thermochemistry -
 -------------------
 Temperature   298.150 Kelvin.  Pressure   1.00000 Atm.
 Atom     1 has atomic number  7 and mass  14.00307

 Molecular mass:    29.01397 amu.
 Principal axes and moments of inertia in atomic units:
                           1         2         3
     Eigenvalues --     4.86666  43.57995  48.44662
           X           -0.22117   0.97524   0.00000
           Y            0.97524   0.22117   0.00000
           Z            0.00000   0.00000   1.00000
 This molecule is an asymmetric top.
 Rotational symmetry number  1.
 Rotational temperatures (Kelvin)     17.79739     1.98747     1.78782
 Rotational constants (GHZ):         370.83749    41.41219    37.25216
    1 imaginary frequencies ignored.
 Zero-point vibrational energy      15557.6 (Joules/Mol)
                                    3.71836 (Kcal/Mol)
 Warning -- explicit consideration of   1 degrees of freedom as
           vibrations may cause significant error
 Vibrational temperatures:    334.85  3407.46
          (Kelvin)

 Zero-point correction=                           0.005926 (Hartree/Particle)
 Thermal correction to Energy=                    0.009269
 Thermal correction to Enthalpy=                  0.010214
 Thermal correction to Gibbs Free Energy=        -0.016511
 Sum of electronic and zero-point Energies=              0.155632
 Sum of electronic and thermal Energies=                 0.158976
 Sum of electronic and thermal Enthalpies=               0.159920
 Sum of electronic and thermal Free Energies=            0.133196

                     E (Thermal)             CV                S
                      KCal/Mol        Cal/Mol-Kelvin    Cal/Mol-Kelvin
 Total                    5.817              7.755             56.246
 Electronic               0.000              0.000              1.377
 Translational            0.889              2.981             36.030
 Rotational               0.889              2.981             16.981
 Vibrational              4.039              1.794              1.858
 Vibration     1          0.653              1.791              1.858

 Optimization completed.
    -- Stationary point found.
 Normal termination of Gaussian 16 at Wed Oct 21 14:35:34 2020.
