 Gaussian 16, Revision A.03,
 Gaussian 16:  ES64L-G16RevA.03 25-Dec-2016

 ----------------------------------------------------------------------
 #P Opt(MaxCyc=150) PM6 5D 7F Integral=UltraFineGrid SCF=(NoSymm,XQC,Ma
 xCyc=120) IOp(1/33=1)
 ----------------------------------------------------------------------

 TstMul:  Mul=     1
 TstMul:  ICh=     0
 TstMul:  Mul=     1
 Symbolic Z-matrix:
 Charge =  0 Multiplicity = 1

 SCF Done:  E(RPM6) = -0.984977322594E-01 A.U. after    8 cycles
 SCF Done:  E(RPM6) = -0.101320460952     A.U. after    6 cycles
 SCF Done:  E(RPM6) = -0.101321512478     A.U. after    5 cycles
 Optimization completed.
    -- Stationary point found.

                         Standard orientation:
 ---------------------------------------------------------------------
 Center     Atomic      Atomic             Coordinates (Angstroms)
 Number     Number       Type             X           Y           Z
 ---------------------------------------------------------------------
      1          9           0        0.000000    0.000000    0.096565
      2          1           0        0.000000    0.000000   -0.869086
 ---------------------------------------------------------------------

 The electronic state is 1-SG.
 Alpha  occ. eigenvalues --   -1.49863  -0.62579  -0.58142  -0.58142
 Alpha virt. eigenvalues --    0.15107

 Mulliken charges:
               1
     1  F   -0.270544
     2  H    0.270544
 Sum of Mulliken charges =  -0.00000

 Dipole moment (field-independent basis, Debye):
    X=             -0.0000    Y=              0.0000    Z=             -1.4357  Tot=              1.4357
 N-N= 2.049520771761D+01 E-N=-4.483980530005D+00  KE=-3.013455230177D+01
 Leave Link  601 at Wed Oct 21 14:29:29 2020, MaxMem=  2684354560 cpu:               5.0 elap:               1.1
 (Enter /udrive/faculty/rpeverati/g16/g16/l9999.exe)

 Test job not archived.
 1\1\GINC-NODE38\FOpt\RPM6\ZDO\F1H1\RPEVERATI\21-Oct-2020\0\\#P Opt(Max
 Cyc=150) PM6 5D 7F Integral=UltraFineGrid SCF=(NoSymm,XQC,MaxCyc=120)
 IOp(1/33=1)\\TS search on BH76.\\0,1\F,0.,0.,0.116672428\H,0.,0.,-0.84
 89785446\\Version=ES64L-G16RevA.03\State=1-SG\HF=-0.1013215\RMSD=2.150
 e-09\RMSF=1.725e-06\Dipole=0.,0.,-0.5648673\PG=C*V [C*(H1F1)]\\@

 Normal termination of Gaussian 16 at Wed Oct 21 14:29:31 2020.
