 Gaussian 16, Revision A.03,
 Gaussian 16:  ES64L-G16RevA.03 25-Dec-2016

 ----------------------------------------------------------------------
 #P Opt(MaxCyc=150) PM6 5D 7F Integral=UltraFineGrid SCF=(NoSymm,XQC,Ma
 xCyc=120) IOp(1/33=1)
 ----------------------------------------------------------------------

 TstMul:  Mul=     2
 TstMul:  ICh=     0
 TstMul:  Mul=     2
 Symbolic Z-matrix:
 Charge =  0 Multiplicity = 2

 SCF Done:  E(UPM6) =  0.118508173760E-03 A.U. after   16 cycles
 SCF Done:  E(UPM6) = -0.466976396487E-02 A.U. after   15 cycles
 SCF Done:  E(UPM6) = -0.624581490980E-02 A.U. after   15 cycles
 SCF Done:  E(UPM6) = -0.626037027090E-02 A.U. after   13 cycles
 SCF Done:  E(UPM6) = -0.626089219982E-02 A.U. after   12 cycles
 Optimization completed.
    -- Stationary point found.

                         Standard orientation:
 ---------------------------------------------------------------------
 Center     Atomic      Atomic             Coordinates (Angstroms)
 Number     Number       Type             X           Y           Z
 ---------------------------------------------------------------------
      1          1           0       -0.545763    1.434195    0.000000
      2          6           0        0.038983    0.561952    0.000000
      3          8           0        0.038983   -0.600738    0.000000
 ---------------------------------------------------------------------

 The electronic state is 2-A'.
 Alpha  occ. eigenvalues --   -1.24313  -0.83540  -0.61771  -0.57518  -0.55256
 Alpha  occ. eigenvalues --   -0.32333
 Alpha virt. eigenvalues --    0.01008   0.14404   0.18716
  Beta  occ. eigenvalues --   -1.20301  -0.81050  -0.57067  -0.55443  -0.50592
  Beta virt. eigenvalues --    0.02744   0.04034   0.15949   0.21138

 Mulliken charges and spin densities:
               1          2
     1  H    0.155154   0.047584
     2  C    0.077043   0.602008
     3  O   -0.232197   0.350409
 Sum of Mulliken charges =  -0.00000   1.00000

 Dipole moment (field-independent basis, Debye):
    X=             -1.0980    Y=              1.5216    Z=              0.0000  Tot=              1.8764
 N-N= 2.684709151858D+01 E-N=-2.017306697970D+01  KE=-2.574180175541D+01
 Leave Link  601 at Wed Oct 21 14:29:28 2020, MaxMem=  2684354560 cpu:               2.8 elap:               0.8
 (Enter /udrive/faculty/rpeverati/g16/g16/l9999.exe)

 Test job not archived.
 1\1\GINC-NODE63\FOpt\UPM6\ZDO\C1H1O1(2)\RPEVERATI\21-Oct-2020\0\\#P Op
 t(MaxCyc=150) PM6 5D 7F Integral=UltraFineGrid SCF=(NoSymm,XQC,MaxCyc=
 120) IOp(1/33=1)\\TS search on BH76.\\0,2\H,-0.7999027749,1.2908242047
 ,0.\C,-0.0689278141,0.5368934323,0.\O,0.1384983034,-0.6071439414,0.\\V
 ersion=ES64L-G16RevA.03\State=2-A'\HF=-0.0062609\S2=0.751756\S2-1=0.\S

 Normal termination of Gaussian 16 at Wed Oct 21 14:29:30 2020.
