 Gaussian 16, Revision A.03,

 ----------------------------------------------------------------------
 #P Opt(TS,MaxCyc=50,NoEigenTest,MaxStep=10,AddRedundant) PM6 5D 7F Int
 egral=UltraFineGrid SCF=(NoSymm,XQC,MaxCyc=120) IOp(1/33=1)
 ----------------------------------------------------------------------

 TstMul:  Mul=     2
 TstMul:  ICh=     0
 TstMul:  Mul=     2
 Symbolic Z-matrix:
 Charge =  0 Multiplicity = 2

 SCF Done:  E(UPM6) =  0.114326369380     A.U. after   23 cycles
 SCF Done:  E(UPM6) =  0.113992855445     A.U. after   16 cycles
 SCF Done:  E(UPM6) =  0.118981027706     A.U. after   20 cycles
 SCF Done:  E(UPM6) =  0.120129328992     A.U. after   19 cycles
 SCF Done:  E(UPM6) =  0.119785398479     A.U. after   18 cycles
 SCF Done:  E(UPM6) =  0.119859726624     A.U. after   18 cycles
 SCF Done:  E(UPM6) =  0.120708408390     A.U. after   18 cycles
 SCF Done:  E(UPM6) =  0.121908736953     A.U. after   18 cycles
 SCF Done:  E(UPM6) =  0.122865617373     A.U. after   18 cycles
 SCF Done:  E(UPM6) =  0.123408416519     A.U. after   18 cycles
 SCF Done:  E(UPM6) =  0.127424291506     A.U. after   15 cycles
 SCF Done:  E(UPM6) =  0.127442830643     A.U. after   15 cycles
 SCF Done:  E(UPM6) =  0.127457742813     A.U. after   15 cycles
 SCF Done:  E(UPM6) =  0.127469686625     A.U. after   15 cycles
 SCF Done:  E(UPM6) =  0.127479226083     A.U. after   15 cycles
 SCF Done:  E(UPM6) =  0.127486834743     A.U. after   15 cycles
 SCF Done:  E(UPM6) =  0.127492903464     A.U. after   15 cycles
 SCF Done:  E(UPM6) =  0.127497750174     A.U. after   13 cycles
 SCF Done:  E(UPM6) =  0.127501630347     A.U. after   16 cycles
 Optimization completed.
    -- Stationary point found.
 Normal termination of Gaussian 16 at Wed Oct 28 15:46:31 2020.
 Gaussian 16:  ES64L-G16RevA.03 25-Dec-2016

 ----------------------------------------------------------------------
 #P Freq PM6 5D 7F Integral=UltraFineGrid SCF=(NoSymm,XQC,MaxCyc=120) I
 Op(1/33=1) Geom=Check Guess=Read
 ----------------------------------------------------------------------

 TstMul:  Mul=     2
 TstMul:  ICh=     0
 TstMul:  Mul=     2
 Structure from the checkpoint file:  "MN_68_n2ohts_BH76_PM6_SE.chk"
 Charge =  0 Multiplicity = 2

                         Standard orientation:
 ---------------------------------------------------------------------
 Center     Atomic      Atomic             Coordinates (Angstroms)
 Number     Number       Type             X           Y           Z
 ---------------------------------------------------------------------
      1          1           0        1.005004   -3.587302    0.000000
      2          8           0       -0.783529   -0.666321    0.000000
      3          7           0        0.000000    0.214498    0.000000
      4          7           0        0.751890    1.059483    0.000000
 ---------------------------------------------------------------------

 SCF Done:  E(UPM6) =  0.127501630347     A.U. after    2 cycles

 The electronic state is 2-A'.
 Alpha  occ. eigenvalues --   -1.38746  -1.28294  -0.79515  -0.70137  -0.70136
 Alpha  occ. eigenvalues --   -0.56621  -0.44354  -0.44347  -0.41577
 Alpha virt. eigenvalues --   -0.00575   0.00249   0.00249   0.17509
  Beta  occ. eigenvalues --   -1.38746  -1.28294  -0.79515  -0.70136  -0.70136
  Beta  occ. eigenvalues --   -0.56621  -0.44347  -0.44346
  Beta virt. eigenvalues --   -0.00576   0.00249   0.00249   0.11512   0.17509

 Mulliken charges and spin densities:
               1          2
     1  H   -0.000013   0.999975
     2  O   -0.349969   0.000001
     3  N    0.643976   0.000001
     4  N   -0.293994   0.000023
 Sum of Mulliken charges =  -0.00000   1.00000

 Dipole moment (field-independent basis, Debye):
    X=             -0.3020    Y=             -0.3388    Z=             -0.0000  Tot=              0.4538
 N-N= 5.116344668442D+01 E-N=-4.982229494994D+01  KE=-3.919091838160D+01
  Exact polarizability:  19.273  18.863  23.698  -0.000  -0.000   2.489
 Approx polarizability:  22.328  23.009  27.720  -0.000  -0.000   1.854
 Leave Link  601 at Wed Oct 28 15:46:34 2020, MaxMem=  2684354560 cpu:               0.3 elap:               0.1
 (Enter /udrive/faculty/rpeverati/g16/g16/l701.exe)
 ... and contract with generalized density number  0.
 Compute integral second derivatives.
 Leave Link  701 at Wed Oct 28 15:46:34 2020, MaxMem=  2684354560 cpu:               0.9 elap:               0.1
 (Enter /udrive/faculty/rpeverati/g16/g16/l702.exe)
 L702 exits ... SP integral derivatives will be done elsewhere.

 ******    1 imaginary frequencies (negative Signs) ******

                      1                      2                      3
                     A'                     A'                     A'
 Frequencies --    -47.7499                 8.1741               546.7766
 Red. masses --      1.0484                 1.3465                14.2563
 Frc consts  --      0.0014                 0.0001                 2.5112
 IR Inten    --      0.0032                 0.0552                42.2016

                      4                      5                      6
                     A"                     A'                     A'
 Frequencies --    546.8158              1428.0020              2404.3579
 Red. masses --     14.2566                15.1091                14.0884
 Frc consts  --      2.5116                18.1529                47.9857
 IR Inten    --     42.2148                97.9632               804.6719

 - Thermochemistry -
 -------------------
 Temperature   298.150 Kelvin.  Pressure   1.00000 Atm.
 Atom     1 has atomic number  1 and mass   1.00783

 Molecular mass:    45.00889 amu.
 Principal axes and moments of inertia in atomic units:
                           1         2         3
     Eigenvalues --    33.09656 162.89505 195.99161
           X            0.51028   0.86001   0.00000
           Y            0.86001  -0.51028   0.00000
           Z            0.00000   0.00000   1.00000
 This molecule is an asymmetric top.
 Rotational symmetry number  1.
 Rotational temperatures (Kelvin)      2.61701     0.53172     0.44193
 Rotational constants (GHZ):          54.52957    11.07917     9.20826
    1 imaginary frequencies ignored.
 Zero-point vibrational energy      29512.6 (Joules/Mol)
                                    7.05369 (Kcal/Mol)
 Warning -- explicit consideration of   3 degrees of freedom as
           vibrations may cause significant error
 Vibrational temperatures:     11.76   786.69   786.75  2054.58  3459.33
          (Kelvin)

 Zero-point correction=                           0.011241 (Hartree/Particle)
 Thermal correction to Energy=                    0.015389
 Thermal correction to Enthalpy=                  0.016333
 Thermal correction to Gibbs Free Energy=        -0.016845
 Sum of electronic and zero-point Energies=              0.138742
 Sum of electronic and thermal Energies=                 0.142891
 Sum of electronic and thermal Enthalpies=               0.143835
 Sum of electronic and thermal Free Energies=            0.110656

                     E (Thermal)             CV                S
                      KCal/Mol        Cal/Mol-Kelvin    Cal/Mol-Kelvin
 Total                    9.657             10.341             69.830
 Electronic               0.000              0.000              1.377
 Translational            0.889              2.981             37.338
 Rotational               0.889              2.981             21.585
 Vibrational              7.879              4.379              9.530
 Vibration     1          0.593              1.987              8.412
 Vibration     2          0.902              1.147              0.551
 Vibration     3          0.902              1.147              0.551

                           ! Non-Optimized Parameters !
 Normal termination of Gaussian 16 at Wed Oct 28 15:46:35 2020.
