 Gaussian 16, Revision A.03,
 Gaussian 16:  ES64L-G16RevA.03 25-Dec-2016

 ----------------------------------------------------------------------
 #P Opt(MaxCyc=150) PM6 5D 7F Integral=UltraFineGrid SCF=(NoSymm,XQC,Ma
 xCyc=120) IOp(1/33=1)
 ----------------------------------------------------------------------

 TstMul:  Mul=     2
 TstMul:  ICh=     0
 TstMul:  Mul=     2
 Symbolic Z-matrix:
 Charge =  0 Multiplicity = 2

 SCF Done:  E(UPM6) =  0.510554805365E-01 A.U. after   21 cycles
 SCF Done:  E(UPM6) =  0.510551725662E-01 A.U. after   13 cycles
 Optimization completed.
    -- Stationary point found.

                         Standard orientation:
 ---------------------------------------------------------------------
 Center     Atomic      Atomic             Coordinates (Angstroms)
 Number     Number       Type             X           Y           Z
 ---------------------------------------------------------------------
      1         16           0        0.000000    0.000000    0.078884
      2          1           0        0.000000    0.000000   -1.262143
 ---------------------------------------------------------------------

 Unable to determine electronic state:  partially filled degenerate orbitals.
 Alpha  occ. eigenvalues --   -1.10331  -0.49409  -0.39438  -0.36275
 Alpha virt. eigenvalues --   -0.00078   0.04300   0.04662   0.04696   0.05055
 Alpha virt. eigenvalues --    0.11203
  Beta  occ. eigenvalues --   -0.94012  -0.46736  -0.34495
  Beta virt. eigenvalues --   -0.09219  -0.00440   0.04737   0.04996   0.05001
  Beta virt. eigenvalues --    0.05018   0.11695

 Mulliken charges and spin densities:
               1          2
     1  S   -0.194347   1.022020
     2  H    0.194347  -0.022020
 Sum of Mulliken charges =  -0.00000   1.00000

 Dipole moment (field-independent basis, Debye):
    X=             -0.0000    Y=              0.0000    Z=             -0.7874  Tot=              0.7874
 N-N= 8.772364003934D+00 E-N=-3.100569012515D+00  KE=-1.023508811762D+01
 Leave Link  601 at Wed Oct 21 14:30:10 2020, MaxMem=  2684354560 cpu:               2.9 elap:               1.2
 (Enter /udrive/faculty/rpeverati/g16/g16/l9999.exe)

 Test job not archived.
 1\1\GINC-NODE62\FOpt\UPM6\ZDO\H1S1(2)\RPEVERATI\21-Oct-2020\0\\#P Opt(
 MaxCyc=150) PM6 5D 7F Integral=UltraFineGrid SCF=(NoSymm,XQC,MaxCyc=12
 0) IOp(1/33=1)\\TS search on BH76.\\0,2\S,0.,0.,0.079247022\H,0.,0.,-1
 .2617797555\\Version=ES64L-G16RevA.03\HF=0.0510552\S2=0.752558\S2-1=0.
 \S2A=0.750004\RMSD=2.458e-09\RMSF=8.647e-06\Dipole=0.,0.,-0.3097808\PG

 Normal termination of Gaussian 16 at Wed Oct 21 14:30:13 2020.
