 Gaussian 16, Revision A.03,
 Gaussian 16:  ES64L-G16RevA.03 25-Dec-2016

 ----------------------------------------------------------------------
 #P Opt(MaxCyc=150) PM6 5D 7F Integral=UltraFineGrid SCF=(NoSymm,XQC,Ma
 xCyc=120) IOp(1/33=1)
 ----------------------------------------------------------------------

 TstMul:  Mul=     1
 TstMul:  ICh=     0
 TstMul:  Mul=     1
 Symbolic Z-matrix:
 Charge =  0 Multiplicity = 1

 SCF Done:  E(RPM6) =  0.657884092096E-01 A.U. after    6 cycles
 SCF Done:  E(RPM6) =  0.646580360479E-01 A.U. after    5 cycles
 SCF Done:  E(RPM6) =  0.646480600435E-01 A.U. after    4 cycles
 Optimization completed.
    -- Stationary point found.

                         Standard orientation:
 ---------------------------------------------------------------------
 Center     Atomic      Atomic             Coordinates (Angstroms)
 Number     Number       Type             X           Y           Z
 ---------------------------------------------------------------------
      1          7           0        0.000000    0.000000    0.558540
      2          7           0        0.000000    0.000000   -0.558540
 ---------------------------------------------------------------------

 The electronic state is 1-SGG.
 Alpha  occ. eigenvalues --   -1.37836  -0.69265  -0.61076  -0.61076  -0.47276
 Alpha virt. eigenvalues --   -0.00116  -0.00116   0.12921

 Mulliken charges:
               1
     1  N    0.000000
     2  N    0.000000
 Sum of Mulliken charges =   0.00000

 Dipole moment (field-independent basis, Debye):
    X=             -0.0000    Y=             -0.0000    Z=              0.0000  Tot=              0.0000
 N-N= 2.203618476795D+01 E-N=-1.569764454649D+01  KE=-2.071483908922D+01
 Leave Link  601 at Wed Oct 21 14:30:53 2020, MaxMem=  2684354560 cpu:               4.6 elap:               1.3
 (Enter /udrive/faculty/rpeverati/g16/g16/l9999.exe)

 Test job not archived.
 1\1\GINC-NODE55\FOpt\RPM6\ZDO\N2\RPEVERATI\21-Oct-2020\0\\#P Opt(MaxCy
 c=150) PM6 5D 7F Integral=UltraFineGrid SCF=(NoSymm,XQC,MaxCyc=120) IO
 p(1/33=1)\\TS search on BH76.\\0,1\N,0.,0.,0.5585404276\N,0.,0.,-0.558
 5404276\\Version=ES64L-G16RevA.03\State=1-SGG\HF=0.0646481\RMSD=5.794e
 -09\RMSF=5.368e-07\Dipole=0.,0.,0.\PG=D*H [C*(N1.N1)]\\@

 Normal termination of Gaussian 16 at Wed Oct 21 14:30:55 2020.
