 Gaussian 16, Revision A.03,
 Gaussian 16:  ES64L-G16RevA.03 25-Dec-2016

 ----------------------------------------------------------------------
 #P Opt(MaxCyc=150) PM6 5D 7F Integral=UltraFineGrid SCF=(NoSymm,XQC,Ma
 xCyc=120) IOp(1/33=1)
 ----------------------------------------------------------------------

 TstMul:  Mul=     1
 TstMul:  ICh=     0
 TstMul:  Mul=     1
 Symbolic Z-matrix:
 Charge =  0 Multiplicity = 1

 SCF Done:  E(RPM6) =  0.743355917142E-01 A.U. after   11 cycles
 SCF Done:  E(RPM6) =  0.742179045199E-01 A.U. after    8 cycles
 SCF Done:  E(RPM6) =  0.741924174378E-01 A.U. after    8 cycles
 Optimization completed.
    -- Stationary point found.

                         Standard orientation:
 ---------------------------------------------------------------------
 Center     Atomic      Atomic             Coordinates (Angstroms)
 Number     Number       Type             X           Y           Z
 ---------------------------------------------------------------------
      1          6           0        0.000000    0.000000   -0.739221
      2          7           0        0.000000    0.000000    0.432119
      3          1           0        0.000000    0.000000    1.410490
 ---------------------------------------------------------------------

 The electronic state is 1-SG.
 Alpha  occ. eigenvalues --   -1.18312  -0.80917  -0.48502  -0.48502  -0.43638
 Alpha virt. eigenvalues --    0.08444   0.08444   0.12520   0.29107

 Mulliken charges:
               1
     1  C    0.169506
     2  N   -0.462477
     3  H    0.292971
 Sum of Mulliken charges =  -0.00000

 Dipole moment (field-independent basis, Debye):
    X=              0.0000    Y=             -0.0000    Z=              2.4435  Tot=              2.4435
 N-N= 2.160284147073D+01 E-N=-1.761724144671D+01  KE=-1.864263952862D+01
 Leave Link  601 at Wed Oct 21 14:29:52 2020, MaxMem=  2684354560 cpu:               4.1 elap:               0.9
 (Enter /udrive/faculty/rpeverati/g16/g16/l9999.exe)

 Test job not archived.
 1\1\GINC-NODE59\FOpt\RPM6\ZDO\C1H1N1\RPEVERATI\21-Oct-2020\0\\#P Opt(M
 axCyc=150) PM6 5D 7F Integral=UltraFineGrid SCF=(NoSymm,XQC,MaxCyc=120
 ) IOp(1/33=1)\\TS search on BH76.\\0,1\C,0.,0.,-0.7350904202\N,0.,0.,0
 .4362496027\H,0.,0.,1.4146204917\\Version=ES64L-G16RevA.03\State=1-SG\
 HF=0.0741924\RMSD=4.468e-09\RMSF=5.975e-05\Dipole=0.,0.,0.9613659\PG=C

 Normal termination of Gaussian 16 at Wed Oct 21 14:29:54 2020.
