 Gaussian 16, Revision A.03,
 Gaussian 16:  ES64L-G16RevA.03 25-Dec-2016

 ----------------------------------------------------------------------
 #P Opt(MaxCyc=150) PM6 5D 7F Integral=UltraFineGrid SCF=(NoSymm,XQC,Ma
 xCyc=120) IOp(1/33=1)
 ----------------------------------------------------------------------

 TstMul:  Mul=     1
 TstMul:  ICh=     0
 TstMul:  Mul=     1
 Symbolic Z-matrix:
 Charge =  0 Multiplicity = 1

 SCF Done:  E(RPM6) =  0.448292567266E-01 A.U. after   12 cycles
 SCF Done:  E(RPM6) =  0.445104127960E-01 A.U. after    9 cycles
 SCF Done:  E(RPM6) =  0.444904865428E-01 A.U. after    8 cycles
 Optimization completed.
    -- Stationary point found.

                         Standard orientation:
 ---------------------------------------------------------------------
 Center     Atomic      Atomic             Coordinates (Angstroms)
 Number     Number       Type             X           Y           Z
 ---------------------------------------------------------------------
      1          7           0        0.000000    0.000000   -1.199964
      2          7           0        0.000000    0.000000   -0.068818
      3          8           0        0.000000    0.000000    1.110184
 ---------------------------------------------------------------------

 The electronic state is 1-SG.
 Alpha  occ. eigenvalues --   -1.38737  -1.28281  -0.79517  -0.70129  -0.70129
 Alpha  occ. eigenvalues --   -0.56623  -0.44345  -0.44345
 Alpha virt. eigenvalues --   -0.00578   0.00246   0.00246   0.17508

 Mulliken charges:
               1
     1  N   -0.293891
     2  N    0.643858
     3  O   -0.349967
 Sum of Mulliken charges =   0.00000

 Dipole moment (field-independent basis, Debye):
    X=             -0.0000    Y=             -0.0000    Z=              0.4533  Tot=              0.4533
 N-N= 4.858314457456D+01 E-N=-4.565789124342D+01  KE=-3.877730607967D+01
 Leave Link  601 at Wed Oct 21 14:30:23 2020, MaxMem=  2684354560 cpu:               3.2 elap:               0.9
 (Enter /udrive/faculty/rpeverati/g16/g16/l9999.exe)

 Test job not archived.
 1\1\GINC-NODE63\FOpt\RPM6\ZDO\N2O1\RPEVERATI\21-Oct-2020\0\\#P Opt(Max
 Cyc=150) PM6 5D 7F Integral=UltraFineGrid SCF=(NoSymm,XQC,MaxCyc=120)
 IOp(1/33=1)\\TS search on BH76.\\0,1\N,0.,0.,-1.2000472895\N,0.,0.,-0.
 0689014152\O,0.,0.,1.1101008189\\Version=ES64L-G16RevA.03\State=1-SG\H
 F=0.0444905\RMSD=9.664e-09\RMSF=9.861e-05\Dipole=0.,0.,0.1783297\PG=C*

 Normal termination of Gaussian 16 at Wed Oct 21 14:30:25 2020.
