 Gaussian 16, Revision A.03,
 Gaussian 16:  ES64L-G16RevA.03 25-Dec-2016

 ----------------------------------------------------------------------
 #P Opt(MaxCyc=150) PM6 5D 7F Integral=UltraFineGrid SCF=(NoSymm,XQC,Ma
 xCyc=120) IOp(1/33=1)
 ----------------------------------------------------------------------

 TstMul:  Mul=     3
 TstMul:  ICh=     0
 TstMul:  Mul=     3
 Symbolic Z-matrix:
 Charge =  0 Multiplicity = 3

 SCF Done:  E(UPM6) =  0.130508503160     A.U. after    9 cycles
 SCF Done:  E(UPM6) =  0.129890295425     A.U. after    8 cycles
 SCF Done:  E(UPM6) =  0.129784293560     A.U. after    8 cycles
 Optimization completed.
    -- Stationary point found.

                         Standard orientation:
 ---------------------------------------------------------------------
 Center     Atomic      Atomic             Coordinates (Angstroms)
 Number     Number       Type             X           Y           Z
 ---------------------------------------------------------------------
      1          7           0        0.000000    0.000000    0.124700
      2          1           0        0.000000    0.000000   -0.872899
 ---------------------------------------------------------------------

 The electronic state is 3-SG.
 Alpha  occ. eigenvalues --   -1.03150  -0.54194  -0.49689  -0.49689
 Alpha virt. eigenvalues --    0.16910
  Beta  occ. eigenvalues --   -0.87694  -0.44506
  Beta virt. eigenvalues --    0.00679   0.00679   0.20523

 Mulliken charges and spin densities:
               1          2
     1  N   -0.176088   2.093381
     2  H    0.176088  -0.093381
 Sum of Mulliken charges =  -0.00000   2.00000

 Dipole moment (field-independent basis, Debye):
    X=             -0.0000    Y=              0.0000    Z=             -1.8006  Tot=              1.8006
 N-N= 9.145754951199D+00 E-N=-3.274617530311D+00  KE=-1.086810136662D+01
 Leave Link  601 at Wed Oct 21 14:30:23 2020, MaxMem=  2684354560 cpu:               2.8 elap:               0.9
 (Enter /udrive/faculty/rpeverati/g16/g16/l9999.exe)

 Test job not archived.
 1\1\GINC-NODE38\FOpt\UPM6\ZDO\H1N1(3)\RPEVERATI\21-Oct-2020\0\\#P Opt(
 MaxCyc=150) PM6 5D 7F Integral=UltraFineGrid SCF=(NoSymm,XQC,MaxCyc=12
 0) IOp(1/33=1)\\TS search on BH76.\\0,3\N,0.,0.,0.1100237807\H,0.,0.,-
 0.8875745488\\Version=ES64L-G16RevA.03\State=3-SG\HF=0.1297843\S2=2.00
 9511\S2-1=0.\S2A=2.\RMSD=1.295e-11\RMSF=3.883e-07\Dipole=0.,0.,-0.7084

 Normal termination of Gaussian 16 at Wed Oct 21 14:30:25 2020.
