 Gaussian 16, Revision A.03,
 Gaussian 16:  ES64L-G16RevA.03 25-Dec-2016

 ----------------------------------------------------------------------
 #P Opt(MaxCyc=150) PM6 5D 7F Integral=UltraFineGrid SCF=(NoSymm,XQC,Ma
 xCyc=120) IOp(1/33=1)
 ----------------------------------------------------------------------

 TstMul:  Mul=     1
 TstMul:  ICh=    -1
 TstMul:  Mul=     1
 Symbolic Z-matrix:
 Charge = -1 Multiplicity = 1

 SCF Done:  E(RPM6) = -0.204520450555     A.U. after   13 cycles
 SCF Done:  E(RPM6) = -0.208016669380     A.U. after   11 cycles
 SCF Done:  E(RPM6) = -0.210295396269     A.U. after   11 cycles
 SCF Done:  E(RPM6) = -0.210590219233     A.U. after   12 cycles
 SCF Done:  E(RPM6) = -0.213266769192     A.U. after   11 cycles
 SCF Done:  E(RPM6) = -0.213429896409     A.U. after   11 cycles
 SCF Done:  E(RPM6) = -0.214229736482     A.U. after   11 cycles
 SCF Done:  E(RPM6) = -0.214374536569     A.U. after   10 cycles
 SCF Done:  E(RPM6) = -0.214456639397     A.U. after   10 cycles
 SCF Done:  E(RPM6) = -0.214461407654     A.U. after    9 cycles
 Optimization completed.
    -- Stationary point found.

                         Standard orientation:
 ---------------------------------------------------------------------
 Center     Atomic      Atomic             Coordinates (Angstroms)
 Number     Number       Type             X           Y           Z
 ---------------------------------------------------------------------
      1          6           0       -1.342739   -0.371234    0.000002
      2          8           0       -0.454705    0.699627   -0.000009
      3          1           0       -2.360454    0.038797   -0.000973
      4          1           0       -1.202695   -0.996077   -0.893243
      5          1           0       -1.203912   -0.994973    0.894210
      6          1           0        0.722007    0.264338    0.000174
      7          9           0        1.748792   -0.186856   -0.000012
 ---------------------------------------------------------------------

 The electronic state is 1-A.
 Alpha  occ. eigenvalues --   -1.10715  -0.82344  -0.65584  -0.42513  -0.36419
 Alpha  occ. eigenvalues --   -0.33930  -0.28647  -0.26876  -0.26872  -0.16153
 Alpha  occ. eigenvalues --   -0.14757
 Alpha virt. eigenvalues --    0.34354   0.38119   0.38493   0.39964   0.45696

 Mulliken charges:
               1
     1  C   -0.070696
     2  O   -0.832667
     3  H    0.067450
     4  H    0.063928
     5  H    0.063901
     6  H    0.408699
     7  F   -0.700615
 Sum of Mulliken charges =  -1.00000

 Dipole moment (field-independent basis, Debye):
    X=             -3.6183    Y=             -2.0935    Z=              0.0003  Tot=              4.1803
 N-N= 7.305436576746D+01 E-N=-7.663830905206D+01  KE=-6.020313233149D+01
 Leave Link  601 at Wed Oct 21 14:33:13 2020, MaxMem=  2684354560 cpu:               5.6 elap:               1.6
 (Enter /udrive/faculty/rpeverati/g16/g16/l9999.exe)

 Test job not archived.
 1\1\GINC-NODE51\FOpt\RPM6\ZDO\C1H4F1O1(1-)\RPEVERATI\21-Oct-2020\0\\#P
  Opt(MaxCyc=150) PM6 5D 7F Integral=UltraFineGrid SCF=(NoSymm,XQC,MaxC
 yc=120) IOp(1/33=1)\\TS search on BH76.\\-1,1\C,-1.3448910385,-0.41638
 50301,-0.0008810972\O,-0.5060066396,0.6933937892,-0.0046180662\H,-2.38
 00399346,-0.0526451155,-0.0062122677\H,-1.1747000583,-1.0388888249,-0.

 Normal termination of Gaussian 16 at Wed Oct 21 14:33:16 2020.
