 Gaussian 16, Revision A.03,

 ----------------------------------------------------------------------
 #P Opt(TS,MaxCyc=50,NoEigenTest,MaxStep=10,AddRedundant) PM6 5D 7F Int
 egral=UltraFineGrid SCF=(NoSymm,XQC,MaxCyc=120) IOp(1/33=1)
 ----------------------------------------------------------------------

 TstMul:  Mul=     1
 TstMul:  ICh=    -1
 TstMul:  Mul=     1
 Symbolic Z-matrix:
 Charge = -1 Multiplicity = 1

 SCF Done:  E(RPM6) = -0.141796995373     A.U. after   13 cycles
 SCF Done:  E(RPM6) = -0.145105856609     A.U. after   11 cycles
 SCF Done:  E(RPM6) = -0.147614365549     A.U. after   11 cycles
 SCF Done:  E(RPM6) = -0.149450513486     A.U. after   10 cycles
 SCF Done:  E(RPM6) = -0.150730106970     A.U. after   11 cycles
 SCF Done:  E(RPM6) = -0.151857872642     A.U. after   11 cycles
 SCF Done:  E(RPM6) = -0.152788981928     A.U. after   11 cycles
 SCF Done:  E(RPM6) = -0.151600061009     A.U. after   10 cycles
 SCF Done:  E(RPM6) = -0.150519967150     A.U. after   10 cycles
 SCF Done:  E(RPM6) = -0.149878415522     A.U. after   11 cycles
 SCF Done:  E(RPM6) = -0.149614675881     A.U. after    9 cycles
 SCF Done:  E(RPM6) = -0.149646777420     A.U. after   10 cycles
 SCF Done:  E(RPM6) = -0.149618147187     A.U. after   10 cycles
 SCF Done:  E(RPM6) = -0.149619891287     A.U. after    9 cycles
 SCF Done:  E(RPM6) = -0.149723943679     A.U. after   11 cycles
 SCF Done:  E(RPM6) = -0.149734796237     A.U. after   11 cycles
 SCF Done:  E(RPM6) = -0.149759917111     A.U. after   11 cycles
 SCF Done:  E(RPM6) = -0.149762590754     A.U. after   10 cycles
 SCF Done:  E(RPM6) = -0.149763468266     A.U. after    9 cycles
 Optimization completed.
    -- Stationary point found.
 Normal termination of Gaussian 16 at Wed Oct 21 14:34:41 2020.
 Gaussian 16:  ES64L-G16RevA.03 25-Dec-2016

 ----------------------------------------------------------------------
 #P Freq PM6 5D 7F Integral=UltraFineGrid SCF=(NoSymm,XQC,MaxCyc=120) I
 Op(1/33=1) Geom=Check Guess=Read
 ----------------------------------------------------------------------

 TstMul:  Mul=     1
 TstMul:  ICh=    -1
 TstMul:  Mul=     1
 Structure from the checkpoint file:  "MN_63_hoch3fts_BH76_PM6_SE.chk"
 Charge = -1 Multiplicity = 1

                         Standard orientation:
 ---------------------------------------------------------------------
 Center     Atomic      Atomic             Coordinates (Angstroms)
 Number     Number       Type             X           Y           Z
 ---------------------------------------------------------------------
      1          9           0        1.723737   -0.016828   -0.000028
      2          6           0        0.105133    0.012679    0.000000
      3          1           0        0.028233    1.093394    0.042269
      4          1           0        0.018925   -0.483328   -0.958113
      5          1           0        0.018351   -0.556870    0.916173
      6          8           0       -1.758057    0.093291    0.000127
      7          1           0       -2.145479   -0.724149   -0.001093
 ---------------------------------------------------------------------

 SCF Done:  E(RPM6) = -0.149763468266     A.U. after    2 cycles

 The electronic state is 1-A.
 Alpha  occ. eigenvalues --   -1.13877  -0.77787  -0.69638  -0.37187  -0.36168
 Alpha  occ. eigenvalues --   -0.34044  -0.28971  -0.27727  -0.25764  -0.16491
 Alpha  occ. eigenvalues --   -0.15746
 Alpha virt. eigenvalues --    0.28300   0.40870   0.41418   0.41905   0.46062

 Mulliken charges:
               1
     1  F   -0.660339
     2  C    0.144409
     3  H    0.114967
     4  H    0.097223
     5  H    0.096030
     6  O   -1.056779
     7  H    0.264489
 Sum of Mulliken charges =  -1.00000

 Dipole moment (field-independent basis, Debye):
    X=              0.7234    Y=             -1.5494    Z=             -0.0030  Tot=              1.7100
 N-N= 7.310712508902D+01 E-N=-7.655136608517D+01  KE=-6.029441199813D+01
  Exact polarizability:  40.309   0.487   9.213   0.001  -0.005   6.790
 Approx polarizability:  25.325   0.412   5.941   0.001  -0.002   4.126
 Leave Link  601 at Wed Oct 21 14:35:03 2020, MaxMem=  2684354560 cpu:               3.2 elap:               0.9
 (Enter /udrive/faculty/rpeverati/g16/g16/l701.exe)
 ... and contract with generalized density number  0.
 Compute integral second derivatives.
 Leave Link  701 at Wed Oct 21 14:35:04 2020, MaxMem=  2684354560 cpu:               4.8 elap:               1.0
 (Enter /udrive/faculty/rpeverati/g16/g16/l702.exe)
 L702 exits ... SP integral derivatives will be done elsewhere.

 ******    1 imaginary frequencies (negative Signs) ******

                      1                      2                      3
                      A                      A                      A
 Frequencies --   -589.1577               115.0163               311.1818
 Red. masses --      9.6251                 1.0681                 3.4752
 Frc consts  --      1.9684                 0.0083                 0.1983
 IR Inten    --   1740.2683               115.4703                31.7773

                      4                      5                      6
                      A                      A                      A
 Frequencies --    328.5528               440.4612               785.7062
 Red. masses --      4.3199                12.9766                 1.1588
 Frc consts  --      0.2747                 1.4833                 0.4215
 IR Inten    --     44.4341                 2.5211                98.0126

                      7                      8                      9
                      A                      A                      A
 Frequencies --   1167.6219              1176.4888              1250.9757
 Red. masses --      1.0465                 1.0366                 1.1255
 Frc consts  --      0.8406                 0.8453                 1.0378
 IR Inten    --      0.8484                 0.9803                 6.0969

                     10                     11                     12
                      A                      A                      A
 Frequencies --   1251.8361              1331.9826              2428.4842
 Red. masses --      1.1253                 1.0699                 1.0613
 Frc consts  --      1.0390                 1.1183                 3.6878
 IR Inten    --     10.9307                13.3379               116.8052

                     13                     14                     15
                      A                      A                      A
 Frequencies --   2707.7196              2710.0746              2730.3164
 Red. masses --      1.1012                 1.1040                 1.0105
 Frc consts  --      4.7569                 4.7772                 4.4382
 IR Inten    --     18.1066                 8.9401                 1.9995

 - Thermochemistry -
 -------------------
 Temperature   298.150 Kelvin.  Pressure   1.00000 Atm.
 Atom     1 has atomic number  9 and mass  18.99840

 Molecular mass:    51.02462 amu.
 Principal axes and moments of inertia in atomic units:
                           1         2         3
     Eigenvalues --    14.88394 400.58262 402.80423
           X            0.99989   0.01509   0.00002
           Y           -0.01509   0.99989  -0.00009
           Z           -0.00002   0.00009   1.00000
 This molecule is an asymmetric top.
 Rotational symmetry number  1.
 Rotational temperatures (Kelvin)      5.81929     0.21622     0.21503
 Rotational constants (GHZ):         121.25424     4.50529     4.48044
    1 imaginary frequencies ignored.
 Zero-point vibrational energy     112068.7 (Joules/Mol)
                                   26.78505 (Kcal/Mol)
 Warning -- explicit consideration of   4 degrees of freedom as
           vibrations may cause significant error
 Vibrational temperatures:    165.48   447.72   472.71   633.73  1130.46
          (Kelvin)           1679.95  1692.70  1799.87  1801.11  1916.43
                             3494.05  3895.80  3899.19  3928.32

 Zero-point correction=                           0.042685 (Hartree/Particle)
 Thermal correction to Energy=                    0.047445
 Thermal correction to Enthalpy=                  0.048389
 Thermal correction to Gibbs Free Energy=         0.016485
 Sum of electronic and zero-point Energies=             -0.107079
 Sum of electronic and thermal Energies=                -0.102319
 Sum of electronic and thermal Enthalpies=              -0.101374
 Sum of electronic and thermal Free Energies=           -0.133278

                     E (Thermal)             CV                S
                      KCal/Mol        Cal/Mol-Kelvin    Cal/Mol-Kelvin
 Total                   29.772             14.158             67.147
 Electronic               0.000              0.000              0.000
 Translational            0.889              2.981             37.712
 Rotational               0.889              2.981             22.401
 Vibrational             27.995              8.197              7.034
 Vibration     1          0.608              1.937              3.182
 Vibration     2          0.700              1.652              1.356
 Vibration     3          0.712              1.618              1.267
 Vibration     4          0.800              1.382              0.825

                           ! Non-Optimized Parameters !
 Normal termination of Gaussian 16 at Wed Oct 21 14:35:12 2020.
