 Gaussian 16, Revision A.03,
 Gaussian 16:  ES64L-G16RevA.03 25-Dec-2016

 ----------------------------------------------------------------------
 #P Opt(MaxCyc=150) PM6 5D 7F Integral=UltraFineGrid SCF=(NoSymm,XQC,Ma
 xCyc=120) IOp(1/33=1)
 ----------------------------------------------------------------------

 TstMul:  Mul=     1
 TstMul:  ICh=    -1
 TstMul:  Mul=     1
 Symbolic Z-matrix:
 Charge = -1 Multiplicity = 1

 SCF Done:  E(RPM6) = -0.152928521698     A.U. after   13 cycles
 SCF Done:  E(RPM6) = -0.156618579279     A.U. after   12 cycles
 SCF Done:  E(RPM6) = -0.158510078509     A.U. after   12 cycles
 SCF Done:  E(RPM6) = -0.158642328043     A.U. after   11 cycles
 SCF Done:  E(RPM6) = -0.158702986146     A.U. after   11 cycles
 SCF Done:  E(RPM6) = -0.158729998059     A.U. after   11 cycles
 SCF Done:  E(RPM6) = -0.158736967833     A.U. after   11 cycles
 SCF Done:  E(RPM6) = -0.158808237207     A.U. after   11 cycles
 SCF Done:  E(RPM6) = -0.158832747407     A.U. after   12 cycles
 SCF Done:  E(RPM6) = -0.158892592211     A.U. after   12 cycles
 SCF Done:  E(RPM6) = -0.158931920226     A.U. after    9 cycles
 SCF Done:  E(RPM6) = -0.158932333725     A.U. after    9 cycles
 SCF Done:  E(RPM6) = -0.158932607434     A.U. after    9 cycles
 SCF Done:  E(RPM6) = -0.158933252465     A.U. after   10 cycles
 SCF Done:  E(RPM6) = -0.158934727955     A.U. after   10 cycles
 SCF Done:  E(RPM6) = -0.158936343183     A.U. after   10 cycles
 SCF Done:  E(RPM6) = -0.158937167927     A.U. after    9 cycles
 SCF Done:  E(RPM6) = -0.158937829396     A.U. after    9 cycles
 SCF Done:  E(RPM6) = -0.158937828167     A.U. after    9 cycles
 SCF Done:  E(RPM6) = -0.158937858765     A.U. after    9 cycles
 Optimization completed.
    -- Stationary point found.

                         Standard orientation:
 ---------------------------------------------------------------------
 Center     Atomic      Atomic             Coordinates (Angstroms)
 Number     Number       Type             X           Y           Z
 ---------------------------------------------------------------------
      1          9           0        1.781025   -0.007629   -0.000078
      2          6           0        0.386928    0.024970    0.000097
      3          1           0        0.020719   -0.486960   -0.895705
      4          1           0        0.020824   -0.492692    0.892669
      5          1           0        0.068888    1.068225    0.003468
      6          8           0       -1.980368   -0.084912   -0.000016
      7          1           0       -2.618277    0.509561   -0.000191
 ---------------------------------------------------------------------

 The electronic state is 1-A.
 Alpha  occ. eigenvalues --   -1.31154  -0.72443  -0.70040  -0.44255  -0.44127
 Alpha  occ. eigenvalues --   -0.40357  -0.29864  -0.29284  -0.23042  -0.11382
 Alpha  occ. eigenvalues --   -0.11288
 Alpha virt. eigenvalues --    0.29082   0.39579   0.39945   0.42248   0.53032

 Mulliken charges:
               1
     1  F   -0.325322
     2  C   -0.145074
     3  H    0.158615
     4  H    0.158642
     5  H    0.135970
     6  O   -1.242069
     7  H    0.259238
 Sum of Mulliken charges =  -1.00000

 Dipole moment (field-independent basis, Debye):
    X=              5.4913    Y=              1.3616    Z=             -0.0000  Tot=              5.6576
 N-N= 7.199465595031D+01 E-N=-7.415480784367D+01  KE=-6.000761540053D+01
 Leave Link  601 at Wed Oct 21 14:35:40 2020, MaxMem=  2684354560 cpu:               2.8 elap:               0.9
 (Enter /udrive/faculty/rpeverati/g16/g16/l9999.exe)

 Test job not archived.
 1\1\GINC-NODE41\FOpt\RPM6\ZDO\C1H4F1O1(1-)\RPEVERATI\21-Oct-2020\0\\#P
  Opt(MaxCyc=150) PM6 5D 7F Integral=UltraFineGrid SCF=(NoSymm,XQC,MaxC
 yc=120) IOp(1/33=1)\\TS search on BH76.\\-1,1\F,1.7632681833,0.0851289
 039,-0.0369038636\C,0.369489821,0.067393952,0.0035492306\H,0.016326744
 2,-0.8944372462,-0.3821957464\H,0.043918767,0.1868367628,1.0420224155\

 Normal termination of Gaussian 16 at Wed Oct 21 14:35:43 2020.
