 Gaussian 16, Revision A.03,
 Gaussian 16:  ES64L-G16RevA.03 25-Dec-2016

 ----------------------------------------------------------------------
 #P Opt(MaxCyc=150) PM6 5D 7F Integral=UltraFineGrid SCF=(NoSymm,XQC,Ma
 xCyc=120) IOp(1/33=1)
 ----------------------------------------------------------------------

 TstMul:  Mul=     1
 TstMul:  ICh=     0
 TstMul:  Mul=     1
 Symbolic Z-matrix:
 Charge =  0 Multiplicity = 1

 SCF Done:  E(RPM6) =  0.124391098135E-01 A.U. after   10 cycles
 SCF Done:  E(RPM6) =  0.630025905561E-02 A.U. after    9 cycles
 SCF Done:  E(RPM6) =  0.573234295527E-02 A.U. after    8 cycles
 SCF Done:  E(RPM6) =  0.573095900332E-02 A.U. after    7 cycles
 Optimization completed.
    -- Stationary point found.

                         Standard orientation:
 ---------------------------------------------------------------------
 Center     Atomic      Atomic             Coordinates (Angstroms)
 Number     Number       Type             X           Y           Z
 ---------------------------------------------------------------------
      1         15           0        0.000000    0.000000    0.111802
      2          1           0        0.000000    1.289226   -0.559011
      3          1           0        1.116502   -0.644613   -0.559011
      4          1           0       -1.116502   -0.644613   -0.559011
 ---------------------------------------------------------------------

 The electronic state is 1-A1.
 Alpha  occ. eigenvalues --   -0.78809  -0.52313  -0.52313  -0.35760
 Alpha virt. eigenvalues --    0.15188   0.15188   0.16533   4.96302   4.96302
 Alpha virt. eigenvalues --    4.97132   4.98334   4.98334

 Mulliken charges:
               1
     1  P   -0.075947
     2  H    0.025316
     3  H    0.025316
     4  H    0.025316
 Sum of Mulliken charges =   0.00000

 Dipole moment (field-independent basis, Debye):
    X=             -0.0000    Y=              0.4798    Z=             -2.0089  Tot=              2.0654
 N-N= 1.204663769682D+01 E-N=-9.185136754186D+00  KE=-1.051276152761D+01
 Leave Link  601 at Wed Oct 21 14:31:25 2020, MaxMem=  2684354560 cpu:               2.8 elap:               0.9
 (Enter /udrive/faculty/rpeverati/g16/g16/l9999.exe)

 Test job not archived.
 1\1\GINC-NODE39\FOpt\RPM6\ZDO\H3P1\RPEVERATI\21-Oct-2020\0\\#P Opt(Max
 Cyc=150) PM6 5D 7F Integral=UltraFineGrid SCF=(NoSymm,XQC,MaxCyc=120)
 IOp(1/33=1)\\TS search on BH76.\\0,1\P,0.,0.,0.5023188516\H,0.64461286
 18,1.1165022279,-0.1684939825\H,0.6446128618,-1.1165022279,-0.16849398
 25\H,-1.2892257236,0.,-0.1684939825\\Version=ES64L-G16RevA.03\State=1-

 Normal termination of Gaussian 16 at Wed Oct 21 14:31:27 2020.
