 Gaussian 16, Revision A.03,

 ----------------------------------------------------------------------
 #P Opt(TS,MaxCyc=50,NoEigenTest,MaxStep=10,AddRedundant) PM6 5D 7F Int
 egral=UltraFineGrid SCF=(NoSymm,XQC,MaxCyc=120) IOp(1/33=1)
 ----------------------------------------------------------------------

 TstMul:  Mul=     2
 TstMul:  ICh=     0
 TstMul:  Mul=     2
 Symbolic Z-matrix:
 Charge =  0 Multiplicity = 2

 SCF Done:  E(UPM6) = -0.462245045502E-02 A.U. after   14 cycles
 SCF Done:  E(UPM6) = -0.627882188097E-02 A.U. after   10 cycles
 SCF Done:  E(UPM6) = -0.647456524851E-02 A.U. after    9 cycles
 SCF Done:  E(UPM6) = -0.654298932293E-02 A.U. after    9 cycles
 SCF Done:  E(UPM6) = -0.654763019346E-02 A.U. after    9 cycles
 Optimization completed.
    -- Stationary point found.
 Normal termination of Gaussian 16 at Wed Oct 21 14:31:45 2020.
 Gaussian 16:  ES64L-G16RevA.03 25-Dec-2016

 ----------------------------------------------------------------------
 #P Freq PM6 5D 7F Integral=UltraFineGrid SCF=(NoSymm,XQC,MaxCyc=120) I
 Op(1/33=1) Geom=Check Guess=Read
 ----------------------------------------------------------------------

 TstMul:  Mul=     2
 TstMul:  ICh=     0
 TstMul:  Mul=     2
 Structure from the checkpoint file:  "MN_78_RKT01_BH76_PM6_SE.chk"
 Charge =  0 Multiplicity = 2

                         Standard orientation:
 ---------------------------------------------------------------------
 Center     Atomic      Atomic             Coordinates (Angstroms)
 Number     Number       Type             X           Y           Z
 ---------------------------------------------------------------------
      1          1           0        0.000000    0.000000   -1.317840
      2         17           0        0.000000    0.000000    0.203998
      3          1           0        0.000000    0.000000   -2.150119
 ---------------------------------------------------------------------

 SCF Done:  E(UPM6) = -0.654763019345E-02 A.U. after    2 cycles

 The electronic state is 2-SG.
 Alpha  occ. eigenvalues --   -1.01345  -0.68536  -0.42193  -0.42193  -0.40170
 Alpha virt. eigenvalues --    0.17051   3.26869   3.27832   3.27832   3.31654
 Alpha virt. eigenvalues --    3.31654
  Beta  occ. eigenvalues --   -0.89912  -0.61839  -0.40434  -0.40434
  Beta virt. eigenvalues --   -0.08161   0.20169   3.30797   3.30816   3.30816
  Beta virt. eigenvalues --    3.32072   3.32072

 Mulliken charges and spin densities:
               1          2
     1  H    0.101619  -0.054574
     2  Cl  -0.226181   0.672439
     3  H    0.124562   0.382136
 Sum of Mulliken charges =   0.00000   1.00000

 Dipole moment (field-independent basis, Debye):
    X=             -0.0000    Y=             -0.0000    Z=             -2.1497  Tot=              2.1497
 N-N= 1.428204269863D+01 E-N=-7.134800768381D+00  KE=-1.617182194071D+01
  Exact polarizability:   3.298   0.000   3.471  -0.000  -0.000  25.677
 Approx polarizability:   2.732   0.000   2.732  -0.000   0.000  17.235
 Leave Link  601 at Wed Oct 21 14:32:08 2020, MaxMem=  2684354560 cpu:               2.4 elap:               0.8
 (Enter /udrive/faculty/rpeverati/g16/g16/l701.exe)
 ... and contract with generalized density number  0.
 Compute integral second derivatives.
 Leave Link  701 at Wed Oct 21 14:32:09 2020, MaxMem=  2684354560 cpu:               4.3 elap:               0.9
 (Enter /udrive/faculty/rpeverati/g16/g16/l702.exe)
 L702 exits ... SP integral derivatives will be done elsewhere.

 ******    2 imaginary frequencies (negative Signs) ******

                      1                      2                      3
                     PI                     PI                     SG
 Frequencies --   -215.1895              -215.1895              1115.7088
 Red. masses --      1.0103                 1.0103                 1.0638
 Frc consts  --      0.0276                 0.0276                 0.7802
 IR Inten    --      0.1370                 0.1866                30.6371

                      4
                     SG
 Frequencies --   3702.8447
 Red. masses --      1.0081
 Frc consts  --      8.1441
 IR Inten    --    647.1533

 - Thermochemistry -
 -------------------
 Temperature   298.150 Kelvin.  Pressure   1.00000 Atm.
 Atom     1 has atomic number  1 and mass   1.00783

 Molecular mass:    36.98450 amu.
 Principal axes and moments of inertia in atomic units:
                           1         2         3
     Eigenvalues --     0.00000  26.80715  26.80715
           X            0.00000   0.00000   1.00000
           Y            0.00000   1.00000   0.00000
           Z            1.00000   0.00000   0.00000
 This molecule is a prolate symmetric top.
 Rotational symmetry number  1.
 Rotational temperature (Kelvin)      3.23100
 Rotational constant (GHZ):          67.323125
    2 imaginary frequencies ignored.
 Zero-point vibrational energy      28821.4 (Joules/Mol)
                                    6.88847 (Kcal/Mol)
 Vibrational temperatures:   1605.26  5327.57
          (Kelvin)

 Zero-point correction=                           0.010977 (Hartree/Particle)
 Thermal correction to Energy=                    0.013361
 Thermal correction to Enthalpy=                  0.014306
 Thermal correction to Gibbs Free Energy=        -0.009056
 Sum of electronic and zero-point Energies=              0.004430
 Sum of electronic and thermal Energies=                 0.006814
 Sum of electronic and thermal Enthalpies=               0.007758
 Sum of electronic and thermal Free Energies=           -0.015603

                     E (Thermal)             CV                S
                      KCal/Mol        Cal/Mol-Kelvin    Cal/Mol-Kelvin
 Total                    8.384              5.235             49.168
 Electronic               0.000              0.000              1.377
 Translational            0.889              2.981             36.753
 Rotational               0.592              1.987             10.979
 Vibrational              6.903              0.267              0.058

 Optimization completed.
    -- Stationary point found.
 Normal termination of Gaussian 16 at Wed Oct 21 14:32:16 2020.
