 Gaussian 16, Revision A.03,
 Gaussian 16:  ES64L-G16RevA.03 25-Dec-2016

 ----------------------------------------------------------------------
 #P Opt(MaxCyc=150) PM6 5D 7F Integral=UltraFineGrid SCF=(NoSymm,XQC,Ma
 xCyc=120) IOp(1/33=1)
 ----------------------------------------------------------------------

 TstMul:  Mul=     1
 TstMul:  ICh=    -1
 TstMul:  Mul=     1
 Symbolic Z-matrix:
 Charge = -1 Multiplicity = 1

 SCF Done:  E(RPM6) = -0.495118236206E-01 A.U. after    8 cycles
 SCF Done:  E(RPM6) = -0.513290250997E-01 A.U. after    6 cycles
 SCF Done:  E(RPM6) = -0.525636531418E-01 A.U. after    7 cycles
 Optimization completed.
    -- Stationary point found.

                         Standard orientation:
 ---------------------------------------------------------------------
 Center     Atomic      Atomic             Coordinates (Angstroms)
 Number     Number       Type             X           Y           Z
 ---------------------------------------------------------------------
      1          8           0        0.000000    0.000000    0.096611
      2          1           0        0.000000    0.000000   -0.772886
 ---------------------------------------------------------------------

 The electronic state is 1-SG.
 Alpha  occ. eigenvalues --   -0.67566  -0.20482  -0.08479  -0.08479
 Alpha virt. eigenvalues --    0.55564

 Mulliken charges:
               1
     1  O   -1.251406
     2  H    0.251406
 Sum of Mulliken charges =  -1.00000

 Dipole moment (field-independent basis, Debye):
    X=             -0.0000    Y=             -0.0000    Z=             -1.8889  Tot=              1.8889
 N-N= 1.369389196833D+01 E-N=-4.242315827389D+00  KE=-2.115049125428D+01
 Leave Link  601 at Wed Oct 21 14:30:52 2020, MaxMem=  2684354560 cpu:               4.4 elap:               1.0
 (Enter /udrive/faculty/rpeverati/g16/g16/l9999.exe)

 Test job not archived.
 1\1\GINC-NODE40\FOpt\RPM6\ZDO\H1O1(1-)\RPEVERATI\21-Oct-2020\0\\#P Opt
 (MaxCyc=150) PM6 5D 7F Integral=UltraFineGrid SCF=(NoSymm,XQC,MaxCyc=1
 20) IOp(1/33=1)\\TS search on BH76.\\-1,1\O,0.,0.,0.0606199425\H,0.,0.
 ,-0.8088765186\\Version=ES64L-G16RevA.03\State=1-SG\HF=-0.0525637\RMSD
 =5.515e-10\RMSF=7.006e-05\Dipole=0.,0.,-0.7431422\PG=C*V [C*(H1O1)]\\@

 Normal termination of Gaussian 16 at Wed Oct 21 14:30:54 2020.
