 Gaussian 16, Revision A.03,

 ----------------------------------------------------------------------
 #P Opt(TS,MaxCyc=50,NoEigenTest,MaxStep=10,AddRedundant) PM6 5D 7F Int
 egral=UltraFineGrid SCF=(NoSymm,XQC,MaxCyc=120) IOp(1/33=1)
 ----------------------------------------------------------------------

 TstMul:  Mul=     2
 TstMul:  ICh=     0
 TstMul:  Mul=     2
 Symbolic Z-matrix:
 Charge =  0 Multiplicity = 2

 SCF Done:  E(UPM6) = -0.228733771113E-01 A.U. after   16 cycles
 SCF Done:  E(UPM6) = -0.229026131754E-01 A.U. after    8 cycles
 SCF Done:  E(UPM6) = -0.229227977477E-01 A.U. after   10 cycles
 SCF Done:  E(UPM6) = -0.233584835705E-01 A.U. after   15 cycles
 SCF Done:  E(UPM6) = -0.239360073797E-01 A.U. after   15 cycles
 SCF Done:  E(UPM6) = -0.243373684243E-01 A.U. after   15 cycles
 SCF Done:  E(UPM6) = -0.245591966634E-01 A.U. after   14 cycles
 SCF Done:  E(UPM6) = -0.246023289167E-01 A.U. after   13 cycles
 SCF Done:  E(UPM6) = -0.246041773040E-01 A.U. after   12 cycles
 SCF Done:  E(UPM6) = -0.246033551414E-01 A.U. after   14 cycles
 SCF Done:  E(UPM6) = -0.251696482742E-01 A.U. after   13 cycles
 SCF Done:  E(UPM6) = -0.252641579635E-01 A.U. after   14 cycles
 SCF Done:  E(UPM6) = -0.253538948160E-01 A.U. after   12 cycles
 SCF Done:  E(UPM6) = -0.254355324311E-01 A.U. after   12 cycles
 SCF Done:  E(UPM6) = -0.255059159783E-01 A.U. after   14 cycles
 SCF Done:  E(UPM6) = -0.255621741691E-01 A.U. after   12 cycles
 SCF Done:  E(UPM6) = -0.256019106000E-01 A.U. after   13 cycles
 SCF Done:  E(UPM6) = -0.256233943698E-01 A.U. after   13 cycles
 SCF Done:  E(UPM6) = -0.256272673371E-01 A.U. after   12 cycles
 Optimization completed.
    -- Stationary point found.
 Normal termination of Gaussian 16 at Wed Oct 28 15:47:17 2020.
 Gaussian 16:  ES64L-G16RevA.03 25-Dec-2016

 ----------------------------------------------------------------------
 #P Freq PM6 5D 7F Integral=UltraFineGrid SCF=(NoSymm,XQC,MaxCyc=120) I
 Op(1/33=1) Geom=Check Guess=Read
 ----------------------------------------------------------------------

 TstMul:  Mul=     2
 TstMul:  ICh=     0
 TstMul:  Mul=     2
 Structure from the checkpoint file:  "MN_79_RKT02_BH76_PM6_SE.chk"
 Charge =  0 Multiplicity = 2

                         Standard orientation:
 ---------------------------------------------------------------------
 Center     Atomic      Atomic             Coordinates (Angstroms)
 Number     Number       Type             X           Y           Z
 ---------------------------------------------------------------------
      1          8           0       -0.302311   -0.123713    0.000000
      2          1           0       -0.618215    0.800244   -0.000055
      3          1           0        1.144822    0.218073    0.000186
      4          1           0        1.891879   -0.028612   -0.000130
 ---------------------------------------------------------------------

 SCF Done:  E(UPM6) = -0.256272673371E-01 A.U. after    2 cycles

 The electronic state is 2-A.
 Alpha  occ. eigenvalues --   -1.11279  -0.65768  -0.59644  -0.46125  -0.43330
 Alpha virt. eigenvalues --    0.17189   0.22942
  Beta  occ. eigenvalues --   -0.97850  -0.58588  -0.53571  -0.37665
  Beta virt. eigenvalues --   -0.04431   0.19713   0.24622

 Mulliken charges and spin densities:
               1          2
     1  O   -0.393602   0.907692
     2  H    0.262829  -0.064623
     3  H    0.051380  -0.042350
     4  H    0.079393   0.199281
 Sum of Mulliken charges =  -0.00000   1.00000

 Dipole moment (field-independent basis, Debye):
    X=              0.7655    Y=              1.5674    Z=             -0.0001  Tot=              1.7443
 N-N= 1.849905120869D+01 E-N=-1.122870222933D+01  KE=-2.008246482547D+01
  Exact polarizability:  16.033  -1.095   4.894  -0.001   0.000   0.039
 Approx polarizability:   9.124  -1.041   3.175  -0.001   0.000   0.017
 Leave Link  601 at Wed Oct 28 15:47:20 2020, MaxMem=  2684354560 cpu:               0.3 elap:               0.1
 (Enter /udrive/faculty/rpeverati/g16/g16/l701.exe)
 ... and contract with generalized density number  0.
 Compute integral second derivatives.
 Leave Link  701 at Wed Oct 28 15:47:20 2020, MaxMem=  2684354560 cpu:               0.9 elap:               0.1
 (Enter /udrive/faculty/rpeverati/g16/g16/l702.exe)
 L702 exits ... SP integral derivatives will be done elsewhere.

 ******    2 imaginary frequencies (negative Signs) ******

                      1                      2                      3
                      A                      A                      A
 Frequencies --   -528.0084              -487.3309               627.5670
 Red. masses --      1.0078                 1.0298                 1.1277
 Frc consts  --      0.1655                 0.1441                 0.2617
 IR Inten    --      5.4816                 1.0459               209.8106

                      4                      5                      6
                      A                      A                      A
 Frequencies --    737.3351              2629.9969              4693.8460
 Red. masses --      1.0510                 1.0666                 1.0081
 Frc consts  --      0.3367                 4.3468                13.0867
 IR Inten    --    118.7717               101.9243               747.3751

 - Thermochemistry -
 -------------------
 Temperature   298.150 Kelvin.  Pressure   1.00000 Atm.
 Atom     1 has atomic number  8 and mass  15.99491

 Molecular mass:    19.01839 amu.
 Principal axes and moments of inertia in atomic units:
                           1         2         3
     Eigenvalues --     3.15315  23.13355  26.28670
           X            0.99952  -0.03092   0.00000
           Y            0.03092   0.99952   0.00000
           Z           -0.00000  -0.00000   1.00000
 This molecule is an asymmetric top.
 Rotational symmetry number  1.
 Rotational temperatures (Kelvin)     27.46906     3.74408     3.29497
 Rotational constants (GHZ):         572.36221    78.01400    68.65606
    2 imaginary frequencies ignored.
 Zero-point vibrational energy      51970.2 (Joules/Mol)
                                   12.42118 (Kcal/Mol)
 Vibrational temperatures:    902.93  1060.86  3783.98  6753.40
          (Kelvin)

 Zero-point correction=                           0.019794 (Hartree/Particle)
 Thermal correction to Energy=                    0.022871
 Thermal correction to Enthalpy=                  0.023815
 Thermal correction to Gibbs Free Energy=        -0.000954
 Sum of electronic and zero-point Energies=             -0.005833
 Sum of electronic and thermal Energies=                -0.002756
 Sum of electronic and thermal Enthalpies=              -0.001812
 Sum of electronic and thermal Free Energies=           -0.026581

                     E (Thermal)             CV                S
                      KCal/Mol        Cal/Mol-Kelvin    Cal/Mol-Kelvin
 Total                   14.352              7.696             52.131
 Electronic               0.000              0.000              1.377
 Translational            0.889              2.981             34.771
 Rotational               0.889              2.981             15.313
 Vibrational             12.574              1.734              0.669

 Optimization completed.
    -- Stationary point found.
 Normal termination of Gaussian 16 at Wed Oct 28 15:47:21 2020.
