 Gaussian 16, Revision A.03,
 Gaussian 16:  ES64L-G16RevA.03 25-Dec-2016

 ----------------------------------------------------------------------
 #P Opt(MaxCyc=150) PM6 5D 7F Integral=UltraFineGrid SCF=(NoSymm,XQC,Ma
 xCyc=120) IOp(1/33=1)
 ----------------------------------------------------------------------

 TstMul:  Mul=     2
 TstMul:  ICh=     0
 TstMul:  Mul=     2
 Symbolic Z-matrix:
 Charge =  0 Multiplicity = 2

 SCF Done:  E(UPM6) =  0.701655623764E-01 A.U. after   13 cycles
 SCF Done:  E(UPM6) =  0.695131102745E-01 A.U. after    9 cycles
 SCF Done:  E(UPM6) =  0.694051605313E-01 A.U. after    9 cycles
 Optimization completed.
    -- Stationary point found.

                         Standard orientation:
 ---------------------------------------------------------------------
 Center     Atomic      Atomic             Coordinates (Angstroms)
 Number     Number       Type             X           Y           Z
 ---------------------------------------------------------------------
      1          7           0        0.000000   -0.000000    0.131520
      2          1           0       -0.000000    0.809642   -0.460321
      3          1           0       -0.000000   -0.809642   -0.460321
 ---------------------------------------------------------------------

 The electronic state is 2-B1.
 Alpha  occ. eigenvalues --   -1.09426  -0.62487  -0.46287  -0.44895
 Alpha virt. eigenvalues --    0.16087   0.22359
  Beta  occ. eigenvalues --   -1.01704  -0.60284  -0.39866
  Beta virt. eigenvalues --    0.00464   0.18389   0.23889

 Mulliken charges and spin densities:
               1          2
     1  N   -0.374612   1.102044
     2  H    0.187306  -0.051022
     3  H    0.187306  -0.051022
 Sum of Mulliken charges =   0.00000   1.00000

 Dipole moment (field-independent basis, Debye):
    X=              0.0000    Y=             -0.0000    Z=             -2.2789  Tot=              2.2789
 N-N= 1.195052266641D+01 E-N=-7.095495693453D+00  KE=-1.201724248990D+01
 Leave Link  601 at Wed Oct 21 14:30:56 2020, MaxMem=  2684354560 cpu:               4.5 elap:               1.0
 (Enter /udrive/faculty/rpeverati/g16/g16/l9999.exe)

 Test job not archived.
 1\1\GINC-NODE58\FOpt\UPM6\ZDO\H2N1(2)\RPEVERATI\21-Oct-2020\0\\#P Opt(
 MaxCyc=150) PM6 5D 7F Integral=UltraFineGrid SCF=(NoSymm,XQC,MaxCyc=12
 0) IOp(1/33=1)\\TS search on BH76.\\0,2\N,0.,0.,0.11172981\H,0.,0.8096
 424162,-0.4801115667\H,0.,-0.8096424162,-0.4801115667\\Version=ES64L-G
 16RevA.03\State=2-B1\HF=0.0694052\S2=0.755775\S2-1=0.\S2A=0.750018\RMS

 Normal termination of Gaussian 16 at Wed Oct 21 14:30:58 2020.
