 Gaussian 16, Revision A.03,
 Gaussian 16:  ES64L-G16RevA.03 25-Dec-2016

 ----------------------------------------------------------------------
 #P Opt(MaxCyc=150) PM6 5D 7F Integral=UltraFineGrid SCF=(NoSymm,XQC,Ma
 xCyc=120) IOp(1/33=1)
 ----------------------------------------------------------------------

 TstMul:  Mul=     1
 TstMul:  ICh=     0
 TstMul:  Mul=     1
 Symbolic Z-matrix:
 Charge =  0 Multiplicity = 1

 SCF Done:  E(RPM6) = -0.494348452613E-02 A.U. after   10 cycles
 SCF Done:  E(RPM6) = -0.499293040877E-02 A.U. after    7 cycles
 SCF Done:  E(RPM6) = -0.500500026623E-02 A.U. after    7 cycles
 Optimization completed.
    -- Stationary point found.

                         Standard orientation:
 ---------------------------------------------------------------------
 Center     Atomic      Atomic             Coordinates (Angstroms)
 Number     Number       Type             X           Y           Z
 ---------------------------------------------------------------------
      1          7           0        0.000000    0.000000    0.108696
      2          1           0        0.000000    0.938172   -0.253624
      3          1           0        0.812481   -0.469086   -0.253624
      4          1           0       -0.812481   -0.469086   -0.253624
 ---------------------------------------------------------------------

 The electronic state is 1-A1.
 Alpha  occ. eigenvalues --   -1.14033  -0.59484  -0.59484  -0.37112
 Alpha virt. eigenvalues --    0.16112   0.25043   0.25043

 Mulliken charges:
               1
     1  N   -0.594923
     2  H    0.198308
     3  H    0.198308
     4  H    0.198308
 Sum of Mulliken charges =   0.00000

 Dipole moment (field-independent basis, Debye):
    X=             -0.0000    Y=             -0.0000    Z=             -2.2495  Tot=              2.2495
 N-N= 1.503183435932D+01 E-N=-1.147714576916D+01  KE=-1.319429121015D+01
 Leave Link  601 at Wed Oct 21 14:30:44 2020, MaxMem=  2684354560 cpu:               4.5 elap:               1.1
 (Enter /udrive/faculty/rpeverati/g16/g16/l9999.exe)

 Test job not archived.
 1\1\GINC-NODE01\FOpt\RPM6\ZDO\H3N1\RPEVERATI\21-Oct-2020\0\\#P Opt(Max
 Cyc=150) PM6 5D 7F Integral=UltraFineGrid SCF=(NoSymm,XQC,MaxCyc=120)
 IOp(1/33=1)\\TS search on BH76.\\0,1\N,0.,0.,0.2717317331\H,0.46908617
 03,0.8124810801,-0.0905888607\H,0.4690861703,-0.8124810801,-0.09058886
 07\H,-0.9381723406,0.,-0.0905888607\\Version=ES64L-G16RevA.03\State=1-

 Normal termination of Gaussian 16 at Wed Oct 21 14:30:46 2020.
