 Gaussian 16, Revision A.03,
 Gaussian 16:  ES64L-G16RevA.03 25-Dec-2016

 ----------------------------------------------------------------------
 #P Opt(MaxCyc=150) PM6 5D 7F Integral=UltraFineGrid SCF=(NoSymm,XQC,Ma
 xCyc=120) IOp(1/33=1)
 ----------------------------------------------------------------------

 TstMul:  Mul=     2
 TstMul:  ICh=     0
 TstMul:  Mul=     2
 Symbolic Z-matrix:
 Charge =  0 Multiplicity = 2

 SCF Done:  E(UPM6) =  0.562911317024E-01 A.U. after   12 cycles
 SCF Done:  E(UPM6) =  0.534890953080E-01 A.U. after   10 cycles
 SCF Done:  E(UPM6) =  0.531209552749E-01 A.U. after    9 cycles
 Optimization completed.
    -- Stationary point found.

                         Standard orientation:
 ---------------------------------------------------------------------
 Center     Atomic      Atomic             Coordinates (Angstroms)
 Number     Number       Type             X           Y           Z
 ---------------------------------------------------------------------
      1         15           0        0.000000    0.000000    0.110439
      2          1           0       -0.000000    1.110416   -0.828294
      3          1           0       -0.000000   -1.110416   -0.828294
 ---------------------------------------------------------------------

 The electronic state is 2-B1.
 Alpha  occ. eigenvalues --   -0.75339  -0.52443  -0.39794  -0.34239
 Alpha virt. eigenvalues --    0.14705   0.15527   5.04226   5.04524   5.04715
 Alpha virt. eigenvalues --    5.06357   5.08144
  Beta  occ. eigenvalues --   -0.73559  -0.51939  -0.37937
  Beta virt. eigenvalues --   -0.02207   0.15298   0.16345   5.06883   5.07556
  Beta virt. eigenvalues --    5.08004   5.08658   5.08726

 Mulliken charges and spin densities:
               1          2
     1  P   -0.041587   1.062142
     2  H    0.020793  -0.031071
     3  H    0.020793  -0.031071
 Sum of Mulliken charges =  -0.00000   1.00000

 Dipole moment (field-independent basis, Debye):
    X=              0.0000    Y=             -0.0000    Z=             -1.8396  Tot=              1.8396
 N-N= 9.564565621603D+00 E-N=-5.695478282446D+00  KE=-9.674914032649D+00
 Leave Link  601 at Wed Oct 21 14:31:37 2020, MaxMem=  2684354560 cpu:               5.6 elap:               1.2
 (Enter /udrive/faculty/rpeverati/g16/g16/l9999.exe)

 Test job not archived.
 1\1\GINC-NODE62\FOpt\UPM6\ZDO\H2P1(2)\RPEVERATI\21-Oct-2020\0\\#P Opt(
 MaxCyc=150) PM6 5D 7F Integral=UltraFineGrid SCF=(NoSymm,XQC,MaxCyc=12
 0) IOp(1/33=1)\\TS search on BH76.\\0,2\P,0.,0.,0.0860897708\H,0.,1.11
 04156667,-0.8526436837\H,0.,-1.1104156667,-0.8526436837\\Version=ES64L
 -G16RevA.03\State=2-B1\HF=0.053121\S2=0.752074\S2-1=0.\S2A=0.750003\RM

 Normal termination of Gaussian 16 at Wed Oct 21 14:31:40 2020.
