 Gaussian 16, Revision A.03,
 Gaussian 16:  ES64L-G16RevA.03 25-Dec-2016

 ----------------------------------------------------------------------
 #P Opt(MaxCyc=150) PM6 5D 7F Integral=UltraFineGrid SCF=(NoSymm,XQC,Ma
 xCyc=120) IOp(1/33=1)
 ----------------------------------------------------------------------

 TstMul:  Mul=     2
 TstMul:  ICh=     0
 TstMul:  Mul=     2
 Symbolic Z-matrix:
 Charge =  0 Multiplicity = 2

 SCF Done:  E(UPM6) =  0.213338461375E-01 A.U. after   10 cycles
 SCF Done:  E(UPM6) =  0.212982615080E-01 A.U. after    8 cycles
 SCF Done:  E(UPM6) =  0.212843017581E-01 A.U. after    8 cycles
 Optimization completed.
    -- Stationary point found.

                         Standard orientation:
 ---------------------------------------------------------------------
 Center     Atomic      Atomic             Coordinates (Angstroms)
 Number     Number       Type             X           Y           Z
 ---------------------------------------------------------------------
      1          8           0        0.000000    0.000000    0.108823
      2          1           0        0.000000    0.000000   -0.870587
 ---------------------------------------------------------------------

 Unable to determine electronic state:  partially filled degenerate orbitals.
 Alpha  occ. eigenvalues --   -1.14553  -0.62222  -0.57292  -0.45218
 Alpha virt. eigenvalues --    0.15684
  Beta  occ. eigenvalues --   -0.98110  -0.55797  -0.38529
  Beta virt. eigenvalues --   -0.06593   0.18360

 Mulliken charges and spin densities:
               1          2
     1  O   -0.261499   1.078976
     2  H    0.261499  -0.078976
 Sum of Mulliken charges =   0.00000   1.00000

 Dipole moment (field-independent basis, Debye):
    X=              0.0000    Y=             -0.0000    Z=             -1.5041  Tot=              1.5041
 N-N= 1.350430962499D+01 E-N=-3.719525012221D+00  KE=-1.852932950379D+01
 Leave Link  601 at Wed Oct 21 14:31:28 2020, MaxMem=  2684354560 cpu:               7.1 elap:               1.6
 (Enter /udrive/faculty/rpeverati/g16/g16/l9999.exe)

 Test job not archived.
 1\1\GINC-NODE56\FOpt\UPM6\ZDO\H1O1(2)\RPEVERATI\21-Oct-2020\0\\#P Opt(
 MaxCyc=150) PM6 5D 7F Integral=UltraFineGrid SCF=(NoSymm,XQC,MaxCyc=12
 0) IOp(1/33=1)\\TS search on BH76.\\0,2\O,0.,0.,0.1129120642\H,0.,0.,-
 0.8664979839\\Version=ES64L-G16RevA.03\HF=0.0212843\S2=0.756945\S2-1=0
 .\S2A=0.75\RMSD=1.343e-11\RMSF=2.011e-07\Dipole=0.,0.,-0.5917579\PG=C*

 Normal termination of Gaussian 16 at Wed Oct 21 14:31:31 2020.
