 Gaussian 16, Revision A.03,

 ----------------------------------------------------------------------
 #P Opt(TS,MaxCyc=50,NoEigenTest,MaxStep=10,AddRedundant) PM6 5D 7F Int
 egral=UltraFineGrid SCF=(NoSymm,XQC,MaxCyc=120) IOp(1/33=1)
 ----------------------------------------------------------------------

 TstMul:  Mul=     2
 TstMul:  ICh=     0
 TstMul:  Mul=     2
 Symbolic Z-matrix:
 Charge =  0 Multiplicity = 2

 SCF Done:  E(UPM6) =  0.264585329951E-03 A.U. after   16 cycles
 SCF Done:  E(UPM6) =  0.238470319744E-03 A.U. after   13 cycles
 SCF Done:  E(UPM6) =  0.248282613697E-03 A.U. after   13 cycles
 SCF Done:  E(UPM6) =  0.281674047457E-03 A.U. after   15 cycles
 SCF Done:  E(UPM6) =  0.140149335849E-03 A.U. after   15 cycles
 SCF Done:  E(UPM6) = -0.446399288876E-04 A.U. after   15 cycles
 SCF Done:  E(UPM6) = -0.243428271013E-03 A.U. after   15 cycles
 SCF Done:  E(UPM6) = -0.433634138155E-03 A.U. after   15 cycles
 SCF Done:  E(UPM6) = -0.590442035012E-03 A.U. after   14 cycles
 SCF Done:  E(UPM6) = -0.739569627811E-03 A.U. after   14 cycles
 SCF Done:  E(UPM6) = -0.214362682509E-02 A.U. after   13 cycles
 SCF Done:  E(UPM6) = -0.214420508207E-02 A.U. after   14 cycles
 SCF Done:  E(UPM6) = -0.202792564178E-02 A.U. after   14 cycles
 SCF Done:  E(UPM6) = -0.214206737044E-02 A.U. after   14 cycles
 SCF Done:  E(UPM6) = -0.210734848128E-02 A.U. after   14 cycles
 SCF Done:  E(UPM6) = -0.214718649120E-02 A.U. after   14 cycles
 SCF Done:  E(UPM6) = -0.212737611466E-02 A.U. after   14 cycles
 SCF Done:  E(UPM6) = -0.214773627505E-02 A.U. after   14 cycles
 SCF Done:  E(UPM6) = -0.214794320144E-02 A.U. after   13 cycles
 Optimization completed.
    -- Stationary point found.
 Normal termination of Gaussian 16 at Wed Oct 28 16:07:40 2020.
 Gaussian 16:  ES64L-G16RevA.03 25-Dec-2016

 ----------------------------------------------------------------------
 #P Freq PM6 5D 7F Integral=UltraFineGrid SCF=(NoSymm,XQC,MaxCyc=120) I
 Op(1/33=1) Geom=Check Guess=Read
 ----------------------------------------------------------------------

 TstMul:  Mul=     2
 TstMul:  ICh=     0
 TstMul:  Mul=     2
 Structure from the checkpoint file:  "MN_81_RKT04_BH76_PM6_SE.chk"
 Charge =  0 Multiplicity = 2

                         Standard orientation:
 ---------------------------------------------------------------------
 Center     Atomic      Atomic             Coordinates (Angstroms)
 Number     Number       Type             X           Y           Z
 ---------------------------------------------------------------------
      1          6           0       -1.071865    0.019074    0.017684
      2          8           0        1.140764   -0.109902    0.016945
      3          1           0       -0.048205   -0.246126   -0.606363
      4          1           0       -0.915713   -0.022405    1.087155
      5          1           0       -1.376412    0.993514   -0.325369
      6          1           0       -1.691352   -0.795070   -0.332996
      7          1           0        1.336761    0.834858   -0.064090
 ---------------------------------------------------------------------

 SCF Done:  E(UPM6) = -0.214794320144E-02 A.U. after    2 cycles

 The electronic state is 2-A.
 Alpha  occ. eigenvalues --   -1.10188  -0.93182  -0.62982  -0.56726  -0.53599
 Alpha  occ. eigenvalues --   -0.53365  -0.42706  -0.40322
 Alpha virt. eigenvalues --    0.15723   0.19694   0.20079   0.20839   0.23507
  Beta  occ. eigenvalues --   -1.00745  -0.90904  -0.57625  -0.53057  -0.52751
  Beta  occ. eigenvalues --   -0.49676  -0.37792
  Beta virt. eigenvalues --   -0.03475   0.17666   0.20468   0.20551   0.21627
  Beta virt. eigenvalues --    0.23902

 Mulliken charges and spin densities:
               1          2
     1  C   -0.554502   0.398080
     2  O   -0.497092   0.734909
     3  H    0.261537  -0.055584
     4  H    0.183455  -0.012783
     5  H    0.162382  -0.009452
     6  H    0.172938  -0.004394
     7  H    0.271282  -0.050776
 Sum of Mulliken charges =  -0.00000   1.00000

 Dipole moment (field-independent basis, Debye):
    X=             -1.4228    Y=              1.3331    Z=             -0.6300  Tot=              2.0490
 N-N= 3.960358566346D+01 E-N=-4.030008443746D+01  KE=-2.935519773590D+01
  Exact polarizability:  30.157  -0.234  10.762   1.495  -0.114   7.413
 Approx polarizability:  15.852   0.349   7.078   0.936  -0.005   4.706
 Leave Link  601 at Wed Oct 28 16:07:44 2020, MaxMem=  2684354560 cpu:               0.8 elap:               0.1
 (Enter /udrive/faculty/rpeverati/g16/g16/l701.exe)
 ... and contract with generalized density number  0.
 Compute integral second derivatives.
 Leave Link  701 at Wed Oct 28 16:07:44 2020, MaxMem=  2684354560 cpu:               1.5 elap:               0.2
 (Enter /udrive/faculty/rpeverati/g16/g16/l702.exe)
 L702 exits ... SP integral derivatives will be done elsewhere.

 ******    1 imaginary frequencies (negative Signs) ******

                      1                      2                      3
                      A                      A                      A
 Frequencies --   -869.6389                99.0775               247.4442
 Red. masses --      1.1121                 1.0484                 2.2767
 Frc consts  --      0.4955                 0.0061                 0.0821
 IR Inten    --    299.8742                41.6202                39.5441

                      4                      5                      6
                      A                      A                      A
 Frequencies --    298.3829               852.4616               890.2739
 Red. masses --      1.2387                 1.1335                 1.1751
 Frc consts  --      0.0650                 0.4853                 0.5487
 IR Inten    --     32.6220                37.5579                11.2026

                      7                      8                      9
                      A                      A                      A
 Frequencies --   1110.7264              1236.7023              1254.1267
 Red. masses --      1.0533                 1.0993                 1.0938
 Frc consts  --      0.7656                 0.9906                 1.0136
 IR Inten    --     86.4089                65.9499                74.1192

                     10                     11                     12
                      A                      A                      A
 Frequencies --   1277.4226              1782.0492              2602.8707
 Red. masses --      1.1219                 1.1060                 1.0652
 Frc consts  --      1.0786                 2.0694                 4.2518
 IR Inten    --     91.8653               133.0686               158.6690

                     13                     14                     15
                      A                      A                      A
 Frequencies --   2710.0120              2721.9647              2781.8570
 Red. masses --      1.0961                 1.1000                 1.0186
 Frc consts  --      4.7430                 4.8020                 4.6443
 IR Inten    --    118.0148                89.1400                53.4469

 - Thermochemistry -
 -------------------
 Temperature   298.150 Kelvin.  Pressure   1.00000 Atm.
 Atom     1 has atomic number  6 and mass  12.00000

 Molecular mass:    33.03404 amu.
 Principal axes and moments of inertia in atomic units:
                           1         2         3
     Eigenvalues --    15.49337 155.86279 158.56582
           X            0.99964   0.02685  -0.00029
           Y           -0.02685   0.99960   0.00885
           Z            0.00053  -0.00884   0.99996
 This molecule is an asymmetric top.
 Rotational symmetry number  1.
 Rotational temperatures (Kelvin)      5.59039     0.55571     0.54623
 Rotational constants (GHZ):         116.48476    11.57904    11.38165
    1 imaginary frequencies ignored.
 Zero-point vibrational energy     118821.3 (Joules/Mol)
                                   28.39897 (Kcal/Mol)
 Warning -- explicit consideration of   3 degrees of freedom as
           vibrations may cause significant error
 Vibrational temperatures:    142.55   356.02   429.31  1226.50  1280.91
          (Kelvin)           1598.09  1779.34  1804.41  1837.93  2563.97
                             3744.95  3899.10  3916.30  4002.47

 Zero-point correction=                           0.045257 (Hartree/Particle)
 Thermal correction to Energy=                    0.049924
 Thermal correction to Enthalpy=                  0.050868
 Thermal correction to Gibbs Free Energy=         0.019751
 Sum of electronic and zero-point Energies=              0.043109
 Sum of electronic and thermal Energies=                 0.047776
 Sum of electronic and thermal Enthalpies=               0.048720
 Sum of electronic and thermal Free Energies=            0.017603

                     E (Thermal)             CV                S
                      KCal/Mol        Cal/Mol-Kelvin    Cal/Mol-Kelvin
 Total                   31.328             13.251             65.493
 Electronic               0.000              0.000              1.377
 Translational            0.889              2.981             36.416
 Rotational               0.889              2.981             20.576
 Vibrational             29.550              7.290              7.123
 Vibration     1          0.604              1.950              3.472
 Vibration     2          0.661              1.767              1.749
 Vibration     3          0.691              1.677              1.426

 Optimization completed.
    -- Stationary point found.
 Normal termination of Gaussian 16 at Wed Oct 28 16:07:45 2020.
