 Gaussian 16, Revision A.03,

 ----------------------------------------------------------------------
 #P Opt(TS,MaxCyc=50,NoEigenTest,MaxStep=10,AddRedundant) PM6 5D 7F Int
 egral=UltraFineGrid SCF=(NoSymm,XQC,MaxCyc=120) IOp(1/33=1)
 ----------------------------------------------------------------------

 TstMul:  Mul=     2
 TstMul:  ICh=     0
 TstMul:  Mul=     2
 Symbolic Z-matrix:
 Charge =  0 Multiplicity = 2

 SCF Done:  E(UPM6) =  0.169029153896E-01 A.U. after   19 cycles
 SCF Done:  E(UPM6) =  0.156891486769E-01 A.U. after   15 cycles
 SCF Done:  E(UPM6) =  0.141158041394E-01 A.U. after   16 cycles
 SCF Done:  E(UPM6) =  0.128698366062E-01 A.U. after   17 cycles
 SCF Done:  E(UPM6) =  0.107561624483E-01 A.U. after   16 cycles
 SCF Done:  E(UPM6) =  0.120581851466E-01 A.U. after   16 cycles
 SCF Done:  E(UPM6) =  0.124110884891E-01 A.U. after   16 cycles
 SCF Done:  E(UPM6) =  0.121313263867E-01 A.U. after   16 cycles
 SCF Done:  E(UPM6) =  0.114378722859E-01 A.U. after   15 cycles
 SCF Done:  E(UPM6) =  0.104031250404E-01 A.U. after   16 cycles
 SCF Done:  E(UPM6) =  0.403875737178E-02 A.U. after   14 cycles
 SCF Done:  E(UPM6) =  0.385616499258E-02 A.U. after   14 cycles
 SCF Done:  E(UPM6) =  0.377828716248E-02 A.U. after   15 cycles
 SCF Done:  E(UPM6) =  0.345241978565E-02 A.U. after   14 cycles
 SCF Done:  E(UPM6) =  0.343533240233E-02 A.U. after   14 cycles
 SCF Done:  E(UPM6) =  0.341666859238E-02 A.U. after   13 cycles
 SCF Done:  E(UPM6) =  0.340874254383E-02 A.U. after   13 cycles
 SCF Done:  E(UPM6) =  0.340754501183E-02 A.U. after   13 cycles
 SCF Done:  E(UPM6) =  0.340745216751E-02 A.U. after   12 cycles
 Optimization completed.
    -- Stationary point found.
 Normal termination of Gaussian 16 at Wed Oct 21 14:39:40 2020.
 Gaussian 16:  ES64L-G16RevA.03 25-Dec-2016

 ----------------------------------------------------------------------
 #P Freq PM6 5D 7F Integral=UltraFineGrid SCF=(NoSymm,XQC,MaxCyc=120) I
 Op(1/33=1) Geom=Check Guess=Read
 ----------------------------------------------------------------------

 TstMul:  Mul=     2
 TstMul:  ICh=     0
 TstMul:  Mul=     2
 Structure from the checkpoint file:  "MN_83_RKT07_BH76_PM6_SE.chk"
 Charge =  0 Multiplicity = 2

                         Standard orientation:
 ---------------------------------------------------------------------
 Center     Atomic      Atomic             Coordinates (Angstroms)
 Number     Number       Type             X           Y           Z
 ---------------------------------------------------------------------
      1          7           0       -1.002441    0.018814   -0.088460
      2          8           0        0.980261   -0.110358    0.056622
      3          1           0       -1.130445   -0.773213    0.515536
      4          1           0       -1.060881    0.864315    0.443616
      5          1           0        0.003707   -0.103679   -0.786709
      6          1           0        1.362621    0.763748   -0.006194
 ---------------------------------------------------------------------

 SCF Done:  E(UPM6) =  0.340745216753E-02 A.U. after    2 cycles

 The electronic state is 2-A.
 Alpha  occ. eigenvalues --   -1.15837  -1.03953  -0.67621  -0.64035  -0.55731
 Alpha  occ. eigenvalues --   -0.48961  -0.42463  -0.39809
 Alpha virt. eigenvalues --    0.11783   0.19312   0.21810   0.22054
  Beta  occ. eigenvalues --   -1.10760  -0.97851  -0.64595  -0.61886  -0.52948
  Beta  occ. eigenvalues --   -0.40153  -0.39613
  Beta virt. eigenvalues --   -0.02480   0.13916   0.20678   0.22608   0.22712

 Mulliken charges and spin densities:
               1          2
     1  N   -0.426062   0.723994
     2  O   -0.680728   0.425672
     3  H    0.229477  -0.035460
     4  H    0.218676  -0.036025
     5  H    0.377101  -0.052773
     6  H    0.281536  -0.025407
 Sum of Mulliken charges =  -0.00000   1.00000

 Dipole moment (field-independent basis, Debye):
    X=             -1.3950    Y=              1.5395    Z=              0.3792  Tot=              2.1119
 N-N= 4.110359722466D+01 E-N=-3.971854386207D+01  KE=-3.241966074483D+01
  Exact polarizability:  42.461  -1.378   9.398   3.898  -0.601   5.561
 Approx polarizability:  20.014   0.041   6.171   1.644  -0.224   3.543
 Leave Link  601 at Wed Oct 21 14:40:06 2020, MaxMem=  2684354560 cpu:               3.2 elap:               1.0
 (Enter /udrive/faculty/rpeverati/g16/g16/l701.exe)
 ... and contract with generalized density number  0.
 Compute integral second derivatives.
 Leave Link  701 at Wed Oct 21 14:40:08 2020, MaxMem=  2684354560 cpu:               4.1 elap:               1.1
 (Enter /udrive/faculty/rpeverati/g16/g16/l702.exe)
 L702 exits ... SP integral derivatives will be done elsewhere.

 ******    1 imaginary frequencies (negative Signs) ******

                      1                      2                      3
                      A                      A                      A
 Frequencies --  -1226.7183               376.1053               466.8569
 Red. masses --      1.0555                 1.1963                 3.4426
 Frc consts  --      0.9358                 0.0997                 0.4421
 IR Inten    --     24.6964                66.9583               108.5709

                      4                      5                      6
                      A                      A                      A
 Frequencies --    561.6517               894.6802               920.3109
 Red. masses --      1.0390                 1.1565                 1.1281
 Frc consts  --      0.1931                 0.5454                 0.5630
 IR Inten    --     38.7700               365.2473                 3.2597

                      7                      8                      9
                      A                      A                      A
 Frequencies --   1294.6658              1558.9720              2014.2304
 Red. masses --      1.0582                 1.1008                 1.0859
 Frc consts  --      1.0451                 1.5763                 2.5958
 IR Inten    --    107.6758                49.0258               269.1199

                     10                     11                     12
                      A                      A                      A
 Frequencies --   2546.1002              2811.8277              2843.3145
 Red. masses --      1.0610                 1.0913                 1.0420
 Frc consts  --      4.0526                 5.0836                 4.9631
 IR Inten    --    382.4218               105.9675                55.7900

 - Thermochemistry -
 -------------------
 Temperature   298.150 Kelvin.  Pressure   1.00000 Atm.
 Atom     1 has atomic number  7 and mass  14.00307

 Molecular mass:    34.02929 amu.
 Principal axes and moments of inertia in atomic units:
                           1         2         3
     Eigenvalues --    11.86705 124.96624 128.16117
           X            0.99899   0.03190  -0.03148
           Y           -0.03074   0.99885   0.03692
           Z            0.03263  -0.03592   0.99882
 This molecule is an asymmetric top.
 Rotational symmetry number  1.
 Rotational temperatures (Kelvin)      7.29869     0.69310     0.67582
 Rotational constants (GHZ):         152.08000    14.44183    14.08181
    1 imaginary frequencies ignored.
 Zero-point vibrational energy      97428.2 (Joules/Mol)
                                   23.28589 (Kcal/Mol)
 Warning -- explicit consideration of   3 degrees of freedom as
           vibrations may cause significant error
 Vibrational temperatures:    541.13   671.70   808.09  1287.25  1324.12
          (Kelvin)           1862.74  2243.01  2898.03  3663.27  4045.59
                             4090.90

 Zero-point correction=                           0.037108 (Hartree/Particle)
 Thermal correction to Energy=                    0.040827
 Thermal correction to Enthalpy=                  0.041772
 Thermal correction to Gibbs Free Energy=         0.013076
 Sum of electronic and zero-point Energies=              0.040516
 Sum of electronic and thermal Energies=                 0.044235
 Sum of electronic and thermal Enthalpies=               0.045179
 Sum of electronic and thermal Free Energies=            0.016484

                     E (Thermal)             CV                S
                      KCal/Mol        Cal/Mol-Kelvin    Cal/Mol-Kelvin
 Total                   25.620             11.126             60.394
 Electronic               0.000              0.000              1.377
 Translational            0.889              2.981             36.505
 Rotational               0.889              2.981             19.880
 Vibrational             23.842              5.164              2.632
 Vibration     1          0.747              1.521              1.055
 Vibration     2          0.824              1.324              0.746
 Vibration     3          0.917              1.114              0.521

 Optimization completed.
    -- Stationary point found.
 Normal termination of Gaussian 16 at Wed Oct 21 14:40:15 2020.
