 Gaussian 16, Revision A.03,

 ----------------------------------------------------------------------
 #P Opt(TS,MaxCyc=50,NoEigenTest,MaxStep=10,AddRedundant) PM6 5D 7F Int
 egral=UltraFineGrid SCF=(NoSymm,XQC,MaxCyc=120) IOp(1/33=1)
 ----------------------------------------------------------------------

 TstMul:  Mul=     2
 TstMul:  ICh=     0
 TstMul:  Mul=     2
 Symbolic Z-matrix:
 Charge =  0 Multiplicity = 2

 SCF Done:  E(UPM6) = -0.925678761789E-02 A.U. after   15 cycles
 SCF Done:  E(UPM6) = -0.889840572238E-02 A.U. after   14 cycles
 SCF Done:  E(UPM6) = -0.874073386325E-02 A.U. after   12 cycles
 SCF Done:  E(UPM6) = -0.807557304706E-02 A.U. after   12 cycles
 SCF Done:  E(UPM6) = -0.758835652556E-02 A.U. after   13 cycles
 SCF Done:  E(UPM6) = -0.725151748340E-02 A.U. after   13 cycles
 SCF Done:  E(UPM6) = -0.703128933194E-02 A.U. after   13 cycles
 SCF Done:  E(UPM6) = -0.689797806566E-02 A.U. after   13 cycles
 SCF Done:  E(UPM6) = -0.682706987113E-02 A.U. after   14 cycles
 SCF Done:  E(UPM6) = -0.679888281442E-02 A.U. after   15 cycles
 SCF Done:  E(UPM6) = -0.680606374601E-02 A.U. after   15 cycles
 SCF Done:  E(UPM6) = -0.682198454671E-02 A.U. after   13 cycles
 SCF Done:  E(UPM6) = -0.683891433395E-02 A.U. after   15 cycles
 SCF Done:  E(UPM6) = -0.685559576003E-02 A.U. after   14 cycles
 SCF Done:  E(UPM6) = -0.687047099495E-02 A.U. after   14 cycles
 SCF Done:  E(UPM6) = -0.688191677170E-02 A.U. after   13 cycles
 SCF Done:  E(UPM6) = -0.688848915985E-02 A.U. after   14 cycles
 SCF Done:  E(UPM6) = -0.688950881675E-02 A.U. after   15 cycles
 SCF Done:  E(UPM6) = -0.688954638899E-02 A.U. after   15 cycles
 Optimization completed.
    -- Stationary point found.
 Normal termination of Gaussian 16 at Wed Oct 21 14:40:43 2020.
 Gaussian 16:  ES64L-G16RevA.03 25-Dec-2016

 ----------------------------------------------------------------------
 #P Freq PM6 5D 7F Integral=UltraFineGrid SCF=(NoSymm,XQC,MaxCyc=120) I
 Op(1/33=1) Geom=Check Guess=Read
 ----------------------------------------------------------------------

 TstMul:  Mul=     2
 TstMul:  ICh=     0
 TstMul:  Mul=     2
 Structure from the checkpoint file:  "MN_86_RKT10_BH76_PM6_SE.chk"
 Charge =  0 Multiplicity = 2

                         Standard orientation:
 ---------------------------------------------------------------------
 Center     Atomic      Atomic             Coordinates (Angstroms)
 Number     Number       Type             X           Y           Z
 ---------------------------------------------------------------------
      1          1           0        0.385402   -1.587019   -0.000000
      2          9           0       -0.000000    0.352671    0.000000
      3          1           0       -0.385402   -1.587019   -0.000000
 ---------------------------------------------------------------------

 SCF Done:  E(UPM6) = -0.688954638899E-02 A.U. after    2 cycles

 The electronic state is 2-A'.
 Alpha  occ. eigenvalues --   -1.56547  -0.57889  -0.56655  -0.56650  -0.42208
 Alpha virt. eigenvalues --    0.23867
  Beta  occ. eigenvalues --   -1.47421  -0.63262  -0.63257  -0.56483
  Beta virt. eigenvalues --   -0.11924   0.24112

 Mulliken charges and spin densities:
               1          2
     1  H    0.021910   0.022128
     2  F   -0.043819   0.955744
     3  H    0.021910   0.022128
 Sum of Mulliken charges =  -0.00000   1.00000

 Dipole moment (field-independent basis, Debye):
    X=             -0.0000    Y=             -0.4162    Z=              0.0000  Tot=              0.4162
 N-N= 2.207385643373D+01 E-N=-7.338679486601D+00  KE=-2.981909189317D+01
  Exact polarizability:   4.199   0.000   5.727   0.000   0.000   0.001
 Approx polarizability:   2.579   0.000   2.665   0.000   0.000   0.000
 Leave Link  601 at Wed Oct 21 14:41:17 2020, MaxMem=  2684354560 cpu:               2.6 elap:               1.0
 (Enter /udrive/faculty/rpeverati/g16/g16/l701.exe)
 ... and contract with generalized density number  0.
 Compute integral second derivatives.
 Leave Link  701 at Wed Oct 21 14:41:19 2020, MaxMem=  2684354560 cpu:               4.7 elap:               1.4
 (Enter /udrive/faculty/rpeverati/g16/g16/l702.exe)
 L702 exits ... SP integral derivatives will be done elsewhere.

 ******    1 imaginary frequencies (negative Signs) ******

                      1                      2                      3
                     A'                     A'                     A'
 Frequencies --   -400.8867               144.5956              5201.9246
 Red. masses --      1.1085                 1.0117                 1.0078
 Frc consts  --      0.1050                 0.0125                16.0684
 IR Inten    --     63.4646                 0.8021                72.2035

 - Thermochemistry -
 -------------------
 Temperature   298.150 Kelvin.  Pressure   1.00000 Atm.
 Atom     1 has atomic number  1 and mass   1.00783

 Molecular mass:    21.01405 amu.
 Principal axes and moments of inertia in atomic units:
                           1         2         3
     Eigenvalues --     1.06915  24.48414  25.55329
           X            0.00000   1.00000   0.00000
           Y            1.00000  -0.00000   0.00000
           Z            0.00000   0.00000   1.00000
 This molecule is an asymmetric top.
 Rotational symmetry number  1.
 Rotational temperatures (Kelvin)     81.01163     3.53755     3.38954
 Rotational constants (GHZ):        1688.00848    73.71063    70.62657
    1 imaginary frequencies ignored.
 Zero-point vibrational energy      31979.3 (Joules/Mol)
                                    7.64323 (Kcal/Mol)
 Warning -- explicit consideration of   1 degrees of freedom as
           vibrations may cause significant error
 Vibrational temperatures:    208.04  7484.41
          (Kelvin)

 Zero-point correction=                           0.012180 (Hartree/Particle)
 Thermal correction to Energy=                    0.015666
 Thermal correction to Enthalpy=                  0.016610
 Thermal correction to Gibbs Free Energy=        -0.008788
 Sum of electronic and zero-point Energies=              0.005291
 Sum of electronic and thermal Energies=                 0.008776
 Sum of electronic and thermal Enthalpies=               0.009720
 Sum of electronic and thermal Free Energies=           -0.015678

                     E (Thermal)             CV                S
                      KCal/Mol        Cal/Mol-Kelvin    Cal/Mol-Kelvin
 Total                    9.830              7.870             53.455
 Electronic               0.000              0.000              1.377
 Translational            0.889              2.981             35.068
 Rotational               0.889              2.981             14.267
 Vibrational              8.053              1.909              2.742
 Vibration     1          0.616              1.909              2.742

 Optimization completed.
    -- Stationary point found.
 Normal termination of Gaussian 16 at Wed Oct 21 14:41:30 2020.
