 Gaussian 16, Revision A.03,

 ----------------------------------------------------------------------
 #P Opt(TS,MaxCyc=50,NoEigenTest,MaxStep=10,AddRedundant) PM6 5D 7F Int
 egral=UltraFineGrid SCF=(NoSymm,XQC,MaxCyc=120) IOp(1/33=1)
 ----------------------------------------------------------------------

 TstMul:  Mul=     2
 TstMul:  ICh=     0
 TstMul:  Mul=     2
 Symbolic Z-matrix:
 Charge =  0 Multiplicity = 2

 SCF Done:  E(UPM6) =  0.864157466141E-02 A.U. after   18 cycles
 SCF Done:  E(UPM6) =  0.861383235297E-02 A.U. after   10 cycles
 SCF Done:  E(UPM6) =  0.851213642990E-02 A.U. after   10 cycles
 SCF Done:  E(UPM6) =  0.998348907382E-02 A.U. after   14 cycles
 SCF Done:  E(UPM6) =  0.113151841263E-01 A.U. after   14 cycles
 SCF Done:  E(UPM6) =  0.126975850843E-01 A.U. after   14 cycles
 SCF Done:  E(UPM6) =  0.141182290406E-01 A.U. after   14 cycles
 SCF Done:  E(UPM6) =  0.155503036185E-01 A.U. after   14 cycles
 SCF Done:  E(UPM6) =  0.147141969086E-01 A.U. after   15 cycles
 SCF Done:  E(UPM6) =  0.136742530019E-01 A.U. after   14 cycles
 SCF Done:  E(UPM6) =  0.217776171635E-01 A.U. after   18 cycles
 SCF Done:  E(UPM6) =  0.218747666053E-01 A.U. after   19 cycles
 SCF Done:  E(UPM6) =  0.220358941719E-01 A.U. after   19 cycles
 SCF Done:  E(UPM6) =  0.221549729051E-01 A.U. after   19 cycles
 SCF Done:  E(UPM6) =  0.222062765943E-01 A.U. after   19 cycles
 SCF Done:  E(UPM6) =  0.222197901418E-01 A.U. after   20 cycles
 SCF Done:  E(UPM6) =  0.222196689091E-01 A.U. after   19 cycles
 SCF Done:  E(UPM6) =  0.222196489849E-01 A.U. after   18 cycles
 SCF Done:  E(UPM6) =  0.222196150291E-01 A.U. after   13 cycles
 Optimization completed.
    -- Stationary point found.
 Normal termination of Gaussian 16 at Wed Oct 28 16:09:00 2020.
 Gaussian 16:  ES64L-G16RevA.03 25-Dec-2016

 ----------------------------------------------------------------------
 #P Freq PM6 5D 7F Integral=UltraFineGrid SCF=(NoSymm,XQC,MaxCyc=120) I
 Op(1/33=1) Geom=Check Guess=Read
 ----------------------------------------------------------------------

 TstMul:  Mul=     2
 TstMul:  ICh=     0
 TstMul:  Mul=     2
 Structure from the checkpoint file:  "MN_84_RKT08_BH76_PM6_SE.chk"
 Charge =  0 Multiplicity = 2

                         Standard orientation:
 ---------------------------------------------------------------------
 Center     Atomic      Atomic             Coordinates (Angstroms)
 Number     Number       Type             X           Y           Z
 ---------------------------------------------------------------------
      1          6           0        1.678594    0.007630   -0.000010
      2          1           0        1.560503    0.618530    0.890015
      3          1           0        1.560193    0.619283   -0.889459
      4          1           0        2.670238   -0.440749   -0.000295
      5          1           0        0.980481   -0.845365   -0.000232
      6         17           0       -0.990764    0.000148    0.000002
 ---------------------------------------------------------------------

 SCF Done:  E(UPM6) =  0.222196150291E-01 A.U. after    2 cycles

 The electronic state is 2-A.
 Alpha  occ. eigenvalues --   -1.01525  -0.94573  -0.54934  -0.52709  -0.52069
 Alpha  occ. eigenvalues --   -0.44216  -0.42850  -0.42766
 Alpha virt. eigenvalues --    0.19335   0.20489   0.20647   0.24618   3.19166
 Alpha virt. eigenvalues --    3.20190   3.20202   3.23699   3.23701
  Beta  occ. eigenvalues --   -0.94557  -0.84296  -0.52687  -0.51957  -0.51554
  Beta  occ. eigenvalues --   -0.40464  -0.40402
  Beta virt. eigenvalues --   -0.12252   0.19477   0.20652   0.20692   0.24727
  Beta virt. eigenvalues --    3.24123   3.24129   3.24369   3.24433   3.24528

 Mulliken charges and spin densities:
               1          2
     1  C   -0.638653   0.065284
     2  H    0.176687  -0.001672
     3  H    0.176692  -0.001671
     4  H    0.179375   0.012963
     5  H    0.180023   0.003896
     6  Cl  -0.074124   0.921200
 Sum of Mulliken charges =   0.00000   1.00000

 Dipole moment (field-independent basis, Debye):
    X=              0.9974    Y=             -0.1392    Z=              0.0000  Tot=              1.0070
 N-N= 3.382151557644D+01 E-N=-3.357980927387D+01  KE=-2.500320925125D+01
  Exact polarizability:  26.655  -1.366  10.630  -0.000   0.000   8.554
 Approx polarizability:  16.203  -0.935   7.265  -0.000   0.000   6.016
 Leave Link  601 at Wed Oct 28 16:09:03 2020, MaxMem=  2684354560 cpu:               0.4 elap:               0.1
 (Enter /udrive/faculty/rpeverati/g16/g16/l701.exe)
 ... and contract with generalized density number  0.
 Compute integral second derivatives.
 Leave Link  701 at Wed Oct 28 16:09:03 2020, MaxMem=  2684354560 cpu:               1.4 elap:               0.2
 (Enter /udrive/faculty/rpeverati/g16/g16/l702.exe)
 L702 exits ... SP integral derivatives will be done elsewhere.

 ******    1 imaginary frequencies (negative Signs) ******

                      1                      2                      3
                      A                      A                      A
 Frequencies --   -294.4309               153.6512               226.6082
 Red. masses --      1.1527                 1.0383                 3.2978
 Frc consts  --      0.0589                 0.0144                 0.0998
 IR Inten    --     41.8458                 0.0193                 8.1173

                      4                      5                      6
                      A                      A                      A
 Frequencies --   1202.6186              1226.9792              1250.1814
 Red. masses --      1.1122                 1.1665                 1.1518
 Frc consts  --      0.9477                 1.0347                 1.0607
 IR Inten    --    111.2627               128.9360               128.4915

                      7                      8                      9
                      A                      A                      A
 Frequencies --   1251.3800              1259.7104              2589.7007
 Red. masses --      1.0274                 1.0927                 1.0811
 Frc consts  --      0.9479                 1.0216                 4.2719
 IR Inten    --     28.4913                72.0120                56.8909

                     10                     11                     12
                      A                      A                      A
 Frequencies --   2705.7958              2712.3695              2798.3619
 Red. masses --      1.0913                 1.0920                 1.0154
 Frc consts  --      4.7072                 4.7335                 4.6847
 IR Inten    --    138.2914               101.8579                48.9511

 - Thermochemistry -
 -------------------
 Temperature   298.150 Kelvin.  Pressure   1.00000 Atm.
 Atom     1 has atomic number  6 and mass  12.00000

 Molecular mass:    51.00015 amu.
 Principal axes and moments of inertia in atomic units:
                           1         2         3
     Eigenvalues --    11.72853 291.54185 291.87402
           X            1.00000  -0.00103   0.00000
           Y            0.00103   1.00000   0.00000
           Z           -0.00000  -0.00000   1.00000
 This molecule is an asymmetric top.
 Rotational symmetry number  1.
 Rotational temperatures (Kelvin)      7.38489     0.29709     0.29675
 Rotational constants (GHZ):         153.87620     6.19033     6.18329
    1 imaginary frequencies ignored.
 Zero-point vibrational energy     103939.7 (Joules/Mol)
                                   24.84218 (Kcal/Mol)
 Warning -- explicit consideration of   2 degrees of freedom as
           vibrations may cause significant error
 Vibrational temperatures:    221.07   326.04  1730.30  1765.35  1798.73
          (Kelvin)           1800.46  1812.44  3726.00  3893.04  3902.49
                             4026.22

 Zero-point correction=                           0.039589 (Hartree/Particle)
 Thermal correction to Energy=                    0.043651
 Thermal correction to Enthalpy=                  0.044595
 Thermal correction to Gibbs Free Energy=         0.013556
 Sum of electronic and zero-point Energies=              0.061808
 Sum of electronic and thermal Energies=                 0.065870
 Sum of electronic and thermal Enthalpies=               0.066814
 Sum of electronic and thermal Free Energies=            0.035776

                     E (Thermal)             CV                S
                      KCal/Mol        Cal/Mol-Kelvin    Cal/Mol-Kelvin
 Total                   27.391             10.572             65.326
 Electronic               0.000              0.000              1.377
 Translational            0.889              2.981             37.711
 Rotational               0.889              2.981             21.528
 Vibrational             25.614              4.610              4.710
 Vibration     1          0.619              1.899              2.627
 Vibration     2          0.650              1.800              1.906

 Optimization completed.
    -- Stationary point found.
 Normal termination of Gaussian 16 at Wed Oct 28 16:09:04 2020.
