 Gaussian 16, Revision A.03,

 ----------------------------------------------------------------------
 #P Opt(TS,MaxCyc=50,NoEigenTest,MaxStep=10,AddRedundant) PM6 5D 7F Int
 egral=UltraFineGrid SCF=(NoSymm,XQC,MaxCyc=120) IOp(1/33=1)
 ----------------------------------------------------------------------

 TstMul:  Mul=     3
 TstMul:  ICh=     0
 TstMul:  Mul=     3
 Symbolic Z-matrix:
 Charge =  0 Multiplicity = 3

 SCF Done:  E(UPM6) =  0.877657335319E-01 A.U. after   14 cycles
 SCF Done:  E(UPM6) =  0.877545505769E-01 A.U. after   10 cycles
 SCF Done:  E(UPM6) =  0.877384285557E-01 A.U. after   10 cycles
 SCF Done:  E(UPM6) =  0.874323798494E-01 A.U. after   12 cycles
 SCF Done:  E(UPM6) =  0.874000472457E-01 A.U. after   12 cycles
 Optimization completed.
    -- Stationary point found.
 Normal termination of Gaussian 16 at Wed Oct 28 16:09:42 2020.
 Gaussian 16:  ES64L-G16RevA.03 25-Dec-2016

 ----------------------------------------------------------------------
 #P Freq PM6 5D 7F Integral=UltraFineGrid SCF=(NoSymm,XQC,MaxCyc=120) I
 Op(1/33=1) Geom=Check Guess=Read
 ----------------------------------------------------------------------

 TstMul:  Mul=     3
 TstMul:  ICh=     0
 TstMul:  Mul=     3
 Structure from the checkpoint file:  "MN_87_RKT11_BH76_PM6_SE.chk"
 Charge =  0 Multiplicity = 3

                         Standard orientation:
 ---------------------------------------------------------------------
 Center     Atomic      Atomic             Coordinates (Angstroms)
 Number     Number       Type             X           Y           Z
 ---------------------------------------------------------------------
      1          6           0        0.000311   -1.159063    0.000000
      2          1           0       -1.048999   -1.393322    0.000000
      3          1           0        0.525639   -1.386396    0.909904
      4          1           0        0.525639   -1.386396   -0.909904
      5          1           0       -0.006627    0.150025   -0.000000
      6          8           0        0.000311    1.371308   -0.000000
 ---------------------------------------------------------------------

 SCF Done:  E(UPM6) =  0.874000472457E-01 A.U. after    2 cycles

 The electronic state is 3-A'.
 Alpha  occ. eigenvalues --   -1.12616  -0.93433  -0.62366  -0.56688  -0.54651
 Alpha  occ. eigenvalues --   -0.54500  -0.44467  -0.40964
 Alpha virt. eigenvalues --    0.16340   0.19636   0.19680   0.21983
  Beta  occ. eigenvalues --   -0.95361  -0.82508  -0.53875  -0.53864  -0.51187
  Beta  occ. eigenvalues --   -0.34959
  Beta virt. eigenvalues --   -0.04150  -0.03034   0.19426   0.20156   0.20199
  Beta virt. eigenvalues --    0.22720

 Mulliken charges and spin densities:
               1          2
     1  C   -0.499335   0.649066
     2  H    0.166744  -0.019741
     3  H    0.167383  -0.019863
     4  H    0.167383  -0.019863
     5  H    0.228949  -0.154526
     6  O   -0.231124   1.564927
 Sum of Mulliken charges =   0.00000   2.00000

 Dipole moment (field-independent basis, Debye):
    X=             -0.0065    Y=             -1.9569    Z=              0.0000  Tot=              1.9570
 N-N= 3.444862095328D+01 E-N=-3.194133546104D+01  KE=-2.786670285370D+01
  Exact polarizability:   6.518   0.029  31.889  -0.000  -0.000   6.278
 Approx polarizability:   4.022   0.020  17.952   0.000   0.000   3.883
 Leave Link  601 at Wed Oct 28 16:09:44 2020, MaxMem=  2684354560 cpu:               0.4 elap:               0.1
 (Enter /udrive/faculty/rpeverati/g16/g16/l701.exe)
 ... and contract with generalized density number  0.
 Compute integral second derivatives.
 Leave Link  701 at Wed Oct 28 16:09:45 2020, MaxMem=  2684354560 cpu:               1.0 elap:               0.1
 (Enter /udrive/faculty/rpeverati/g16/g16/l702.exe)
 L702 exits ... SP integral derivatives will be done elsewhere.

 ******    2 imaginary frequencies (negative Signs) ******

                      1                      2                      3
                     A'                     A"                     A'
 Frequencies --  -1929.5262              -212.3079                48.9733
 Red. masses --      1.0845                 1.0442                 1.0462
 Frc consts  --      2.3788                 0.0277                 0.0015
 IR Inten    --    965.3772                19.3486                19.2817

                      4                      5                      6
                     A'                     A"                     A'
 Frequencies --    565.8411               833.4779               863.0796
 Red. masses --      5.4548                 1.0668                 1.0630
 Frc consts  --      1.0290                 0.4366                 0.4665
 IR Inten    --      1.9033                49.0960                53.0084

                      7                      8                      9
                     A'                     A"                     A'
 Frequencies --   1240.5429              1242.7460              1246.3104
 Red. masses --      1.1831                 1.1042                 1.1075
 Frc consts  --      1.0728                 1.0048                 1.0135
 IR Inten    --    118.9226                70.6104                71.6694

                     10                     11                     12
                     A'                     A"                     A'
 Frequencies --   2722.1489              2722.3885              2776.6320
 Red. masses --      1.1024                 1.1032                 1.0152
 Frc consts  --      4.8129                 4.8172                 4.6113
 IR Inten    --     96.7919                99.0428                60.8382

 - Thermochemistry -
 -------------------
 Temperature   298.150 Kelvin.  Pressure   1.00000 Atm.
 Atom     1 has atomic number  6 and mass  12.00000

 Molecular mass:    32.02621 amu.
 Principal axes and moments of inertia in atomic units:
                           1         2         3
     Eigenvalues --    11.90872 190.06911 190.07924
           X            0.00010   0.00000   1.00000
           Y            1.00000   0.00000  -0.00010
           Z            0.00000   1.00000   0.00000
 This molecule is an asymmetric top.
 Rotational symmetry number  1.
 Rotational temperatures (Kelvin)      7.27315     0.45570     0.45567
 Rotational constants (GHZ):         151.54785     9.49518     9.49468
    2 imaginary frequencies ignored.
 Zero-point vibrational energy      85306.5 (Joules/Mol)
                                   20.38875 (Kcal/Mol)
 Warning -- explicit consideration of   2 degrees of freedom as
           vibrations may cause significant error
 Vibrational temperatures:     70.46   814.12  1199.19  1241.78  1784.86
          (Kelvin)           1788.03  1793.16  3916.57  3916.91  3994.95

 Zero-point correction=                           0.032492 (Hartree/Particle)
 Thermal correction to Energy=                    0.036515
 Thermal correction to Enthalpy=                  0.037459
 Thermal correction to Gibbs Free Energy=         0.006567
 Sum of electronic and zero-point Energies=              0.119892
 Sum of electronic and thermal Energies=                 0.123915
 Sum of electronic and thermal Enthalpies=               0.124859
 Sum of electronic and thermal Free Energies=            0.093967

                     E (Thermal)             CV                S
                      KCal/Mol        Cal/Mol-Kelvin    Cal/Mol-Kelvin
 Total                   22.913             10.731             65.017
 Electronic               0.000              0.000              2.183
 Translational            0.889              2.981             36.324
 Rotational               0.889              2.981             20.692
 Vibrational             21.136              4.769              5.818
 Vibration     1          0.595              1.978              4.858
 Vibration     2          0.922              1.105              0.512

                           ! Non-Optimized Parameters !
 Normal termination of Gaussian 16 at Wed Oct 28 16:09:45 2020.
