 Gaussian 16, Revision A.03,

 ----------------------------------------------------------------------
 #P Opt(TS,MaxCyc=50,NoEigenTest,MaxStep=10,AddRedundant) PM6 5D 7F Int
 egral=UltraFineGrid SCF=(NoSymm,XQC,MaxCyc=120) IOp(1/33=1)
 ----------------------------------------------------------------------

 TstMul:  Mul=     2
 TstMul:  ICh=     0
 TstMul:  Mul=     2
 Symbolic Z-matrix:
 Charge =  0 Multiplicity = 2

 SCF Done:  E(UPM6) =  0.231744776596E-01 A.U. after    7 cycles
 SCF Done:  E(UPM6) =  0.207545609637E-01 A.U. after    6 cycles
 SCF Done:  E(UPM6) =  0.197851936168E-01 A.U. after    6 cycles
 SCF Done:  E(UPM6) =  0.197766766115E-01 A.U. after    5 cycles
 Optimization completed.
    -- Stationary point found.
 Normal termination of Gaussian 16 at Wed Oct 21 14:31:43 2020.
 Gaussian 16:  ES64L-G16RevA.03 25-Dec-2016

 ----------------------------------------------------------------------
 #P Freq PM6 5D 7F Integral=UltraFineGrid SCF=(NoSymm,XQC,MaxCyc=120) I
 Op(1/33=1) Geom=Check Guess=Read
 ----------------------------------------------------------------------

 TstMul:  Mul=     2
 TstMul:  ICh=     0
 TstMul:  Mul=     2
 Structure from the checkpoint file:  "MN_82_RKT06_BH76_PM6_SE.chk"
 Charge =  0 Multiplicity = 2

                         Standard orientation:
 ---------------------------------------------------------------------
 Center     Atomic      Atomic             Coordinates (Angstroms)
 Number     Number       Type             X           Y           Z
 ---------------------------------------------------------------------
      1          1           0        0.000000    0.000000    0.000000
      2          1           0        0.000000    0.000000    0.872493
      3          1           0        0.000000    0.000000   -0.872493
 ---------------------------------------------------------------------

 SCF Done:  E(UPM6) =  0.197766766115E-01 A.U. after    2 cycles

 The electronic state is 2-SGU.
 Alpha  occ. eigenvalues --   -0.65618  -0.31136
 Alpha virt. eigenvalues --    0.24630
  Beta  occ. eigenvalues --   -0.59246
  Beta virt. eigenvalues --    0.10635   0.29584

 Mulliken charges and spin densities:
               1          2
     1  H    0.090060  -0.153650
     2  H   -0.045030   0.576825
     3  H   -0.045030   0.576825
 Sum of Mulliken charges =   0.00000   1.00000

 Dipole moment (field-independent basis, Debye):
    X=             -0.0000    Y=              0.0000    Z=              0.0000  Tot=              0.0000
 N-N= 2.718277863629D+00 E-N=-2.112447924993D+00  KE=-1.724553989022D+00
  Exact polarizability:   0.000   0.000   0.000  -0.000   0.000  12.057
 Approx polarizability:   0.000  -0.000  -0.000  -0.000  -0.000   7.329
 Leave Link  601 at Wed Oct 21 14:32:05 2020, MaxMem=  2684354560 cpu:               3.0 elap:               1.0
 (Enter /udrive/faculty/rpeverati/g16/g16/l701.exe)
 ... and contract with generalized density number  0.
 Compute integral second derivatives.
 Leave Link  701 at Wed Oct 21 14:32:06 2020, MaxMem=  2684354560 cpu:               3.9 elap:               1.0
 (Enter /udrive/faculty/rpeverati/g16/g16/l702.exe)
 L702 exits ... SP integral derivatives will be done elsewhere.

 ******    2 imaginary frequencies (negative Signs) ******

                      1                      2                      3
                     PIU                    PIU                    SGU
 Frequencies --   -439.0794              -439.0794              1893.5500
 Red. masses --      1.0078                 1.0078                 1.0078
 Frc consts  --      0.1145                 0.1145                 2.1291
 IR Inten    --     11.7684                11.7684               603.6575

                      4
                     SGG
 Frequencies --   2929.4652
 Red. masses --      1.0078
 Frc consts  --      5.0958
 IR Inten    --      0.0000

 - Thermochemistry -
 -------------------
 Temperature   298.150 Kelvin.  Pressure   1.00000 Atm.
 Atom     1 has atomic number  1 and mass   1.00783

 Molecular mass:     3.02348 amu.
 Principal axes and moments of inertia in atomic units:
                           1         2         3
     Eigenvalues --     0.00000   5.47944   5.47944
           X           -0.00000   1.00000   0.00000
           Y            0.00000   0.00000   1.00000
           Z            1.00000   0.00000   0.00000
 This molecule is a prolate symmetric top.
 Rotational symmetry number  2.
 Rotational temperature (Kelvin)     15.80707
 Rotational constant (GHZ):         329.365803
    2 imaginary frequencies ignored.
 Zero-point vibrational energy      28848.0 (Joules/Mol)
                                    6.89485 (Kcal/Mol)
 Vibrational temperatures:   2724.40  4214.85
          (Kelvin)

 Zero-point correction=                           0.010988 (Hartree/Particle)
 Thermal correction to Energy=                    0.013349
 Thermal correction to Enthalpy=                  0.014293
 Thermal correction to Gibbs Free Energy=        -0.003341
 Sum of electronic and zero-point Energies=              0.030764
 Sum of electronic and thermal Energies=                 0.033126
 Sum of electronic and thermal Enthalpies=               0.034070
 Sum of electronic and thermal Free Energies=            0.016435

                     E (Thermal)             CV                S
                      KCal/Mol        Cal/Mol-Kelvin    Cal/Mol-Kelvin
 Total                    8.377              4.986             37.115
 Electronic               0.000              0.000              1.377
 Translational            0.889              2.981             29.289
 Rotational               0.592              1.987              6.446
 Vibrational              6.895              0.018              0.002

 Optimization completed.
    -- Stationary point found.
 Normal termination of Gaussian 16 at Wed Oct 21 14:32:13 2020.
