 Gaussian 16, Revision A.03,

 ----------------------------------------------------------------------
 #P Opt(TS,MaxCyc=50,NoEigenTest,MaxStep=10,AddRedundant) PM6 5D 7F Int
 egral=UltraFineGrid SCF=(NoSymm,XQC,MaxCyc=120) IOp(1/33=1)
 ----------------------------------------------------------------------

 TstMul:  Mul=     3
 TstMul:  ICh=     0
 TstMul:  Mul=     3
 Symbolic Z-matrix:
 Charge =  0 Multiplicity = 3

 SCF Done:  E(UPM6) =  0.692898245838E-01 A.U. after   12 cycles
 SCF Done:  E(UPM6) =  0.691731281562E-01 A.U. after    9 cycles
 SCF Done:  E(UPM6) =  0.692772698782E-01 A.U. after    8 cycles
 SCF Done:  E(UPM6) =  0.710266376661E-01 A.U. after    9 cycles
 SCF Done:  E(UPM6) =  0.742886971871E-01 A.U. after   11 cycles
 SCF Done:  E(UPM6) =  0.775377089390E-01 A.U. after   12 cycles
 SCF Done:  E(UPM6) =  0.805619385127E-01 A.U. after   11 cycles
 SCF Done:  E(UPM6) =  0.831711186567E-01 A.U. after   10 cycles
 SCF Done:  E(UPM6) =  0.835183866071E-01 A.U. after   10 cycles
 SCF Done:  E(UPM6) =  0.854904997740E-01 A.U. after   10 cycles
 SCF Done:  E(UPM6) =  0.104033783047     A.U. after    8 cycles
 SCF Done:  E(UPM6) =  0.104060238848     A.U. after    8 cycles
 SCF Done:  E(UPM6) =  0.104083454832     A.U. after    8 cycles
 SCF Done:  E(UPM6) =  0.104104078341     A.U. after    8 cycles
 SCF Done:  E(UPM6) =  0.104122613697     A.U. after    8 cycles
 SCF Done:  E(UPM6) =  0.104139445911     A.U. after    8 cycles
 SCF Done:  E(UPM6) =  0.104154862805     A.U. after    8 cycles
 SCF Done:  E(UPM6) =  0.104169075060     A.U. after    8 cycles
 SCF Done:  E(UPM6) =  0.104182233882     A.U. after    8 cycles
 Optimization completed.
    -- Stationary point found.
 Normal termination of Gaussian 16 at Wed Oct 28 16:12:38 2020.
 Gaussian 16:  ES64L-G16RevA.03 25-Dec-2016

 ----------------------------------------------------------------------
 #P Freq PM6 5D 7F Integral=UltraFineGrid SCF=(NoSymm,XQC,MaxCyc=120) I
 Op(1/33=1) Geom=Check Guess=Read
 ----------------------------------------------------------------------

 TstMul:  Mul=     3
 TstMul:  ICh=     0
 TstMul:  Mul=     3
 Structure from the checkpoint file:  "MN_89_RKT14_BH76_PM6_SE.chk"
 Charge =  0 Multiplicity = 3

                         Standard orientation:
 ---------------------------------------------------------------------
 Center     Atomic      Atomic             Coordinates (Angstroms)
 Number     Number       Type             X           Y           Z
 ---------------------------------------------------------------------
      1          1           0        0.000000    0.000000   -0.512234
      2          8           0        0.000000    0.000000    0.467473
      3          1           0        0.000000    0.000000   -3.227550
 ---------------------------------------------------------------------

 SCF Done:  E(UPM6) =  0.104182233882     A.U. after    2 cycles

 Unable to determine electronic state:  partially filled degenerate orbitals.
 Alpha  occ. eigenvalues --   -1.14544  -0.62235  -0.57288  -0.45214  -0.42766
 Alpha virt. eigenvalues --    0.15686
  Beta  occ. eigenvalues --   -0.98086  -0.55794  -0.38520
  Beta virt. eigenvalues --   -0.06585   0.10256   0.18418

 Mulliken charges and spin densities:
               1          2
     1  H    0.261415  -0.079306
     2  O   -0.261592   1.079763
     3  H    0.000177   0.999543
 Sum of Mulliken charges =   0.00000   2.00000

 Dipole moment (field-independent basis, Debye):
    X=              0.0000    Y=              0.0000    Z=             -1.5070  Tot=              1.5070
 N-N= 1.500459681497D+01 E-N=-5.713379552663D+00  KE=-1.894297826587D+01
  Exact polarizability:   0.151  -0.154   0.222   0.000   0.000   4.922
 Approx polarizability:   0.065  -0.063   0.094  -0.000   0.000   3.295
 Leave Link  601 at Wed Oct 28 16:12:42 2020, MaxMem=  2684354560 cpu:               0.9 elap:               0.1
 (Enter /udrive/faculty/rpeverati/g16/g16/l701.exe)
 ... and contract with generalized density number  0.
 Compute integral second derivatives.
 Leave Link  701 at Wed Oct 28 16:12:43 2020, MaxMem=  2684354560 cpu:               1.7 elap:               0.2
 (Enter /udrive/faculty/rpeverati/g16/g16/l702.exe)
 L702 exits ... SP integral derivatives will be done elsewhere.

 ******    1 imaginary frequencies (negative Signs) ******

                      1                      2                      3
                     SG                     PI                     PI
 Frequencies --    -72.4432                42.0413                42.9408
 Red. masses --      1.0599                 1.0378                 1.0378
 Frc consts  --      0.0033                 0.0011                 0.0011
 IR Inten    --      0.0046                97.9148                97.9121

                      4
                     SG
 Frequencies --   2637.4717
 Red. masses --      1.0673
 Frc consts  --      4.3742
 IR Inten    --     76.2420

 - Thermochemistry -
 -------------------
 Temperature   298.150 Kelvin.  Pressure   1.00000 Atm.
 Atom     1 has atomic number  1 and mass   1.00783

 Molecular mass:    18.01056 amu.
 Principal axes and moments of inertia in atomic units:
                           1         2         3
     Eigenvalues --     0.00000  48.19137  48.19137
           X            0.00000   0.00000   1.00000
           Y            0.00000   1.00000   0.00000
           Z            1.00000   0.00000   0.00000
 This molecule is a prolate symmetric top.
 Rotational symmetry number  1.
 Rotational temperature (Kelvin)      1.79729
 Rotational constant (GHZ):          37.449471
    1 imaginary frequencies ignored.
 Zero-point vibrational energy      16283.9 (Joules/Mol)
                                    3.89194 (Kcal/Mol)
 Warning -- explicit consideration of   2 degrees of freedom as
           vibrations may cause significant error
 Vibrational temperatures:     60.49    61.78  3794.73
          (Kelvin)

 Zero-point correction=                           0.006202 (Hartree/Particle)
 Thermal correction to Energy=                    0.010264
 Thermal correction to Enthalpy=                  0.011208
 Thermal correction to Gibbs Free Energy=        -0.016927
 Sum of electronic and zero-point Energies=              0.110384
 Sum of electronic and thermal Energies=                 0.114446
 Sum of electronic and thermal Enthalpies=               0.115391
 Sum of electronic and thermal Free Energies=            0.087256

                     E (Thermal)             CV                S
                      KCal/Mol        Cal/Mol-Kelvin    Cal/Mol-Kelvin
 Total                    6.441              8.929             59.215
 Electronic               0.000              0.000              2.183
 Translational            0.889              2.981             34.608
 Rotational               0.592              1.987             12.144
 Vibrational              4.960              3.961             10.279
 Vibration     1          0.595              1.980              5.160
 Vibration     2          0.595              1.980              5.119

                           ! Non-Optimized Parameters !
 Normal termination of Gaussian 16 at Wed Oct 28 16:12:44 2020.
