 Gaussian 16, Revision A.03,

 ----------------------------------------------------------------------
 #P Opt(TS,MaxCyc=50,NoEigenTest,MaxStep=10,AddRedundant) PM6 5D 7F Int
 egral=UltraFineGrid SCF=(NoSymm,XQC,MaxCyc=120) IOp(1/33=1)
 ----------------------------------------------------------------------

 TstMul:  Mul=     2
 TstMul:  ICh=     0
 TstMul:  Mul=     2
 Symbolic Z-matrix:
 Charge =  0 Multiplicity = 2

 SCF Done:  E(UPM6) =  0.681223544549E-01 A.U. after   16 cycles
 SCF Done:  E(UPM6) =  0.680740085146E-01 A.U. after   11 cycles
 SCF Done:  E(UPM6) =  0.681219430954E-01 A.U. after   11 cycles
 SCF Done:  E(UPM6) =  0.676446329944E-01 A.U. after   14 cycles
 SCF Done:  E(UPM6) =  0.670629414122E-01 A.U. after   14 cycles
 SCF Done:  E(UPM6) =  0.665895353655E-01 A.U. after   14 cycles
 SCF Done:  E(UPM6) =  0.663304163928E-01 A.U. after   14 cycles
 SCF Done:  E(UPM6) =  0.662664923842E-01 A.U. after   14 cycles
 SCF Done:  E(UPM6) =  0.662671603858E-01 A.U. after   14 cycles
 SCF Done:  E(UPM6) =  0.662643497693E-01 A.U. after   13 cycles
 Optimization completed.
    -- Stationary point found.
 Normal termination of Gaussian 16 at Wed Oct 28 16:12:45 2020.
 Gaussian 16:  ES64L-G16RevA.03 25-Dec-2016

 ----------------------------------------------------------------------
 #P Freq PM6 5D 7F Integral=UltraFineGrid SCF=(NoSymm,XQC,MaxCyc=120) I
 Op(1/33=1) Geom=Check Guess=Read
 ----------------------------------------------------------------------

 TstMul:  Mul=     2
 TstMul:  ICh=     0
 TstMul:  Mul=     2
 Structure from the checkpoint file:  "MN_94_RKT20_BH76_PM6_SE.chk"
 Charge =  0 Multiplicity = 2

                         Standard orientation:
 ---------------------------------------------------------------------
 Center     Atomic      Atomic             Coordinates (Angstroms)
 Number     Number       Type             X           Y           Z
 ---------------------------------------------------------------------
      1          6           0       -1.600038   -0.359750    0.000910
      2          6           0       -0.451558    0.607580   -0.001685
      3          7           0        1.941431   -0.324801    0.002457
      4          1           0       -1.584284   -1.015898   -0.879606
      5          1           0       -1.586132   -1.008881    0.886648
      6          1           0       -2.563199    0.169462   -0.002193
      7          1           0       -0.360359    1.203559   -0.904069
      8          1           0       -0.363566    1.212295    0.895276
      9          1           0        0.617822   -0.114421    0.004865
     10          1           0        2.276331    0.157507   -0.814693
     11          1           0        2.282951    0.183013    0.801227
 ---------------------------------------------------------------------

 SCF Done:  E(UPM6) =  0.662643497693E-01 A.U. after    2 cycles

 The electronic state is 2-A.
 Alpha  occ. eigenvalues --   -1.11037  -0.98507  -0.79314  -0.60600  -0.57850
 Alpha  occ. eigenvalues --   -0.56277  -0.50348  -0.48392  -0.44775  -0.41987
 Alpha  occ. eigenvalues --   -0.35107
 Alpha virt. eigenvalues --    0.15970   0.16727   0.20506   0.20969   0.22047
 Alpha virt. eigenvalues --    0.22571   0.23817   0.23964   0.25037
  Beta  occ. eigenvalues --   -1.06769  -0.97637  -0.78593  -0.59168  -0.55904
  Beta  occ. eigenvalues --   -0.55143  -0.49142  -0.46697  -0.44561  -0.36044
  Beta virt. eigenvalues --   -0.01456   0.16894   0.18440   0.20671   0.21275
  Beta virt. eigenvalues --    0.22716   0.22822   0.24701   0.24798   0.25104

 Mulliken charges and spin densities:
               1          2
     1  C   -0.428122  -0.019291
     2  C   -0.392582   0.479538
     3  N   -0.516176   0.734645
     4  H    0.150011   0.002526
     5  H    0.150105   0.002540
     6  H    0.147621   0.015321
     7  H    0.137232  -0.014952
     8  H    0.137401  -0.014945
     9  H    0.234118  -0.116966
    10  H    0.190215  -0.034208
    11  H    0.190177  -0.034207
 Sum of Mulliken charges =  -0.00000   1.00000

 Dipole moment (field-independent basis, Debye):
    X=             -0.1594    Y=              1.9752    Z=             -0.0318  Tot=              1.9819
 N-N= 6.267700236037D+01 E-N=-8.089018498789D+01  KE=-3.119275921231D+01
  Exact polarizability:  61.587 -12.077  19.449   0.059   0.035  18.829
 Approx polarizability:  27.469  -5.002  11.868   0.025   0.029  12.495
 Leave Link  601 at Wed Oct 28 16:12:48 2020, MaxMem=  2684354560 cpu:               0.5 elap:               0.1
 (Enter /udrive/faculty/rpeverati/g16/g16/l701.exe)
 ... and contract with generalized density number  0.
 Compute integral second derivatives.
 Leave Link  701 at Wed Oct 28 16:12:48 2020, MaxMem=  2684354560 cpu:               1.2 elap:               0.2
 (Enter /udrive/faculty/rpeverati/g16/g16/l702.exe)
 L702 exits ... SP integral derivatives will be done elsewhere.

 ******    2 imaginary frequencies (negative Signs) ******

                      1                      2                      3
                      A                      A                      A
 Frequencies --  -2186.4867               -61.5556               115.7605
 Red. masses --      1.0797                 1.0961                 1.0814
 Frc consts  --      3.0412                 0.0024                 0.0085
 IR Inten    --   3546.8582                63.9073                 4.3713

                      4                      5                      6
                      A                      A                      A
 Frequencies --    149.7686               297.4646               403.3024
 Red. masses --      2.1439                 1.0178                 2.7604
 Frc consts  --      0.0283                 0.0531                 0.2645
 IR Inten    --     11.0283                14.4063                 4.8081

                      7                      8                      9
                      A                      A                      A
 Frequencies --    743.0818               819.5430               893.6673
 Red. masses --      1.1503                 1.4494                 1.0402
 Frc consts  --      0.3742                 0.5736                 0.4895
 IR Inten    --     11.6760               156.5643                38.3302

                     10                     11                     12
                      A                      A                      A
 Frequencies --    955.9924              1123.0376              1150.5828
 Red. masses --      1.1366                 1.4408                 1.4789
 Frc consts  --      0.6120                 1.0706                 1.1535
 IR Inten    --    195.0918                 0.1359                13.1046

                     13                     14                     15
                      A                      A                      A
 Frequencies --   1172.4335              1201.3468              1240.8400
 Red. masses --      1.0342                 2.4411                 1.1332
 Frc consts  --      0.8376                 2.0757                 1.0280
 IR Inten    --     50.0213                 2.5118                 8.7617

                     16                     17                     18
                      A                      A                      A
 Frequencies --   1250.7177              1263.0835              1316.4915
 Red. masses --      1.0525                 1.0657                 1.1776
 Frc consts  --      0.9700                 1.0018                 1.2025
 IR Inten    --     34.9229                67.0762                54.2108

                     19                     20                     21
                      A                      A                      A
 Frequencies --   1334.8281              1541.2263              2687.7125
 Red. masses --      1.2452                 1.0907                 1.0826
 Frc consts  --      1.3072                 1.5265                 4.6075
 IR Inten    --     67.7830                14.7392                13.4102

                     22                     23                     24
                      A                      A                      A
 Frequencies --   2689.7259              2716.2926              2757.1369
 Red. masses --      1.0855                 1.0996                 1.0403
 Frc consts  --      4.6268                 4.7803                 4.6594
 IR Inten    --     42.0410                83.3218                58.0100

                     25                     26                     27
                      A                      A                      A
 Frequencies --   2786.2358              2807.6532              2848.2186
 Red. masses --      1.0338                 1.0920                 1.0422
 Frc consts  --      4.7284                 5.0720                 4.9812
 IR Inten    --     26.9295                42.7558                40.4198

 - Thermochemistry -
 -------------------
 Temperature   298.150 Kelvin.  Pressure   1.00000 Atm.
 Atom     1 has atomic number  6 and mass  12.00000

 Molecular mass:    46.06567 amu.
 Principal axes and moments of inertia in atomic units:
                           1         2         3
     Eigenvalues --    60.72940 404.64060 433.09030
           X            0.99964   0.02666  -0.00024
           Y           -0.02666   0.99964   0.00159
           Z            0.00028  -0.00158   1.00000
 This molecule is an asymmetric top.
 Rotational symmetry number  1.
 Rotational temperatures (Kelvin)      1.42623     0.21405     0.19999
 Rotational constants (GHZ):          29.71775     4.46011     4.16712
    2 imaginary frequencies ignored.
 Zero-point vibrational energy     216919.7 (Joules/Mol)
                                   51.84506 (Kcal/Mol)
 Warning -- explicit consideration of   4 degrees of freedom as
           vibrations may cause significant error
 Vibrational temperatures:    166.55   215.48   427.99   580.26  1069.13
          (Kelvin)           1179.14  1285.79  1375.46  1615.80  1655.43
                             1686.87  1728.47  1785.29  1799.50  1817.30
                             1894.14  1920.52  2217.48  3867.02  3869.92
                             3908.14  3966.91  4008.77  4039.59  4097.95

 Zero-point correction=                           0.082620 (Hartree/Particle)
 Thermal correction to Energy=                    0.087943
 Thermal correction to Enthalpy=                  0.088887
 Thermal correction to Gibbs Free Energy=         0.054701
 Sum of electronic and zero-point Energies=              0.148885
 Sum of electronic and thermal Energies=                 0.154208
 Sum of electronic and thermal Enthalpies=               0.155152
 Sum of electronic and thermal Free Energies=            0.120965

                     E (Thermal)             CV                S
                      KCal/Mol        Cal/Mol-Kelvin    Cal/Mol-Kelvin
 Total                   55.185             17.037             71.952
 Electronic               0.000              0.000              1.377
 Translational            0.889              2.981             37.408
 Rotational               0.889              2.981             23.880
 Vibrational             53.408             11.075              9.287
 Vibration     1          0.608              1.936              3.170
 Vibration     2          0.618              1.903              2.675
 Vibration     3          0.691              1.678              1.431
 Vibration     4          0.769              1.463              0.951

                           ! Non-Optimized Parameters !
 Normal termination of Gaussian 16 at Wed Oct 28 16:12:49 2020.
