 Gaussian 16, Revision A.03,

 ----------------------------------------------------------------------
 #P Opt(TS,MaxCyc=50,NoEigenTest,MaxStep=10,AddRedundant) PM6 5D 7F Int
 egral=UltraFineGrid SCF=(NoSymm,XQC,MaxCyc=120) IOp(1/33=1)
 ----------------------------------------------------------------------

 TstMul:  Mul=     2
 TstMul:  ICh=     0
 TstMul:  Mul=     2
 Symbolic Z-matrix:
 Charge =  0 Multiplicity = 2

 SCF Done:  E(UPM6) =  0.561890458335E-01 A.U. after   24 cycles
 SCF Done:  E(UPM6) =  0.533401810517E-01 A.U. after   18 cycles
 SCF Done:  E(UPM6) =  0.565129646642E-01 A.U. after   18 cycles
 SCF Done:  E(UPM6) =  0.595222661571E-01 A.U. after   18 cycles
 SCF Done:  E(UPM6) =  0.623489842284E-01 A.U. after   18 cycles
 SCF Done:  E(UPM6) =  0.648799662568E-01 A.U. after   17 cycles
 SCF Done:  E(UPM6) =  0.671233662344E-01 A.U. after   17 cycles
 SCF Done:  E(UPM6) =  0.690950739646E-01 A.U. after   17 cycles
 SCF Done:  E(UPM6) =  0.708240032151E-01 A.U. after   15 cycles
 SCF Done:  E(UPM6) =  0.723335285480E-01 A.U. after   15 cycles
 SCF Done:  E(UPM6) =  0.802330505006E-01 A.U. after   12 cycles
 SCF Done:  E(UPM6) =  0.802475561983E-01 A.U. after   12 cycles
 SCF Done:  E(UPM6) =  0.802605117919E-01 A.U. after   12 cycles
 SCF Done:  E(UPM6) =  0.802719918380E-01 A.U. after   12 cycles
 SCF Done:  E(UPM6) =  0.802820790256E-01 A.U. after   13 cycles
 SCF Done:  E(UPM6) =  0.802908676083E-01 A.U. after   12 cycles
 SCF Done:  E(UPM6) =  0.802984623511E-01 A.U. after   12 cycles
 SCF Done:  E(UPM6) =  0.803049751191E-01 A.U. after   13 cycles
 SCF Done:  E(UPM6) =  0.803105206142E-01 A.U. after   13 cycles
 Optimization completed.
    -- Stationary point found.
 Normal termination of Gaussian 16 at Wed Oct 21 14:53:41 2020.
 Gaussian 16:  ES64L-G16RevA.03 25-Dec-2016

 ----------------------------------------------------------------------
 #P Freq PM6 5D 7F Integral=UltraFineGrid SCF=(NoSymm,XQC,MaxCyc=120) I
 Op(1/33=1) Geom=Check Guess=Read
 ----------------------------------------------------------------------

 TstMul:  Mul=     2
 TstMul:  ICh=     0
 TstMul:  Mul=     2
 Structure from the checkpoint file:  "MN_90_RKT16_BH76_PM6_SE.chk"
 Charge =  0 Multiplicity = 2

                         Standard orientation:
 ---------------------------------------------------------------------
 Center     Atomic      Atomic             Coordinates (Angstroms)
 Number     Number       Type             X           Y           Z
 ---------------------------------------------------------------------
      1          1           0        1.308177   -0.010940    0.000000
      2         16           0        0.000000    0.321366    0.000000
      3          1           0       -0.448134   -0.951777    0.000000
      4          1           0       -0.860042   -4.179140    0.000000
 ---------------------------------------------------------------------

 SCF Done:  E(UPM6) =  0.803105206142E-01 A.U. after    2 cycles

 The electronic state is 2-A'.
 Alpha  occ. eigenvalues --   -1.10966  -0.53725  -0.43048  -0.42133  -0.34697
 Alpha virt. eigenvalues --    0.01675   0.04248   0.07424   0.07826   0.07900
 Alpha virt. eigenvalues --    0.10978   0.13962
  Beta  occ. eigenvalues --   -1.10964  -0.53723  -0.43016  -0.34697
  Beta virt. eigenvalues --    0.01675   0.04246   0.07424   0.07826   0.07900
  Beta virt. eigenvalues --    0.10792   0.11109   0.13970

 Mulliken charges and spin densities:
               1          2
     1  H    0.185082  -0.000004
     2  S   -0.370172   0.000164
     3  H    0.185079  -0.000090
     4  H    0.000012   0.999930
 Sum of Mulliken charges =   0.00000   1.00000

 Dipole moment (field-independent basis, Debye):
    X=              1.0622    Y=             -2.6914    Z=              0.0000  Tot=              2.8935
 N-N= 1.277772296010D+01 E-N=-8.543091116869D+00  KE=-1.158204690945D+01
  Exact polarizability:  31.294  -0.928  35.371  -0.000   0.000  19.723
 Approx polarizability:  17.274   1.179  16.776  -0.000   0.000   5.887
 Leave Link  601 at Wed Oct 21 14:54:10 2020, MaxMem=  2684354560 cpu:               5.7 elap:               1.5
 (Enter /udrive/faculty/rpeverati/g16/g16/l701.exe)
 ... and contract with generalized density number  0.
 Compute integral second derivatives.
 Leave Link  701 at Wed Oct 21 14:54:11 2020, MaxMem=  2684354560 cpu:               4.8 elap:               1.2
 (Enter /udrive/faculty/rpeverati/g16/g16/l702.exe)
 L702 exits ... SP integral derivatives will be done elsewhere.

 ******    1 imaginary frequencies (negative Signs) ******

                      1                      2                      3
                     A'                     A"                     A'
 Frequencies --    -48.8161                 9.3972                12.3188
 Red. masses --      1.0399                 1.0281                 1.0145
 Frc consts  --      0.0015                 0.0001                 0.0001
 IR Inten    --      1.5915                24.6614                53.8141

                      4                      5                      6
                     A'                     A'                     A'
 Frequencies --   1055.1864              2689.0131              2698.0135
 Red. masses --      1.0402                 1.0413                 1.0351
 Frc consts  --      0.6824                 4.4363                 4.4393
 IR Inten    --     15.7179                74.9502                41.2789

 - Thermochemistry -
 -------------------
 Temperature   298.150 Kelvin.  Pressure   1.00000 Atm.
 Atom     1 has atomic number  1 and mass   1.00783

 Molecular mass:    34.99555 amu.
 Principal axes and moments of inertia in atomic units:
                           1         2         3
     Eigenvalues --     6.51944  78.28762  84.80707
           X            0.20529   0.97870   0.00000
           Y            0.97870  -0.20529   0.00000
           Z            0.00000   0.00000   1.00000
 This molecule is an asymmetric top.
 Rotational symmetry number  1.
 Rotational temperatures (Kelvin)     13.28548     1.10636     1.02131
 Rotational constants (GHZ):         276.82440    23.05270    21.28055
    1 imaginary frequencies ignored.
 Zero-point vibrational energy      38662.9 (Joules/Mol)
                                    9.24065 (Kcal/Mol)
 Warning -- explicit consideration of   2 degrees of freedom as
           vibrations may cause significant error
 Vibrational temperatures:     13.52    17.72  1518.18  3868.89  3881.84
          (Kelvin)

 Zero-point correction=                           0.014726 (Hartree/Particle)
 Thermal correction to Energy=                    0.019428
 Thermal correction to Enthalpy=                  0.020372
 Thermal correction to Gibbs Free Energy=        -0.013924
 Sum of electronic and zero-point Energies=              0.095036
 Sum of electronic and thermal Energies=                 0.099738
 Sum of electronic and thermal Enthalpies=               0.100682
 Sum of electronic and thermal Free Energies=            0.066386

                     E (Thermal)             CV                S
                      KCal/Mol        Cal/Mol-Kelvin    Cal/Mol-Kelvin
 Total                   12.191             10.257             72.182
 Electronic               0.000              0.000              1.377
 Translational            0.889              2.981             36.588
 Rotational               0.889              2.981             18.410
 Vibrational             10.414              4.296             15.806
 Vibration     1          0.593              1.987              8.135
 Vibration     2          0.593              1.987              7.597

                           ! Non-Optimized Parameters !
 Normal termination of Gaussian 16 at Wed Oct 21 14:54:23 2020.
