 Gaussian 16, Revision A.03,

 ----------------------------------------------------------------------
 #P Opt(TS,MaxCyc=50,NoEigenTest,MaxStep=10,AddRedundant) PM6 5D 7F Int
 egral=UltraFineGrid SCF=(NoSymm,XQC,MaxCyc=120) IOp(1/33=1)
 ----------------------------------------------------------------------

 TstMul:  Mul=     2
 TstMul:  ICh=     0
 TstMul:  Mul=     2
 Symbolic Z-matrix:
 Charge =  0 Multiplicity = 2

 SCF Done:  E(UPM6) =  0.778468286940E-01 A.U. after   16 cycles
 SCF Done:  E(UPM6) =  0.775294744763E-01 A.U. after   13 cycles
 SCF Done:  E(UPM6) =  0.769334598494E-01 A.U. after   13 cycles
 SCF Done:  E(UPM6) =  0.765864836375E-01 A.U. after   13 cycles
 SCF Done:  E(UPM6) =  0.761679240925E-01 A.U. after   13 cycles
 SCF Done:  E(UPM6) =  0.757806444418E-01 A.U. after   13 cycles
 SCF Done:  E(UPM6) =  0.754920933596E-01 A.U. after   13 cycles
 SCF Done:  E(UPM6) =  0.751759418019E-01 A.U. after   13 cycles
 SCF Done:  E(UPM6) =  0.749590418222E-01 A.U. after   13 cycles
 SCF Done:  E(UPM6) =  0.752255794503E-01 A.U. after   14 cycles
 SCF Done:  E(UPM6) =  0.755479322783E-01 A.U. after   13 cycles
 SCF Done:  E(UPM6) =  0.755461490436E-01 A.U. after   14 cycles
 SCF Done:  E(UPM6) =  0.755408602475E-01 A.U. after   12 cycles
 SCF Done:  E(UPM6) =  0.755399364714E-01 A.U. after   13 cycles
 SCF Done:  E(UPM6) =  0.755360722248E-01 A.U. after   14 cycles
 SCF Done:  E(UPM6) =  0.755353043670E-01 A.U. after   13 cycles
 SCF Done:  E(UPM6) =  0.755348341580E-01 A.U. after   12 cycles
 SCF Done:  E(UPM6) =  0.755347400329E-01 A.U. after   12 cycles
 SCF Done:  E(UPM6) =  0.755347285036E-01 A.U. after   11 cycles
 Optimization completed.
    -- Stationary point found.
 Normal termination of Gaussian 16 at Wed Oct 21 14:44:28 2020.
 Gaussian 16:  ES64L-G16RevA.03 25-Dec-2016

 ----------------------------------------------------------------------
 #P Freq PM6 5D 7F Integral=UltraFineGrid SCF=(NoSymm,XQC,MaxCyc=120) I
 Op(1/33=1) Geom=Check Guess=Read
 ----------------------------------------------------------------------

 TstMul:  Mul=     2
 TstMul:  ICh=     0
 TstMul:  Mul=     2
 Structure from the checkpoint file:  "MN_95_RKT21_BH76_PM6_SE.chk"
 Charge =  0 Multiplicity = 2

                         Standard orientation:
 ---------------------------------------------------------------------
 Center     Atomic      Atomic             Coordinates (Angstroms)
 Number     Number       Type             X           Y           Z
 ---------------------------------------------------------------------
      1          6           0       -1.218349   -0.000003    0.022496
      2          7           0        1.269685    0.000002   -0.125901
      3          1           0       -1.602188    0.901610   -0.417715
      4          1           0       -1.221201   -0.000163    1.093607
      5          1           0       -1.602482   -0.901362   -0.417958
      6          1           0        0.016329   -0.000056   -0.420392
      7          1           0        1.415882    0.809151    0.454428
      8          1           0        1.415960   -0.809180    0.454361
 ---------------------------------------------------------------------

 SCF Done:  E(UPM6) =  0.755347285036E-01 A.U. after    2 cycles

 The electronic state is 2-A.
 Alpha  occ. eigenvalues --   -1.11847  -0.90170  -0.60934  -0.57168  -0.52356
 Alpha  occ. eigenvalues --   -0.52082  -0.42564  -0.36191
 Alpha virt. eigenvalues --    0.15787   0.21450   0.21832   0.21933   0.23535
 Alpha virt. eigenvalues --    0.25050
  Beta  occ. eigenvalues --   -1.07608  -0.88991  -0.59558  -0.53424  -0.51429
  Beta  occ. eigenvalues --   -0.51068  -0.36899
  Beta virt. eigenvalues --   -0.01691   0.17820   0.22000   0.22262   0.22765
  Beta virt. eigenvalues --    0.24429   0.25650

 Mulliken charges and spin densities:
               1          2
     1  C   -0.623072   0.535516
     2  N   -0.513357   0.692349
     3  H    0.165582  -0.016094
     4  H    0.155097  -0.016855
     5  H    0.165584  -0.016091
     6  H    0.261074  -0.113234
     7  H    0.194547  -0.032796
     8  H    0.194545  -0.032795
 Sum of Mulliken charges =   0.00000   1.00000

 Dipole moment (field-independent basis, Debye):
    X=             -0.5083    Y=             -0.0001    Z=              1.8305  Tot=              1.8998
 N-N= 3.715791505052D+01 E-N=-4.203630643232D+01  KE=-2.260556254437D+01
  Exact polarizability:  49.983   0.001  12.322  -1.235  -0.000   9.546
 Approx polarizability:  22.341   0.000   7.972  -0.218  -0.000   6.101
 Leave Link  601 at Wed Oct 21 14:44:48 2020, MaxMem=  2684354560 cpu:               3.3 elap:               0.7
 (Enter /udrive/faculty/rpeverati/g16/g16/l701.exe)
 ... and contract with generalized density number  0.
 Compute integral second derivatives.
 Leave Link  701 at Wed Oct 21 14:44:49 2020, MaxMem=  2684354560 cpu:               2.7 elap:               0.8
 (Enter /udrive/faculty/rpeverati/g16/g16/l702.exe)
 L702 exits ... SP integral derivatives will be done elsewhere.

 ******    1 imaginary frequencies (negative Signs) ******

                      1                      2                      3
                      A                      A                      A
 Frequencies --  -2157.0716                18.2432               253.9630
 Red. masses --      1.0673                 1.0148                 1.7662
 Frc consts  --      2.9259                 0.0002                 0.0671
 IR Inten    --   2021.6560                33.2316                11.6275

                      4                      5                      6
                      A                      A                      A
 Frequencies --    292.7520               684.4884               754.1082
 Red. masses --      1.0198                 1.4356                 1.1143
 Frc consts  --      0.0515                 0.3963                 0.3734
 IR Inten    --     30.3536                25.0497                15.3926

                      7                      8                      9
                      A                      A                      A
 Frequencies --    887.2967              1185.2894              1203.6479
 Red. masses --      1.3037                 1.0374                 1.1342
 Frc consts  --      0.6047                 0.8587                 0.9681
 IR Inten    --    198.8378                49.5539                63.2690

                     10                     11                     12
                      A                      A                      A
 Frequencies --   1249.1022              1256.8317              1320.3005
 Red. masses --      1.0760                 1.1102                 1.1372
 Frc consts  --      0.9891                 1.0333                 1.1680
 IR Inten    --     33.2069                91.1407               235.0242

                     13                     14                     15
                      A                      A                      A
 Frequencies --   1548.1901              2730.0698              2733.2292
 Red. masses --      1.0836                 1.1003                 1.1004
 Frc consts  --      1.5302                 4.8319                 4.8432
 IR Inten    --     12.3280                84.1019                78.3810

                     16                     17                     18
                      A                      A                      A
 Frequencies --   2791.2504              2808.5938              2849.2321
 Red. masses --      1.0176                 1.0915                 1.0419
 Frc consts  --      4.6710                 5.0727                 4.9836
 IR Inten    --     96.2962                49.9379                36.3163

 - Thermochemistry -
 -------------------
 Temperature   298.150 Kelvin.  Pressure   1.00000 Atm.
 Atom     1 has atomic number  6 and mass  12.00000

 Molecular mass:    32.05002 amu.
 Principal axes and moments of inertia in atomic units:
                           1         2         3
     Eigenvalues --    18.88667 190.66592 192.90436
           X            0.99968  -0.00000   0.02541
           Y            0.00000   1.00000   0.00000
           Z           -0.02541  -0.00000   0.99968
 This molecule is an asymmetric top.
 Rotational symmetry number  1.
 Rotational temperatures (Kelvin)      4.58598     0.45427     0.44900
 Rotational constants (GHZ):          95.55632     9.46546     9.35563
    1 imaginary frequencies ignored.
 Zero-point vibrational energy     146940.8 (Joules/Mol)
                                   35.11970 (Kcal/Mol)
 Warning -- explicit consideration of   3 degrees of freedom as
           vibrations may cause significant error
 Vibrational temperatures:     26.25   365.40   421.20   984.83  1084.99
          (Kelvin)           1276.62  1705.37  1731.78  1797.18  1808.30
                             1899.62  2227.50  3927.96  3932.51  4015.99
                             4040.94  4099.41

 Zero-point correction=                           0.055967 (Hartree/Particle)
 Thermal correction to Energy=                    0.060957
 Thermal correction to Enthalpy=                  0.061901
 Thermal correction to Gibbs Free Energy=         0.028758
 Sum of electronic and zero-point Energies=              0.131502
 Sum of electronic and thermal Energies=                 0.136492
 Sum of electronic and thermal Enthalpies=               0.137436
 Sum of electronic and thermal Free Energies=            0.104293

                     E (Thermal)             CV                S
                      KCal/Mol        Cal/Mol-Kelvin    Cal/Mol-Kelvin
 Total                   38.251             14.464             69.755
 Electronic               0.000              0.000              1.377
 Translational            0.889              2.981             36.326
 Rotational               0.889              2.981             21.168
 Vibrational             36.474              8.502             10.884
 Vibration     1          0.593              1.986              6.817
 Vibration     2          0.665              1.756              1.703
 Vibration     3          0.688              1.687              1.458

 Optimization completed.
    -- Stationary point found.
 Normal termination of Gaussian 16 at Wed Oct 21 14:44:54 2020.
