 Gaussian 16, Revision A.03,

 ----------------------------------------------------------------------
 #P Opt(TS,MaxCyc=50,NoEigenTest,MaxStep=10,AddRedundant) PM6 5D 7F Int
 egral=UltraFineGrid SCF=(NoSymm,XQC,MaxCyc=120) IOp(1/33=1)
 ----------------------------------------------------------------------

 TstMul:  Mul=     3
 TstMul:  ICh=     0
 TstMul:  Mul=     3
 Symbolic Z-matrix:
 Charge =  0 Multiplicity = 3

 SCF Done:  E(UPM6) =  0.142470470171     A.U. after   16 cycles
 SCF Done:  E(UPM6) =  0.141873396553     A.U. after   14 cycles
 SCF Done:  E(UPM6) =  0.141263415575     A.U. after   14 cycles
 SCF Done:  E(UPM6) =  0.140674666468     A.U. after   14 cycles
 SCF Done:  E(UPM6) =  0.140164974130     A.U. after   15 cycles
 SCF Done:  E(UPM6) =  0.139023568936     A.U. after   15 cycles
 SCF Done:  E(UPM6) =  0.138338351797     A.U. after   15 cycles
 SCF Done:  E(UPM6) =  0.139360993623     A.U. after   14 cycles
 SCF Done:  E(UPM6) =  0.140323552346     A.U. after   14 cycles
 SCF Done:  E(UPM6) =  0.141109366513     A.U. after   14 cycles
 SCF Done:  E(UPM6) =  0.141260341160     A.U. after   14 cycles
 SCF Done:  E(UPM6) =  0.141217409377     A.U. after   14 cycles
 SCF Done:  E(UPM6) =  0.141201886445     A.U. after   13 cycles
 SCF Done:  E(UPM6) =  0.141198508158     A.U. after   12 cycles
 SCF Done:  E(UPM6) =  0.141195769438     A.U. after   13 cycles
 SCF Done:  E(UPM6) =  0.141194401203     A.U. after   13 cycles
 SCF Done:  E(UPM6) =  0.141190169674     A.U. after   14 cycles
 SCF Done:  E(UPM6) =  0.141188903249     A.U. after   13 cycles
 SCF Done:  E(UPM6) =  0.141188412966     A.U. after   13 cycles
 Optimization completed.
    -- Stationary point found.
 Normal termination of Gaussian 16 at Wed Oct 21 14:40:05 2020.
 Gaussian 16:  ES64L-G16RevA.03 25-Dec-2016

 ----------------------------------------------------------------------
 #P Freq PM6 5D 7F Integral=UltraFineGrid SCF=(NoSymm,XQC,MaxCyc=120) I
 Op(1/33=1) Geom=Check Guess=Read
 ----------------------------------------------------------------------

 TstMul:  Mul=     3
 TstMul:  ICh=     0
 TstMul:  Mul=     3
 Structure from the checkpoint file:  "MN_92_RKT18_BH76_PM6_SE.chk"
 Charge =  0 Multiplicity = 3

                         Standard orientation:
 ---------------------------------------------------------------------
 Center     Atomic      Atomic             Coordinates (Angstroms)
 Number     Number       Type             X           Y           Z
 ---------------------------------------------------------------------
      1          6           0       -1.164316   -0.019624    0.000001
      2          7           0        1.365814    0.121634   -0.000026
      3          1           0       -1.304537   -0.581987    0.901452
      4          1           0       -1.307906   -0.568606   -0.909142
      5          1           0       -1.602119    0.961264    0.007936
      6          1           0        0.136472    0.325214    0.000019
      7          1           0        1.503287   -0.869576   -0.000089
 ---------------------------------------------------------------------

 SCF Done:  E(UPM6) =  0.141188412966     A.U. after    2 cycles

 The electronic state is 3-A.
 Alpha  occ. eigenvalues --   -1.06705  -0.90280  -0.60359  -0.53345  -0.53088
 Alpha  occ. eigenvalues --   -0.49617  -0.47641  -0.37569
 Alpha virt. eigenvalues --    0.16187   0.20715   0.21064   0.21128   0.23918
  Beta  occ. eigenvalues --   -0.97640  -0.86494  -0.55250  -0.52551  -0.52074
  Beta  occ. eigenvalues --   -0.39393
  Beta virt. eigenvalues --   -0.01958   0.01034   0.19552   0.21558   0.21587
  Beta virt. eigenvalues --    0.22602   0.24704

 Mulliken charges and spin densities:
               1          2
     1  C   -0.584704   0.622019
     2  N   -0.331245   1.657290
     3  H    0.160135  -0.019175
     4  H    0.160231  -0.019164
     5  H    0.168250  -0.019114
     6  H    0.241735  -0.146032
     7  H    0.185598  -0.075824
 Sum of Mulliken charges =   0.00000   2.00000

 Dipole moment (field-independent basis, Debye):
    X=             -1.0940    Y=             -1.5323    Z=              0.0001  Tot=              1.8828
 N-N= 3.284772143394D+01 E-N=-3.514478441936D+01  KE=-2.144820600543D+01
  Exact polarizability:  45.038   0.627  10.995   0.002   0.000   8.724
 Approx polarizability:  22.035   0.142   7.089   0.001   0.000   5.042
 Leave Link  601 at Wed Oct 21 14:40:41 2020, MaxMem=  2684354560 cpu:               2.9 elap:               1.4
 (Enter /udrive/faculty/rpeverati/g16/g16/l701.exe)
 ... and contract with generalized density number  0.
 Compute integral second derivatives.
 Leave Link  701 at Wed Oct 21 14:40:44 2020, MaxMem=  2684354560 cpu:               5.8 elap:               1.5
 (Enter /udrive/faculty/rpeverati/g16/g16/l702.exe)
 L702 exits ... SP integral derivatives will be done elsewhere.

 ******    1 imaginary frequencies (negative Signs) ******

                      1                      2                      3
                      A                      A                      A
 Frequencies --  -2195.4119                60.8832               234.0091
 Red. masses --      1.0715                 1.0315                 1.4301
 Frc consts  --      3.0427                 0.0023                 0.0461
 IR Inten    --   1890.3468                69.7367                17.1374

                      4                      5                      6
                      A                      A                      A
 Frequencies --    339.9099               615.1409               823.5211
 Red. masses --      1.0865                 1.7157                 1.2964
 Frc consts  --      0.0740                 0.3825                 0.5180
 IR Inten    --     63.1119                 9.5961                72.5512

                      7                      8                      9
                      A                      A                      A
 Frequencies --    934.0793              1198.2201              1241.7127
 Red. masses --      1.0601                 1.1475                 1.0710
 Frc consts  --      0.5450                 0.9707                 0.9729
 IR Inten    --     88.4034                66.1378                35.2754

                     10                     11                     12
                      A                      A                      A
 Frequencies --   1253.9889              1275.7370              2728.3682
 Red. masses --      1.1057                 1.1102                 1.1014
 Frc consts  --      1.0244                 1.0646                 4.8305
 IR Inten    --     81.0294               154.5286                89.2964

                     13                     14                     15
                      A                      A                      A
 Frequencies --   2732.3904              2786.7340              2793.2668
 Red. masses --      1.1022                 1.0212                 1.0667
 Frc consts  --      4.8485                 4.6724                 4.9036
 IR Inten    --     80.9800                81.5251                27.5922

 - Thermochemistry -
 -------------------
 Temperature   298.150 Kelvin.  Pressure   1.00000 Atm.
 Atom     1 has atomic number  6 and mass  12.00000

 Molecular mass:    31.04220 amu.
 Principal axes and moments of inertia in atomic units:
                           1         2         3
     Eigenvalues --    15.29225 186.35486 189.84798
           X            0.99967  -0.02569   0.00000
           Y            0.02569   0.99967   0.00001
           Z           -0.00000  -0.00001   1.00000
 This molecule is an asymmetric top.
 Rotational symmetry number  1.
 Rotational temperatures (Kelvin)      5.66391     0.46478     0.45623
 Rotational constants (GHZ):         118.01673     9.68443     9.50624
    1 imaginary frequencies ignored.
 Zero-point vibrational energy     113752.7 (Joules/Mol)
                                   27.18754 (Kcal/Mol)
 Warning -- explicit consideration of   4 degrees of freedom as
           vibrations may cause significant error
 Vibrational temperatures:     87.60   336.69   489.05   885.05  1184.86
          (Kelvin)           1343.93  1723.97  1786.55  1804.21  1835.50
                             3925.51  3931.30  4009.49  4018.89

 Zero-point correction=                           0.043326 (Hartree/Particle)
 Thermal correction to Energy=                    0.048181
 Thermal correction to Enthalpy=                  0.049125
 Thermal correction to Gibbs Free Energy=         0.016960
 Sum of electronic and zero-point Energies=              0.184515
 Sum of electronic and thermal Energies=                 0.189369
 Sum of electronic and thermal Enthalpies=               0.190314
 Sum of electronic and thermal Free Energies=            0.158148

                     E (Thermal)             CV                S
                      KCal/Mol        Cal/Mol-Kelvin    Cal/Mol-Kelvin
 Total                   30.234             14.107             67.698
 Electronic               0.000              0.000              2.183
 Translational            0.889              2.981             36.231
 Rotational               0.889              2.981             20.920
 Vibrational             28.457              8.145              8.364
 Vibration     1          0.597              1.973              4.428
 Vibration     2          0.654              1.789              1.848
 Vibration     3          0.720              1.596              1.213
 Vibration     4          0.975              1.000              0.424

                           ! Non-Optimized Parameters !
 Normal termination of Gaussian 16 at Wed Oct 21 14:40:55 2020.
