 Gaussian 16, Revision A.03,

 ----------------------------------------------------------------------
 #P Opt(TS,MaxCyc=50,NoEigenTest,MaxStep=10,AddRedundant) PM6 5D 7F Int
 egral=UltraFineGrid SCF=(NoSymm,XQC,MaxCyc=120) IOp(1/33=1)
 ----------------------------------------------------------------------

 TstMul:  Mul=     1
 TstMul:  ICh=     0
 TstMul:  Mul=     1
 Symbolic Z-matrix:
 Charge =  0 Multiplicity = 1

 SCF Done:  E(RPM6) =  0.100111290723     A.U. after   15 cycles
 SCF Done:  E(RPM6) =  0.986234750886E-01 A.U. after   14 cycles
 SCF Done:  E(RPM6) =  0.987480344247E-01 A.U. after   13 cycles
 SCF Done:  E(RPM6) =  0.989810236699E-01 A.U. after   13 cycles
 SCF Done:  E(RPM6) =  0.989980078525E-01 A.U. after   15 cycles
 SCF Done:  E(RPM6) =  0.990050382943E-01 A.U. after   15 cycles
 SCF Done:  E(RPM6) =  0.983851324501E-01 A.U. after   14 cycles
 SCF Done:  E(RPM6) =  0.976822614202E-01 A.U. after   15 cycles
 SCF Done:  E(RPM6) =  0.980274939185E-01 A.U. after   15 cycles
 SCF Done:  E(RPM6) =  0.974415217297E-01 A.U. after   14 cycles
 SCF Done:  E(RPM6) =  0.967191647712E-01 A.U. after   14 cycles
 SCF Done:  E(RPM6) =  0.966329558686E-01 A.U. after   13 cycles
 SCF Done:  E(RPM6) =  0.966256995214E-01 A.U. after   11 cycles
 SCF Done:  E(RPM6) =  0.966261259748E-01 A.U. after   13 cycles
 SCF Done:  E(RPM6) =  0.966218637109E-01 A.U. after   13 cycles
 SCF Done:  E(RPM6) =  0.966205911594E-01 A.U. after   12 cycles
 SCF Done:  E(RPM6) =  0.966202024475E-01 A.U. after   10 cycles
 SCF Done:  E(RPM6) =  0.966200841844E-01 A.U. after   12 cycles
 Optimization completed.
    -- Stationary point found.
 Normal termination of Gaussian 16 at Wed Oct 21 14:37:09 2020.
 Gaussian 16:  ES64L-G16RevA.03 25-Dec-2016

 ----------------------------------------------------------------------
 #P Freq PM6 5D 7F Integral=UltraFineGrid SCF=(NoSymm,XQC,MaxCyc=120) I
 Op(1/33=1) Geom=Check Guess=Read
 ----------------------------------------------------------------------

 TstMul:  Mul=     1
 TstMul:  ICh=     0
 TstMul:  Mul=     1
 Structure from the checkpoint file:  "MN_96_RKT22_BH76_PM6_SE.chk"
 Charge =  0 Multiplicity = 1

                         Standard orientation:
 ---------------------------------------------------------------------
 Center     Atomic      Atomic             Coordinates (Angstroms)
 Number     Number       Type             X           Y           Z
 ---------------------------------------------------------------------
      1          6           0       -1.314241   -0.894029   -0.007900
      2          6           0       -1.212675    0.507256   -0.032805
      3          6           0       -0.000058    1.182067    0.133860
      4          6           0        1.212584    0.507345   -0.032521
      5          6           0        1.314288   -0.894006   -0.008229
      6          1           0        2.134986   -1.368780   -0.528257
      7          1           0        1.031335   -1.452052    0.879287
      8          1           0        2.078913    1.092405   -0.355289
      9          1           0       -0.000106    2.268598    0.187466
     10          1           0       -2.078816    1.092144   -0.356342
     11          1           0       -2.134879   -1.369254   -0.527590
     12          1           0        0.000042   -1.263201   -0.493469
     13          1           0       -1.030857   -1.451656    0.879762
 ---------------------------------------------------------------------

 SCF Done:  E(RPM6) =  0.966200841842E-01 A.U. after    2 cycles

 The electronic state is 1-A.
 Alpha  occ. eigenvalues --   -1.06878  -0.93997  -0.89470  -0.75205  -0.68017
 Alpha  occ. eigenvalues --   -0.61868  -0.53092  -0.52302  -0.51549  -0.48057
 Alpha  occ. eigenvalues --   -0.45966  -0.44902  -0.34919  -0.32616
 Alpha virt. eigenvalues --    0.00230   0.05270   0.16608   0.17894   0.18191
 Alpha virt. eigenvalues --    0.19572   0.20649   0.20924   0.21736   0.23109
 Alpha virt. eigenvalues --    0.23132   0.23543   0.24750   0.24942

 Mulliken charges:
               1
     1  C   -0.569768
     2  C    0.061515
     3  C   -0.356394
     4  C    0.061552
     5  C   -0.569930
     6  H    0.160126
     7  H    0.177709
     8  H    0.122839
     9  H    0.159016
    10  H    0.122849
    11  H    0.160115
    12  H    0.292660
    13  H    0.177710
 Sum of Mulliken charges =   0.00000

 Dipole moment (field-independent basis, Debye):
    X=             -0.0003    Y=             -0.2443    Z=             -0.3005  Tot=              0.3873
 N-N= 1.055822312817D+02 E-N=-1.517297929020D+02  KE=-4.206468581146D+01
  Exact polarizability:  65.557  -0.004  55.776   0.001   0.586  15.418
 Approx polarizability:  54.558  -0.006  45.602   0.001   1.371  10.445
 Leave Link  601 at Wed Oct 21 14:37:32 2020, MaxMem=  2684354560 cpu:               0.3 elap:               0.5
 (Enter /udrive/faculty/rpeverati/g16/g16/l701.exe)
 ... and contract with generalized density number  0.
 Compute integral second derivatives.
 Leave Link  701 at Wed Oct 21 14:37:33 2020, MaxMem=  2684354560 cpu:               4.9 elap:               1.1
 (Enter /udrive/faculty/rpeverati/g16/g16/l702.exe)
 L702 exits ... SP integral derivatives will be done elsewhere.

 ******    1 imaginary frequencies (negative Signs) ******

                      1                      2                      3
                      A                      A                      A
 Frequencies --  -2044.4510               258.9232               404.7780
 Red. masses --      1.2454                 2.0208                 1.6706
 Frc consts  --      3.0670                 0.0798                 0.1613
 IR Inten    --      0.4490                 0.7545                 1.8566

                      4                      5                      6
                      A                      A                      A
 Frequencies --    449.3420               482.5173               570.0043
 Red. masses --      2.9389                 3.1472                 1.3065
 Frc consts  --      0.3496                 0.4317                 0.2501
 IR Inten    --      1.9550                 2.5257                 2.2102

                      7                      8                      9
                      A                      A                      A
 Frequencies --    709.8223               729.2488               819.1171
 Red. masses --      1.8748                 1.1611                 1.2629
 Frc consts  --      0.5565                 0.3638                 0.4992
 IR Inten    --     18.2267                 4.1691               115.9329

                     10                     11                     12
                      A                      A                      A
 Frequencies --    919.6284               932.0133               997.9314
 Red. masses --      1.1733                 1.3150                 1.5780
 Frc consts  --      0.5846                 0.6730                 0.9259
 IR Inten    --     19.9221                21.6351                 0.2343

                     13                     14                     15
                      A                      A                      A
 Frequencies --   1015.2645              1027.2711              1093.8242
 Red. masses --      1.8433                 1.3847                 1.2028
 Frc consts  --      1.1195                 0.8610                 0.8479
 IR Inten    --     36.7676                67.9191                25.6730

                     16                     17                     18
                      A                      A                      A
 Frequencies --   1110.5084              1161.4736              1187.4103
 Red. masses --      1.1081                 1.6157                 1.1059
 Frc consts  --      0.8051                 1.2842                 0.9187
 IR Inten    --     64.1204                 3.6565                 0.2415

                     19                     20                     21
                      A                      A                      A
 Frequencies --   1246.1237              1254.1195              1304.7993
 Red. masses --      1.1066                 1.1350                 1.1438
 Frc consts  --      1.0125                 1.0518                 1.1473
 IR Inten    --      6.0125                 6.5079                11.8416

                     22                     23                     24
                      A                      A                      A
 Frequencies --   1346.7185              1486.7668              1587.5639
 Red. masses --      1.7750                 4.0910                 1.4686
 Frc consts  --      1.8967                 5.3280                 2.1808
 IR Inten    --     62.9546                 7.4831                38.1559

                     25                     26                     27
                      A                      A                      A
 Frequencies --   1621.0286              1627.5668              2705.9444
 Red. masses --      2.6724                 5.2632                 1.0851
 Frc consts  --      4.1374                 8.2144                 4.6811
 IR Inten    --    120.6103               290.3498                 0.4356

                     28                     29                     30
                      A                      A                      A
 Frequencies --   2709.2671              2736.0483              2736.6619
 Red. masses --      1.0867                 1.0775                 1.0758
 Frc consts  --      4.6995                 4.7524                 4.7469
 IR Inten    --     81.2528                61.0290               126.7903

                     31                     32                     33
                      A                      A                      A
 Frequencies --   2765.8668              2774.1254              2774.8183
 Red. masses --      1.0698                 1.0493                 1.0545
 Frc consts  --      4.8217                 4.7579                 4.7838
 IR Inten    --    182.0522                96.8548                61.1689

 - Thermochemistry -
 -------------------
 Temperature   298.150 Kelvin.  Pressure   1.00000 Atm.
 Atom     1 has atomic number  6 and mass  12.00000

 Molecular mass:    68.06260 amu.
 Principal axes and moments of inertia in atomic units:
                           1         2         3
     Eigenvalues --   221.98949 355.93977 557.31792
           X            1.00000   0.00000   0.00001
           Y           -0.00000   0.99989  -0.01453
           Z           -0.00001   0.01453   0.99989
 This molecule is an asymmetric top.
 Rotational symmetry number  1.
 Rotational temperatures (Kelvin)      0.39017     0.24334     0.15541
 Rotational constants (GHZ):           8.12985     5.07036     3.23826
    1 imaginary frequencies ignored.
 Zero-point vibrational energy     266447.2 (Joules/Mol)
                                   63.68242 (Kcal/Mol)
 Warning -- explicit consideration of   5 degrees of freedom as
           vibrations may cause significant error
 Vibrational temperatures:    372.53   582.39   646.50   694.23   820.11
          (Kelvin)           1021.28  1049.23  1178.53  1323.14  1340.96
                             1435.80  1460.74  1478.01  1573.77  1597.77
                             1671.10  1708.42  1792.89  1804.40  1877.32
                             1937.63  2139.13  2284.15  2332.30  2341.71
                             3893.25  3898.03  3936.56  3937.45  3979.47
                             3991.35  3992.34

 Zero-point correction=                           0.101484 (Hartree/Particle)
 Thermal correction to Energy=                    0.106410
 Thermal correction to Enthalpy=                  0.107354
 Thermal correction to Gibbs Free Energy=         0.074035
 Sum of electronic and zero-point Energies=              0.198104
 Sum of electronic and thermal Energies=                 0.203030
 Sum of electronic and thermal Enthalpies=               0.203974
 Sum of electronic and thermal Free Energies=            0.170655

                     E (Thermal)             CV                S
                      KCal/Mol        Cal/Mol-Kelvin    Cal/Mol-Kelvin
 Total                   66.773             18.997             70.127
 Electronic               0.000              0.000              0.000
 Translational            0.889              2.981             38.571
 Rotational               0.889              2.981             25.291
 Vibrational             64.996             13.036              6.265
 Vibration     1          0.668              1.748              1.669
 Vibration     2          0.770              1.460              0.945
 Vibration     3          0.808              1.362              0.798
 Vibration     4          0.839              1.289              0.703
 Vibration     5          0.926              1.096              0.504

 Optimization completed.
    -- Stationary point found.
 Normal termination of Gaussian 16 at Wed Oct 21 14:37:41 2020.
