 Gaussian 16, Revision A.03,

 ----------------------------------------------------------------------
 #P Opt(TS,MaxCyc=50,NoEigenTest,MaxStep=10,AddRedundant) PM6 5D 7F Int
 egral=UltraFineGrid SCF=(NoSymm,XQC,MaxCyc=120) IOp(1/33=1)
 ----------------------------------------------------------------------

 TstMul:  Mul=     3
 TstMul:  ICh=     0
 TstMul:  Mul=     3
 Symbolic Z-matrix:
 Charge =  0 Multiplicity = 3

 SCF Done:  E(UPM6) =  0.515738175929E-01 A.U. after   21 cycles
 SCF Done:  E(UPM6) =  0.509837401611E-01 A.U. after   18 cycles
 SCF Done:  E(UPM6) =  0.514172907004E-01 A.U. after   17 cycles
 SCF Done:  E(UPM6) =  0.522031460662E-01 A.U. after   18 cycles
 SCF Done:  E(UPM6) =  0.497116515776E-01 A.U. after   17 cycles
 SCF Done:  E(UPM6) =  0.482840649803E-01 A.U. after   17 cycles
 SCF Done:  E(UPM6) =  0.469938637542E-01 A.U. after   17 cycles
 SCF Done:  E(UPM6) =  0.461015386517E-01 A.U. after   16 cycles
 SCF Done:  E(UPM6) =  0.456175763608E-01 A.U. after   16 cycles
 SCF Done:  E(UPM6) =  0.455507396955E-01 A.U. after   16 cycles
 SCF Done:  E(UPM6) =  0.458347336985E-01 A.U. after   16 cycles
 SCF Done:  E(UPM6) =  0.461468245191E-01 A.U. after   14 cycles
 SCF Done:  E(UPM6) =  0.461435447673E-01 A.U. after   14 cycles
 SCF Done:  E(UPM6) =  0.461500597602E-01 A.U. after   13 cycles
 Optimization completed.
    -- Stationary point found.
 Normal termination of Gaussian 16 at Wed Oct 21 14:35:22 2020.
 Gaussian 16:  ES64L-G16RevA.03 25-Dec-2016

 ----------------------------------------------------------------------
 #P Freq PM6 5D 7F Integral=UltraFineGrid SCF=(NoSymm,XQC,MaxCyc=120) I
 Op(1/33=1) Geom=Check Guess=Read
 ----------------------------------------------------------------------

 TstMul:  Mul=     3
 TstMul:  ICh=     0
 TstMul:  Mul=     3
 Structure from the checkpoint file:  "MN_91_RKT17_BH76_PM6_SE.chk"
 Charge =  0 Multiplicity = 3

                         Standard orientation:
 ---------------------------------------------------------------------
 Center     Atomic      Atomic             Coordinates (Angstroms)
 Number     Number       Type             X           Y           Z
 ---------------------------------------------------------------------
      1         17           0        0.033562   -0.706523    0.000000
      2          1           0       -0.839041    0.505555    0.000000
      3          8           0        0.033562    1.438167    0.000000
 ---------------------------------------------------------------------

 SCF Done:  E(UPM6) =  0.461500597602E-01 A.U. after    2 cycles

 The electronic state is 3-A".
 Alpha  occ. eigenvalues --   -1.23075  -1.00915  -0.70854  -0.62872  -0.56407
 Alpha  occ. eigenvalues --   -0.44493  -0.42581  -0.41739
 Alpha virt. eigenvalues --    0.07339   3.30787   3.31611   3.31627   3.35054
 Alpha virt. eigenvalues --    3.35069
  Beta  occ. eigenvalues --   -0.97742  -0.90054  -0.61281  -0.43694  -0.41986
  Beta  occ. eigenvalues --   -0.39136
  Beta virt. eigenvalues --   -0.08033  -0.06289   0.09475   3.32015   3.32671
  Beta virt. eigenvalues --    3.33021   3.35644   3.35673

 Mulliken charges and spin densities:
               1          2
     1  Cl  -0.319028   0.296584
     2  H    0.318559  -0.084283
     3  O    0.000469   1.787699
 Sum of Mulliken charges =   0.00000   2.00000

 Dipole moment (field-independent basis, Debye):
    X=             -1.4212    Y=              1.9846    Z=              0.0000  Tot=              2.4410
 N-N= 3.343108189948D+01 E-N=-2.458928977584D+01  KE=-3.301227070594D+01
  Exact polarizability:   7.580  -1.330  49.453  -0.000  -0.000   2.589
 Approx polarizability:   5.895  -0.959  28.367  -0.000  -0.000   2.169
 Leave Link  601 at Wed Oct 21 14:35:44 2020, MaxMem=  2684354560 cpu:               3.2 elap:               1.0
 (Enter /udrive/faculty/rpeverati/g16/g16/l701.exe)
 ... and contract with generalized density number  0.
 Compute integral second derivatives.
 Leave Link  701 at Wed Oct 21 14:35:45 2020, MaxMem=  2684354560 cpu:               4.6 elap:               1.1
 (Enter /udrive/faculty/rpeverati/g16/g16/l702.exe)
 L702 exits ... SP integral derivatives will be done elsewhere.

 ******    1 imaginary frequencies (negative Signs) ******

                      1                      2                      3
                     A'                     A'                     A'
 Frequencies --   -695.2831               476.8361              2003.3221
 Red. masses --      1.4027                 3.0076                 1.0687
 Frc consts  --      0.3995                 0.4029                 2.5270
 IR Inten    --    554.9873               366.4090               250.7837

 - Thermochemistry -
 -------------------
 Temperature   298.150 Kelvin.  Pressure   1.00000 Atm.
 Atom     1 has atomic number 17 and mass  34.96885

 Molecular mass:    51.97159 amu.
 Principal axes and moments of inertia in atomic units:
                           1         2         3
     Eigenvalues --     2.67185 181.31266 183.98451
           X           -0.00929   0.99996   0.00000
           Y            0.99996   0.00929   0.00000
           Z            0.00000   0.00000   1.00000
 This molecule is an asymmetric top.
 Rotational symmetry number  1.
 Rotational temperatures (Kelvin)     32.41720     0.47770     0.47077
 Rotational constants (GHZ):         675.46490     9.95375     9.80920
    1 imaginary frequencies ignored.
 Zero-point vibrational energy      14834.6 (Joules/Mol)
                                    3.54556 (Kcal/Mol)
 Warning -- explicit consideration of   1 degrees of freedom as
           vibrations may cause significant error
 Vibrational temperatures:    686.06  2882.33
          (Kelvin)

 Zero-point correction=                           0.005650 (Hartree/Particle)
 Thermal correction to Energy=                    0.008725
 Thermal correction to Enthalpy=                  0.009669
 Thermal correction to Gibbs Free Energy=        -0.018743
 Sum of electronic and zero-point Energies=              0.051800
 Sum of electronic and thermal Energies=                 0.054875
 Sum of electronic and thermal Enthalpies=               0.055819
 Sum of electronic and thermal Free Energies=            0.027407

                     E (Thermal)             CV                S
                      KCal/Mol        Cal/Mol-Kelvin    Cal/Mol-Kelvin
 Total                    5.475              7.275             59.798
 Electronic               0.000              0.000              2.183
 Translational            0.889              2.981             37.767
 Rotational               0.889              2.981             19.128
 Vibrational              3.698              1.313              0.720
 Vibration     1          0.833              1.301              0.719

                           ! Non-Optimized Parameters !
 Normal termination of Gaussian 16 at Wed Oct 21 14:35:52 2020.
