 Gaussian 16, Revision A.03,
 Gaussian 16:  ES64L-G16RevA.03 25-Dec-2016

 ----------------------------------------------------------------------
 #P Opt(MaxCyc=100) TPSSTPSS/6-31G* 5D 7F Integral=UltraFineGrid SCF=(N
 oSymm,XQC,MaxCyc=120) EmpiricalDispersion=GD3BJ IOp(1/33=1)
 ----------------------------------------------------------------------

 TstMul:  Mul=     1
 TstMul:  ICh=     0
 TstMul:  Mul=     1
 Symbolic Z-matrix:
 Charge =  0 Multiplicity = 1

 SCF Done:  E(RTPSS-TPSS) =  -195.350495545     A.U. after   14 cycles
 SCF Done:  E(RTPSS-TPSS) =  -195.351273518     A.U. after   11 cycles
 SCF Done:  E(RTPSS-TPSS) =  -195.351288338     A.U. after    9 cycles
 SCF Done:  E(RTPSS-TPSS) =  -195.351289414     A.U. after    8 cycles
 Optimization completed.
    -- Stationary point found.

                         Standard orientation:
 ---------------------------------------------------------------------
 Center     Atomic      Atomic             Coordinates (Angstroms)
 Number     Number       Type             X           Y           Z
 ---------------------------------------------------------------------
      1          6           0       -2.069537   -0.612758    0.000001
      2          6           0       -1.239780    0.642143    0.000050
      3          6           0        0.111298    0.734424    0.000034
      4          6           0        1.060819   -0.369499   -0.000035
      5          6           0        2.400172   -0.203168   -0.000044
      6          1           0       -2.727426   -0.643169    0.882706
      7          1           0       -2.727459   -0.643078   -0.882683
      8          1           0       -1.462402   -1.524919   -0.000057
      9          1           0       -1.808644    1.574725    0.000104
     10          1           0        0.555165    1.732995    0.000076
     11          1           0        0.658863   -1.383975   -0.000080
     12          1           0        3.084128   -1.049693   -0.000096
     13          1           0        2.849944    0.790266   -0.000001
 ---------------------------------------------------------------------

 The electronic state is 1-A.
 Alpha  occ. eigenvalues --   -9.99646  -9.99534  -9.99250  -9.99094  -9.98654
 Alpha  occ. eigenvalues --   -0.74249  -0.69215  -0.62550  -0.54023  -0.48238
 Alpha  occ. eigenvalues --   -0.42849  -0.39927  -0.37111  -0.35776  -0.33855
 Alpha  occ. eigenvalues --   -0.32502  -0.29266  -0.27321  -0.18920
 Alpha virt. eigenvalues --   -0.04128   0.06197   0.09142   0.09777   0.12166
 Alpha virt. eigenvalues --    0.14914   0.15767   0.16029   0.17905   0.21205
 Alpha virt. eigenvalues --    0.23534   0.31253   0.36025   0.41555   0.46051

 Mulliken charges:
               1
     1  C   -0.508638
     2  C   -0.127181
     3  C   -0.126959
     4  C   -0.072084
     5  C   -0.377166
     6  H    0.167209
     7  H    0.167209
     8  H    0.163140
     9  H    0.140665
    10  H    0.134518
    11  H    0.137420
    12  H    0.151921
    13  H    0.149947
 Sum of Mulliken charges =  -0.00000

 Dipole moment (field-independent basis, Debye):
    X=             -0.5034    Y=             -0.1294    Z=              0.0000  Tot=              0.5198
 Quadrupole moment (field-independent basis, Debye-Ang):
   XX=            -28.7168   YY=            -29.3405   ZZ=            -34.1472
   XY=              0.0709   XZ=             -0.0001   YZ=              0.0002

 1\1\GINC-NODE34\FOpt\RTPSSTPSS\6-31G(d)\C5H8\RPEVERATI\07-Oct-2020\0\\
 #P Opt(MaxCyc=100) TPSSTPSS/6-31G* 5D 7F Integral=UltraFineGrid SCF=(N
 oSymm,XQC,MaxCyc=120) EmpiricalDispersion=GD3BJ IOp(1/33=1)\\TS search
  on BH76.\\0,1\C,-2.0676542132,-0.6147197949,0.0000016061\C,-1.2396489
 016,0.6413365428,0.0000506079\C,0.1112990893,0.7355019892,0.0000347301
 \C,1.0623593984,-0.3670956052,-0.0000336969\C,2.4014788255,-0.19889589
 39,-0.0000434637\H,-2.7255004903,-0.6460485222,0.882706678\H,-2.725533
 1638,-0.6459581267,-0.882682241\H,-1.4592474627,-1.5260337881,-0.00005

 Normal termination of Gaussian 16 at Wed Oct  7 13:05:07 2020.
