 Gaussian 16, Revision A.03,
 Gaussian 16:  ES64L-G16RevA.03 25-Dec-2016

 ----------------------------------------------------------------------
 #P Opt(MaxCyc=100) TPSSTPSS/6-31G* 5D 7F Integral=UltraFineGrid SCF=(N
 oSymm,XQC,MaxCyc=120) EmpiricalDispersion=GD3BJ IOp(1/33=1)
 ----------------------------------------------------------------------

 TstMul:  Mul=     2
 TstMul:  ICh=     0
 TstMul:  Mul=     2
 Symbolic Z-matrix:
 Charge =  0 Multiplicity = 2

 SCF Done:  E(UTPSS-TPSS) =  -79.1728291785     A.U. after   13 cycles
 SCF Done:  E(UTPSS-TPSS) =  -79.1731312623     A.U. after   10 cycles
 SCF Done:  E(UTPSS-TPSS) =  -79.1731332191     A.U. after    9 cycles
 SCF Done:  E(UTPSS-TPSS) =  -79.1731334456     A.U. after    8 cycles
 Optimization completed.
    -- Stationary point found.

                         Standard orientation:
 ---------------------------------------------------------------------
 Center     Atomic      Atomic             Coordinates (Angstroms)
 Number     Number       Type             X           Y           Z
 ---------------------------------------------------------------------
      1          6           0        0.797843   -0.000003   -0.024899
      2          6           0       -0.697156    0.000167   -0.000529
      3          1           0       -1.110726    0.896039   -0.485323
      4          1           0        1.356698   -0.930899    0.054920
      5          1           0       -1.096420   -0.011655    1.032884
      6          1           0       -1.111203   -0.884797   -0.504976
      7          1           0        1.357528    0.930330    0.055067
 ---------------------------------------------------------------------

 The electronic state is 2-A.
 Alpha  occ. eigenvalues --   -9.99512  -9.98890  -0.69256  -0.55509  -0.40266
 Alpha  occ. eigenvalues --   -0.36814  -0.34234  -0.31605  -0.16320
 Alpha virt. eigenvalues --    0.10314   0.12329   0.13113   0.16069   0.20476
 Alpha virt. eigenvalues --    0.23609   0.49758   0.52619   0.53090   0.59222
 Alpha virt. eigenvalues --    0.60063   0.72260   0.77384   0.85104   0.85569

  Beta  occ. eigenvalues --   -9.99002  -9.97989  -0.67806  -0.53362  -0.39723
  Beta  occ. eigenvalues --   -0.35528  -0.33567  -0.31304
  Beta virt. eigenvalues --   -0.05363   0.10924   0.13604   0.14232   0.16870
  Beta virt. eigenvalues --    0.21265   0.25044   0.50612   0.53115   0.58507
  Beta virt. eigenvalues --    0.61538   0.63611   0.73438   0.80425   0.86109

 Mulliken charges and spin densities:
               1          2
     1  C   -0.313741   1.101949
     2  C   -0.474869  -0.090116
     3  H    0.161798   0.013897
     4  H    0.151300  -0.053330
     5  H    0.162178   0.065941
     6  H    0.161886   0.015022
     7  H    0.151447  -0.053363
 Sum of Mulliken charges =   0.00000   1.00000

 Dipole moment (field-independent basis, Debye):
    X=             -0.2095    Y=             -0.0003    Z=              0.1397  Tot=              0.2518
 Quadrupole moment (field-independent basis, Debye-Ang):
   XX=            -13.9290   YY=            -13.4014   ZZ=            -14.8936
   XY=              0.0010   XZ=              0.1801   YZ=              0.0002

 Normal termination of Gaussian 16 at Wed Oct  7 13:04:04 2020.
