 Gaussian 16, Revision A.03,
 Gaussian 16:  ES64L-G16RevA.03 25-Dec-2016

 ----------------------------------------------------------------------
 #P Opt(MaxCyc=100) TPSSTPSS/6-31G* 5D 7F Integral=UltraFineGrid SCF=(N
 oSymm,XQC,MaxCyc=120) EmpiricalDispersion=GD3BJ IOp(1/33=1)
 ----------------------------------------------------------------------

 TstMul:  Mul=     2
 TstMul:  ICh=     0
 TstMul:  Mul=     2
 Symbolic Z-matrix:
 Charge =  0 Multiplicity = 2

 SCF Done:  E(UTPSS-TPSS) =  -79.1728163421     A.U. after   13 cycles
 SCF Done:  E(UTPSS-TPSS) =  -79.1731304229     A.U. after   11 cycles
 SCF Done:  E(UTPSS-TPSS) =  -79.1731333053     A.U. after    9 cycles
 SCF Done:  E(UTPSS-TPSS) =  -79.1731336341     A.U. after    8 cycles
 Optimization completed.
    -- Stationary point found.

                         Standard orientation:
 ---------------------------------------------------------------------
 Center     Atomic      Atomic             Coordinates (Angstroms)
 Number     Number       Type             X           Y           Z
 ---------------------------------------------------------------------
      1          6           0       -0.011903   -0.697056   -0.000000
      2          6           0       -0.011903    0.798152    0.000000
      3          1           0        1.014932   -1.113122   -0.000000
      4          1           0       -0.513231   -1.102758    0.890470
      5          1           0       -0.513231   -1.102758   -0.890470
      6          1           0        0.077182    1.356030   -0.930622
      7          1           0        0.077182    1.356030    0.930622
 ---------------------------------------------------------------------

 The electronic state is 2-A'.
 Alpha  occ. eigenvalues --   -9.99513  -9.98890  -0.69256  -0.55509  -0.40266
 Alpha  occ. eigenvalues --   -0.36814  -0.34234  -0.31605  -0.16320
 Alpha virt. eigenvalues --    0.10314   0.12330   0.13112   0.16069   0.20476
 Alpha virt. eigenvalues --    0.23608   0.49758   0.52619   0.53089   0.59222
 Alpha virt. eigenvalues --    0.60063   0.72258   0.77384   0.85105   0.85569

  Beta  occ. eigenvalues --   -9.99002  -9.97989  -0.67806  -0.53362  -0.39723
  Beta  occ. eigenvalues --   -0.35528  -0.33567  -0.31304
  Beta virt. eigenvalues --   -0.05363   0.10924   0.13605   0.14230   0.16870
  Beta virt. eigenvalues --    0.21264   0.25044   0.50612   0.53115   0.58507
  Beta virt. eigenvalues --    0.61537   0.63611   0.73436   0.80424   0.86109

 Mulliken charges and spin densities:
               1          2
     1  C   -0.474870  -0.090114
     2  C   -0.313735   1.101946
     3  H    0.162177   0.065950
     4  H    0.161841   0.014454
     5  H    0.161841   0.014454
     6  H    0.151373  -0.053344
     7  H    0.151373  -0.053344
 Sum of Mulliken charges =  -0.00000   1.00000

 Dipole moment (field-independent basis, Debye):
    X=              0.1364    Y=             -0.2118    Z=              0.0000  Tot=              0.2519
 Quadrupole moment (field-independent basis, Debye-Ang):
   XX=            -14.8875   YY=            -13.9351   ZZ=            -13.4014
   XY=              0.1959   XZ=              0.0000   YZ=              0.0000

 Normal termination of Gaussian 16 at Wed Oct  7 13:03:44 2020.
