 Gaussian 16, Revision A.03,
 Gaussian 16:  ES64L-G16RevA.03 25-Dec-2016

 ----------------------------------------------------------------------
 #P Opt(MaxCyc=100) TPSSTPSS/6-31G* 5D 7F Integral=UltraFineGrid SCF=(N
 oSymm,XQC,MaxCyc=120) EmpiricalDispersion=GD3BJ IOp(1/33=1)
 ----------------------------------------------------------------------

 TstMul:  Mul=     1
 TstMul:  ICh=     0
 TstMul:  Mul=     1
 Symbolic Z-matrix:
 Charge =  0 Multiplicity = 1

 SCF Done:  E(RTPSS-TPSS) =  -79.8439294925     A.U. after    9 cycles
 SCF Done:  E(RTPSS-TPSS) =  -79.8442481872     A.U. after    6 cycles
 SCF Done:  E(RTPSS-TPSS) =  -79.8442489710     A.U. after    5 cycles
 Optimization completed.
    -- Stationary point found.

                         Standard orientation:
 ---------------------------------------------------------------------
 Center     Atomic      Atomic             Coordinates (Angstroms)
 Number     Number       Type             X           Y           Z
 ---------------------------------------------------------------------
      1          6           0       -0.767594    0.000001   -0.000000
      2          6           0        0.767594   -0.000001    0.000001
      3          1           0        1.165062    0.486957   -0.901223
      4          1           0       -1.165061   -0.536609   -0.872571
      5          1           0        1.165056   -1.023964    0.028896
      6          1           0        1.165061    0.537006    0.872327
      7          1           0       -1.165062   -0.487368    0.901001
      8          1           0       -1.165056    1.023977   -0.028429
 ---------------------------------------------------------------------

 The electronic state is 1-A.
 Alpha  occ. eigenvalues --   -9.98114  -9.98107  -0.68995  -0.56195  -0.38780
 Alpha  occ. eigenvalues --   -0.38780  -0.32023  -0.30269  -0.30269
 Alpha virt. eigenvalues --    0.09428   0.14386   0.14672   0.14672   0.17595
 Alpha virt. eigenvalues --    0.17596   0.21874   0.49872   0.53218   0.53218
 Alpha virt. eigenvalues --    0.62143   0.62143   0.64139   0.86682   0.86683

 Mulliken charges:
               1
     1  C   -0.455627
     2  C   -0.455627
     3  H    0.151875
     4  H    0.151876
     5  H    0.151876
     6  H    0.151876
     7  H    0.151875
     8  H    0.151876
 Sum of Mulliken charges =  -0.00000

 Dipole moment (field-independent basis, Debye):
    X=              0.0000    Y=             -0.0000    Z=             -0.0000  Tot=              0.0000
 Quadrupole moment (field-independent basis, Debye-Ang):
   XX=            -15.2056   YY=            -14.6810   ZZ=            -14.6811
   XY=              0.0000   XZ=              0.0000   YZ=              0.0000

 1\1\GINC-NODE33\FOpt\RTPSSTPSS\6-31G(d)\C2H6\RPEVERATI\07-Oct-2020\0\\
 #P Opt(MaxCyc=100) TPSSTPSS/6-31G* 5D 7F Integral=UltraFineGrid SCF=(N
 oSymm,XQC,MaxCyc=120) EmpiricalDispersion=GD3BJ IOp(1/33=1)\\TS search
  on BH76.\\0,1\C,-0.7675939324,-0.0000005197,-0.0000000304\C,0.7675939
 86,-0.0000000324,0.0000017913\H,1.1650617798,-0.4466564857,-0.92186048
 6\H,-1.1650599486,-1.0216505509,-0.0745751813\H,1.1650564418,-0.575027
 1792,0.8477504977\H,1.1650601426,1.0216837762,0.0741114203\H,-1.165061
 8998,0.4462354546,0.922065845\H,-1.1650565693,0.5754128913,-0.84748644

 Normal termination of Gaussian 16 at Wed Oct  7 13:03:47 2020.
