 Gaussian 16, Revision A.03,
 Gaussian 16:  ES64L-G16RevA.03 25-Dec-2016

 ----------------------------------------------------------------------
 #P Opt(MaxCyc=100) TPSSTPSS/6-31G* 5D 7F Integral=UltraFineGrid SCF=(N
 oSymm,XQC,MaxCyc=120) EmpiricalDispersion=GD3BJ IOp(1/33=1)
 ----------------------------------------------------------------------

 TstMul:  Mul=     1
 TstMul:  ICh=     0
 TstMul:  Mul=     1
 Symbolic Z-matrix:
 Charge =  0 Multiplicity = 1

 SCF Done:  E(RTPSS-TPSS) =  -500.119619399     A.U. after   11 cycles
 SCF Done:  E(RTPSS-TPSS) =  -500.119962980     A.U. after   10 cycles
 SCF Done:  E(RTPSS-TPSS) =  -500.119981604     A.U. after    7 cycles
 SCF Done:  E(RTPSS-TPSS) =  -500.119985646     A.U. after    8 cycles
 Optimization completed.
    -- Stationary point found.

                         Standard orientation:
 ---------------------------------------------------------------------
 Center     Atomic      Atomic             Coordinates (Angstroms)
 Number     Number       Type             X           Y           Z
 ---------------------------------------------------------------------
      1          6           0        0.000000    0.000000   -1.142610
      2         17           0        0.000000    0.000000    0.665202
      3          1           0        0.000000    1.037815   -1.484256
      4          1           0        0.898774   -0.518908   -1.484256
      5          1           0       -0.898774   -0.518908   -1.484256
 ---------------------------------------------------------------------

 The electronic state is 1-A1.
 Alpha  occ. eigenvalues -- -100.97309 -10.05378  -9.22630  -7.00792  -6.99584
 Alpha  occ. eigenvalues --   -6.99584  -0.78599  -0.62859  -0.41095  -0.41095
 Alpha  occ. eigenvalues --   -0.37448  -0.25876  -0.25876
 Alpha virt. eigenvalues --   -0.00043   0.09361   0.12763   0.12763   0.39517
 Alpha virt. eigenvalues --    0.42956   0.44883   0.44883   0.50930   0.50930
 Alpha virt. eigenvalues --    0.53654   0.81273   0.81273   0.85550   0.86288

 Mulliken charges:
               1
     1  C   -0.542409
     2  Cl  -0.090471
     3  H    0.210960
     4  H    0.210960
     5  H    0.210960
 Sum of Mulliken charges =   0.00000

 Dipole moment (field-independent basis, Debye):
    X=              0.0000    Y=             -0.0000    Z=             -2.1056  Tot=              2.1056
 Quadrupole moment (field-independent basis, Debye-Ang):
   XX=            -19.7220   YY=            -19.7220   ZZ=            -17.8835
   XY=             -0.0000   XZ=             -0.0000   YZ=              0.0000

 Normal termination of Gaussian 16 at Wed Oct  7 13:04:18 2020.
