 Gaussian 16, Revision A.03,

 ----------------------------------------------------------------------
 #P Opt(TS,MaxCyc=50,NoEigenTest,MaxStep=10,AddRedundant) TPSSTPSS/6-31
 G* 5D 7F Integral=UltraFineGrid SCF=(NoSymm,XQC,MaxCyc=120) EmpiricalD
 ispersion=GD3BJ IOp(1/33=1)
 ----------------------------------------------------------------------

 TstMul:  Mul=     2
 TstMul:  ICh=     0
 TstMul:  Mul=     2
 Symbolic Z-matrix:
 Charge =  0 Multiplicity = 2

 SCF Done:  E(UTPSS-TPSS) =  -118.446776149     A.U. after   16 cycles
 SCF Done:  E(UTPSS-TPSS) =  -118.448238951     A.U. after   15 cycles
 SCF Done:  E(UTPSS-TPSS) =  -118.447171839     A.U. after   14 cycles
 SCF Done:  E(UTPSS-TPSS) =  -118.446413711     A.U. after   14 cycles
 SCF Done:  E(UTPSS-TPSS) =  -118.445959185     A.U. after   14 cycles
 SCF Done:  E(UTPSS-TPSS) =  -118.445747186     A.U. after   14 cycles
 SCF Done:  E(UTPSS-TPSS) =  -118.445713980     A.U. after   13 cycles
 SCF Done:  E(UTPSS-TPSS) =  -118.445714350     A.U. after   11 cycles
 SCF Done:  E(UTPSS-TPSS) =  -118.445715035     A.U. after   10 cycles
 SCF Done:  E(UTPSS-TPSS) =  -118.445721054     A.U. after   12 cycles
 SCF Done:  E(UTPSS-TPSS) =  -118.445725231     A.U. after   11 cycles
 SCF Done:  E(UTPSS-TPSS) =  -118.445733942     A.U. after   12 cycles
 SCF Done:  E(UTPSS-TPSS) =  -118.445738030     A.U. after   11 cycles
 SCF Done:  E(UTPSS-TPSS) =  -118.445740517     A.U. after   11 cycles
 SCF Done:  E(UTPSS-TPSS) =  -118.445741228     A.U. after   10 cycles
 SCF Done:  E(UTPSS-TPSS) =  -118.445741534     A.U. after   10 cycles
 Optimization completed.
    -- Stationary point found.
 Normal termination of Gaussian 16 at Wed Oct  7 13:08:29 2020.
 Gaussian 16:  ES64L-G16RevA.03 25-Dec-2016

 ----------------------------------------------------------------------
 #P Freq TPSSTPSS/6-31G* 5D 7F Integral=UltraFineGrid SCF=(NoSymm,XQC,M
 axCyc=120) EmpiricalDispersion=GD3BJ IOp(1/33=1) Geom=Check Guess=Read
 ----------------------------------------------------------------------

 TstMul:  Mul=     2
 TstMul:  ICh=     0
 TstMul:  Mul=     2
 Structure from the checkpoint file:  "MN_17_c3h7ts_BH76_TPSSDBJ_631Gs.chk"
 Charge =  0 Multiplicity = 2

                         Standard orientation:
 ---------------------------------------------------------------------
 Center     Atomic      Atomic             Coordinates (Angstroms)
 Number     Number       Type             X           Y           Z
 ---------------------------------------------------------------------
      1          6           0       -0.551669    0.648985    0.000062
      2          6           0       -1.435653   -0.378941   -0.000052
      3          1           0       -0.272307    1.153248   -0.923408
      4          1           0       -0.271657    1.152513    0.923735
      5          1           0       -1.785062   -0.832814    0.926522
      6          1           0       -1.785711   -0.831998   -0.926782
      7          6           0        1.734305   -0.232677   -0.000070
      8          1           0        2.265057    0.716950   -0.016855
      9          1           0        1.679482   -0.805040   -0.921959
     10          1           0        1.688302   -0.777061    0.939109
 ---------------------------------------------------------------------

 SCF Done:  E(UTPSS-TPSS) =  -118.445741534     A.U. after    1 cycles

 The electronic state is 2-A.
 Alpha  occ. eigenvalues --   -9.99371  -9.99364  -9.98702  -0.69277  -0.62015
 Alpha  occ. eigenvalues --   -0.52826  -0.41698  -0.37159  -0.36308  -0.35786
 Alpha  occ. eigenvalues --   -0.31304  -0.25078  -0.15630
 Alpha virt. eigenvalues --    0.00846   0.08919   0.12460   0.12804   0.15367
 Alpha virt. eigenvalues --    0.16856   0.16887   0.23206   0.31115   0.44664
 Alpha virt. eigenvalues --    0.52030   0.52158   0.54012   0.58498   0.58725

  Beta  occ. eigenvalues --   -9.99596  -9.98183  -9.97980  -0.68850  -0.59103
  Beta  occ. eigenvalues --   -0.52458  -0.41548  -0.36753  -0.35664  -0.35343
  Beta  occ. eigenvalues --   -0.31199  -0.23104
  Beta virt. eigenvalues --   -0.06897   0.02715   0.09843   0.12936   0.13482
  Beta virt. eigenvalues --    0.15798   0.18023   0.18061   0.23361   0.31435
  Beta virt. eigenvalues --    0.45359   0.52743   0.54104   0.56655   0.59436

 Mulliken charges and spin densities:
               1          2
     1  C   -0.292944  -0.181774
     2  C   -0.311090   0.364823
     3  H    0.160497   0.010016
     4  H    0.160520   0.010016
     5  H    0.148516  -0.017534
     6  H    0.148514  -0.017535
     7  C   -0.505542   0.953161
     8  H    0.159709  -0.038824
     9  H    0.165993  -0.041175
    10  H    0.165827  -0.041175
 Sum of Mulliken charges =  -0.00000   1.00000

 Dipole moment (field-independent basis, Debye):
    X=              0.1771    Y=              0.0547    Z=              0.0003  Tot=              0.1854
 Quadrupole moment (field-independent basis, Debye-Ang):
   XX=            -21.9358   YY=            -20.3049   ZZ=            -19.2259
   XY=              1.4784   XZ=              0.0004   YZ=             -0.0002

  Exact polarizability:  51.111   7.614  32.243  -0.002  -0.004  31.392
 Approx polarizability:  86.765  18.296  50.667  -0.002  -0.004  43.894

 ******    1 imaginary frequencies (negative Signs) ******

                      1                      2                      3
                      A                      A                      A
 Frequencies --   -262.1111                79.7214               195.8518
 Red. masses --      8.7600                 1.0908                 2.4860
 Frc consts  --      0.3546                 0.0041                 0.0562
 IR Inten    --      0.7696                 0.0050                 0.8146

                      4                      5                      6
                      A                      A                      A
 Frequencies --    317.5075               417.6178               439.1121
 Red. masses --      1.0591                 1.1060                 1.0871
 Frc consts  --      0.0629                 0.1136                 0.1235
 IR Inten    --      0.1394                 1.7566                 0.7895

                      7                      8                      9
                      A                      A                      A
 Frequencies --    704.9243               814.6998               856.8410
 Red. masses --      1.0817                 1.0426                 1.4451
 Frc consts  --      0.3167                 0.4077                 0.6251
 IR Inten    --     10.5761                 0.6305                20.7102

                     10                     11                     12
                      A                      A                      A
 Frequencies --    926.8603              1024.4230              1240.5241
 Red. masses --      1.1385                 1.0154                 1.5018
 Frc consts  --      0.5762                 0.6279                 1.3616
 IR Inten    --     61.0181                 0.0495                 0.0464

                     13                     14                     15
                      A                      A                      A
 Frequencies --   1333.9142              1444.0431              1449.2292
 Red. masses --      1.5768                 1.0975                 1.0969
 Frc consts  --      1.6530                 1.3484                 1.3573
 IR Inten    --      0.6921                 1.0807                 0.9136

                     16                     17                     18
                      A                      A                      A
 Frequencies --   1486.5821              1619.3929              3101.1522
 Red. masses --      1.1133                 1.9782                 1.0112
 Frc consts  --      1.4495                 3.0565                 5.7295
 IR Inten    --      2.7678                 0.1480                 0.0912

                     19                     20                     21
                      A                      A                      A
 Frequencies --   3127.8133              3141.3366              3199.7901
 Red. masses --      1.0485                 1.0651                 1.1147
 Frc consts  --      6.0435                 6.1924                 6.7243
 IR Inten    --     20.8801                 1.3040                 1.2832

                     22                     23                     24
                      A                      A                      A
 Frequencies --   3227.2220              3257.9651              3268.9705
 Red. masses --      1.1179                 1.1158                 1.1162
 Frc consts  --      6.8598                 6.9783                 7.0276
 IR Inten    --     32.8663                13.8455                14.6356

 - Thermochemistry -
 -------------------
 Temperature   298.150 Kelvin.  Pressure   1.00000 Atm.
 Atom     1 has atomic number  6 and mass  12.00000

 Molecular mass:    43.05478 amu.
 Principal axes and moments of inertia in atomic units:
                           1         2         3
     Eigenvalues --    65.89706 311.06340 339.85069
           X            0.99982   0.01875   0.00001
           Y           -0.01875   0.99982  -0.00006
           Z           -0.00001   0.00006   1.00000
 This molecule is an asymmetric top.
 Rotational symmetry number  1.
 Rotational temperatures (Kelvin)      1.31438     0.27844     0.25486
 Rotational constants (GHZ):          27.38728     5.80184     5.31039
    1 imaginary frequencies ignored.
 Zero-point vibrational energy     219368.2 (Joules/Mol)
                                   52.43025 (Kcal/Mol)
 Warning -- explicit consideration of   5 degrees of freedom as
           vibrations may cause significant error
 Vibrational temperatures:    114.70   281.79   456.82   600.86   631.78
          (Kelvin)           1014.23  1172.17  1232.80  1333.55  1473.92
                             1784.84  1919.21  2077.66  2085.12  2138.86
                             2329.95  4461.87  4500.23  4519.68  4603.78
                             4643.25  4687.49  4703.32

 Zero-point correction=                           0.083553 (Hartree/Particle)
 Thermal correction to Energy=                    0.089067
 Thermal correction to Enthalpy=                  0.090011
 Thermal correction to Gibbs Free Energy=         0.055733
 Sum of electronic and zero-point Energies=           -118.362189
 Sum of electronic and thermal Energies=              -118.356675
 Sum of electronic and thermal Enthalpies=            -118.355731
 Sum of electronic and thermal Free Energies=         -118.390008

                     E (Thermal)             CV                S
                      KCal/Mol        Cal/Mol-Kelvin    Cal/Mol-Kelvin
 Total                   55.890             17.672             72.144
 Electronic               0.000              0.000              1.377
 Translational            0.889              2.981             37.206
 Rotational               0.889              2.981             23.459
 Vibrational             54.113             11.710             10.102
 Vibration     1          0.600              1.963              3.898
 Vibration     2          0.636              1.846              2.172
 Vibration     3          0.704              1.640              1.323
 Vibration     4          0.781              1.432              0.900
 Vibration     5          0.799              1.385              0.829

                           ! Non-Optimized Parameters !
 Normal termination of Gaussian 16 at Wed Oct  7 13:09:31 2020.
