 Gaussian 16, Revision A.03,
 Gaussian 16:  ES64L-G16RevA.03 25-Dec-2016

 ----------------------------------------------------------------------
 #P Opt(MaxCyc=100) TPSSTPSS/6-31G* 5D 7F Integral=UltraFineGrid SCF=(N
 oSymm,XQC,MaxCyc=120) EmpiricalDispersion=GD3BJ IOp(1/33=1)
 ----------------------------------------------------------------------

 TstMul:  Mul=     2
 TstMul:  ICh=     0
 TstMul:  Mul=     2
 Symbolic Z-matrix:
 Charge =  0 Multiplicity = 2

 SCF Done:  E(UTPSS-TPSS) =  -118.495162169     A.U. after   15 cycles
 SCF Done:  E(UTPSS-TPSS) =  -118.495614857     A.U. after   11 cycles
 SCF Done:  E(UTPSS-TPSS) =  -118.495620551     A.U. after    9 cycles
 SCF Done:  E(UTPSS-TPSS) =  -118.495621302     A.U. after    8 cycles
 Optimization completed.
    -- Stationary point found.

                         Standard orientation:
 ---------------------------------------------------------------------
 Center     Atomic      Atomic             Coordinates (Angstroms)
 Number     Number       Type             X           Y           Z
 ---------------------------------------------------------------------
      1          6           0        1.217577   -0.289080    0.000062
      2          6           0       -0.070043    0.579757   -0.000061
      3          6           0       -1.324649   -0.237647   -0.000014
      4          1           0        1.251481   -0.934161    0.888201
      5          1           0        1.251511   -0.934366   -0.887927
      6          1           0        2.115495    0.345557    0.000002
      7          1           0       -0.047272    1.235324   -0.884371
      8          1           0       -0.047331    1.235518    0.884102
      9          1           0       -1.730770   -0.632729    0.930474
     10          1           0       -1.730428   -0.633320   -0.930402
 ---------------------------------------------------------------------

 The electronic state is 2-A.
 Alpha  occ. eigenvalues --   -9.99347  -9.99329  -9.98465  -0.71747  -0.61719
 Alpha  occ. eigenvalues --   -0.52970  -0.41688  -0.38273  -0.35115  -0.33328
 Alpha  occ. eigenvalues --   -0.30824  -0.29538  -0.16359
 Alpha virt. eigenvalues --    0.09337   0.12404   0.12624   0.14438   0.16225
 Alpha virt. eigenvalues --    0.16381   0.20694   0.20709   0.25031   0.50182
 Alpha virt. eigenvalues --    0.51745   0.52541   0.53960   0.57069   0.59453

  Beta  occ. eigenvalues --   -9.99435  -9.98310  -9.97836  -0.70869  -0.60075
  Beta  occ. eigenvalues --   -0.51771  -0.41302  -0.37839  -0.34755  -0.32322
  Beta  occ. eigenvalues --   -0.30350  -0.29378
  Beta virt. eigenvalues --   -0.05684   0.09847   0.13018   0.14149   0.14718
  Beta virt. eigenvalues --    0.16631   0.16761   0.21299   0.21422   0.26448
  Beta virt. eigenvalues --    0.51065   0.52873   0.54567   0.55423   0.60019

 Mulliken charges and spin densities:
               1          2
     1  C   -0.455393   0.054308
     2  C   -0.286798  -0.082566
     3  C   -0.316307   1.096359
     4  H    0.153454  -0.001198
     5  H    0.153452  -0.001200
     6  H    0.149312   0.014326
     7  H    0.152100   0.012687
     8  H    0.152097   0.012663
     9  H    0.149044  -0.052689
    10  H    0.149040  -0.052688
 Sum of Mulliken charges =  -0.00000   1.00000

 Dipole moment (field-independent basis, Debye):
    X=              0.2500    Y=             -0.0228    Z=              0.0001  Tot=              0.2511
 Quadrupole moment (field-independent basis, Debye-Ang):
   XX=            -21.5408   YY=            -21.0210   ZZ=            -19.8612
   XY=              0.7554   XZ=             -0.0004   YZ=              0.0004

 Normal termination of Gaussian 16 at Wed Oct  7 13:05:01 2020.
