 Gaussian 16, Revision A.03,
 Gaussian 16:  ES64L-G16RevA.03 25-Dec-2016

 ----------------------------------------------------------------------
 #P Opt(MaxCyc=100) TPSSTPSS/6-31G* 5D 7F Integral=UltraFineGrid SCF=(N
 oSymm,XQC,MaxCyc=120) EmpiricalDispersion=GD3BJ IOp(1/33=1)
 ----------------------------------------------------------------------

 TstMul:  Mul=     1
 TstMul:  ICh=     0
 TstMul:  Mul=     1
 Symbolic Z-matrix:
 Charge =  0 Multiplicity = 1

 SCF Done:  E(RTPSS-TPSS) =  -78.6008481762     A.U. after    8 cycles
 SCF Done:  E(RTPSS-TPSS) =  -78.6010922395     A.U. after    8 cycles
 SCF Done:  E(RTPSS-TPSS) =  -78.6010948591     A.U. after    6 cycles
 Optimization completed.
    -- Stationary point found.

                         Standard orientation:
 ---------------------------------------------------------------------
 Center     Atomic      Atomic             Coordinates (Angstroms)
 Number     Number       Type             X           Y           Z
 ---------------------------------------------------------------------
      1          6           0        0.000000   -0.000000    0.668778
      2          6           0        0.000000   -0.000000   -0.668778
      3          1           0        0.000000    0.926171    1.243166
      4          1           0       -0.000000   -0.926171    1.243166
      5          1           0        0.000000    0.926171   -1.243166
      6          1           0       -0.000000   -0.926171   -1.243166
 ---------------------------------------------------------------------

 The electronic state is 1-AG.
 Alpha  occ. eigenvalues --   -9.99151  -9.99093  -0.69503  -0.53072  -0.42030
 Alpha  occ. eigenvalues --   -0.36954  -0.31594  -0.23266
 Alpha virt. eigenvalues --   -0.00824   0.11038   0.12494   0.14303   0.23195
 Alpha virt. eigenvalues --    0.31369   0.46817   0.53110   0.55683   0.61637
 Alpha virt. eigenvalues --    0.64815   0.67506   0.83265   0.85306   0.92043

 Mulliken charges:
               1
     1  C   -0.305552
     2  C   -0.305552
     3  H    0.152776
     4  H    0.152776
     5  H    0.152776
     6  H    0.152776
 Sum of Mulliken charges =   0.00000

 Dipole moment (field-independent basis, Debye):
    X=             -0.0000    Y=              0.0000    Z=             -0.0000  Tot=              0.0000
 Quadrupole moment (field-independent basis, Debye-Ang):
   XX=            -15.0179   YY=            -12.0706   ZZ=            -11.9241
   XY=              0.0000   XZ=             -0.0000   YZ=             -0.0000

 1\1\GINC-NODE34\FOpt\RTPSSTPSS\6-31G(d)\C2H4\RPEVERATI\07-Oct-2020\0\\
 #P Opt(MaxCyc=100) TPSSTPSS/6-31G* 5D 7F Integral=UltraFineGrid SCF=(N
 oSymm,XQC,MaxCyc=120) EmpiricalDispersion=GD3BJ IOp(1/33=1)\\TS search
  on BH76.\\0,1\C,0.,0.,0.6687778975\C,0.,0.,-0.6687778975\H,0.,0.92617
 07393,1.2431656954\H,0.,-0.9261707393,1.2431656954\H,0.,0.9261707393,-
 1.2431656954\H,0.,-0.9261707393,-1.2431656954\\Version=ES64L-G16RevA.0
 3\State=1-AG\HF=-78.6010949\RMSD=7.827e-10\RMSF=8.945e-05\Dipole=0.,0.
 ,0.\Quadrupole=-1.497154,0.6940911,0.8030628,0.,0.,0.\PG=D02H [C2"(C1.

 Normal termination of Gaussian 16 at Wed Oct  7 13:03:16 2020.
