 Gaussian 16, Revision A.03,
 Gaussian 16:  ES64L-G16RevA.03 25-Dec-2016

 ----------------------------------------------------------------------
 #P Opt(MaxCyc=100) TPSSTPSS/6-31G* 5D 7F Integral=UltraFineGrid SCF=(N
 oSymm,XQC,MaxCyc=120) EmpiricalDispersion=GD3BJ IOp(1/33=1)
 ----------------------------------------------------------------------

 TstMul:  Mul=     1
 TstMul:  ICh=     0
 TstMul:  Mul=     1
 Symbolic Z-matrix:
 Charge =  0 Multiplicity = 1

 SCF Done:  E(RTPSS-TPSS) =  -559.953612857     A.U. after   12 cycles
 SCF Done:  E(RTPSS-TPSS) =  -559.954571692     A.U. after   12 cycles
 SCF Done:  E(RTPSS-TPSS) =  -559.954689814     A.U. after    8 cycles
 Optimization completed.
    -- Stationary point found.

                         Standard orientation:
 ---------------------------------------------------------------------
 Center     Atomic      Atomic             Coordinates (Angstroms)
 Number     Number       Type             X           Y           Z
 ---------------------------------------------------------------------
      1          9           0        0.000000    0.000000   -1.095784
      2         17           0        0.000000    0.000000    0.580121
 ---------------------------------------------------------------------

 The electronic state is 1-SG.
 Alpha  occ. eigenvalues -- -101.06453 -24.46496  -9.31139  -7.10003  -7.07826
 Alpha  occ. eigenvalues --   -7.07826  -1.13542  -0.77119  -0.47884  -0.40462
 Alpha  occ. eigenvalues --   -0.40462  -0.28284  -0.28284
 Alpha virt. eigenvalues --   -0.15683   0.31571   0.37090   0.40997   0.40997
 Alpha virt. eigenvalues --    0.69927   0.69927   0.77951   0.77953   0.85276
 Alpha virt. eigenvalues --    1.19864   1.20657   1.20657   1.68572   1.78321

 Mulliken charges:
               1
     1  F   -0.280296
     2  Cl   0.280296
 Sum of Mulliken charges =  -0.00000

 Dipole moment (field-independent basis, Debye):
    X=              0.0000    Y=              0.0000    Z=              0.8972  Tot=              0.8972
 Quadrupole moment (field-independent basis, Debye-Ang):
   XX=            -17.1150   YY=            -17.1150   ZZ=            -15.3747
   XY=              0.0000   XZ=              0.0000   YZ=              0.0000

 Normal termination of Gaussian 16 at Wed Oct  7 13:05:08 2020.
