 Gaussian 16, Revision A.03,
 Gaussian 16:  ES64L-G16RevA.03 25-Dec-2016

 ----------------------------------------------------------------------
 #P Opt(MaxCyc=100) TPSSTPSS/6-31G* 5D 7F Integral=UltraFineGrid SCF=(N
 oSymm,XQC,MaxCyc=120) EmpiricalDispersion=GD3BJ IOp(1/33=1)
 ----------------------------------------------------------------------

 TstMul:  Mul=     2
 TstMul:  ICh=     0
 TstMul:  Mul=     2
 Symbolic Z-matrix:
 Charge =  0 Multiplicity = 2

 SCF Done:  E(UTPSS-TPSS) =  -39.8453754523     A.U. after   10 cycles
 SCF Done:  E(UTPSS-TPSS) =  -39.8455244464     A.U. after    7 cycles
 Optimization completed.
    -- Stationary point found.

                         Standard orientation:
 ---------------------------------------------------------------------
 Center     Atomic      Atomic             Coordinates (Angstroms)
 Number     Number       Type             X           Y           Z
 ---------------------------------------------------------------------
      1          6           0        0.000000    0.000000    0.000000
      2          1           0        0.000000    1.086286    0.000000
      3          1           0        0.940751   -0.543143    0.000000
      4          1           0       -0.940751   -0.543143    0.000000
 ---------------------------------------------------------------------

 The electronic state is 2-A2".
 Alpha  occ. eigenvalues --  -10.00041  -0.62817  -0.37383  -0.37383  -0.18964
 Alpha virt. eigenvalues --    0.09810   0.16557   0.16557   0.51404   0.53185
 Alpha virt. eigenvalues --    0.53185   0.67036   0.89111   0.89111   0.94030
 Alpha virt. eigenvalues --    1.61280   1.61280   1.98510   2.17176   2.17176
  Beta  occ. eigenvalues --   -9.98475  -0.59151  -0.36637  -0.36637
  Beta virt. eigenvalues --   -0.06652   0.12248   0.17849   0.17849   0.54671
  Beta virt. eigenvalues --    0.54671   0.60344   0.71215   0.93188   0.93188
  Beta virt. eigenvalues --    1.00488   1.71930   1.71930   2.11191   2.25609

 Mulliken charges and spin densities:
               1          2
     1  C   -0.502454   1.167958
     2  H    0.167485  -0.055986
     3  H    0.167485  -0.055986
     4  H    0.167485  -0.055986
 Sum of Mulliken charges =  -0.00000   1.00000

 Dipole moment (field-independent basis, Debye):
    X=              0.0000    Y=             -0.0000    Z=              0.0000  Tot=              0.0000
 Quadrupole moment (field-independent basis, Debye-Ang):
   XX=             -7.0021   YY=             -7.0021   ZZ=             -8.6292
   XY=             -0.0000   XZ=             -0.0000   YZ=             -0.0000

 Normal termination of Gaussian 16 at Wed Oct  7 13:04:13 2020.
