 Gaussian 16, Revision A.03,
 Gaussian 16:  ES64L-G16RevA.03 25-Dec-2016

 ----------------------------------------------------------------------
 #P Opt(MaxCyc=100) TPSSTPSS/6-31G* 5D 7F Integral=UltraFineGrid SCF=(N
 oSymm,XQC,MaxCyc=120) EmpiricalDispersion=GD3BJ IOp(1/33=1)
 ----------------------------------------------------------------------

 TstMul:  Mul=     1
 TstMul:  ICh=     0
 TstMul:  Mul=     1
 Symbolic Z-matrix:
 Charge =  0 Multiplicity = 1

 SCF Done:  E(RTPSS-TPSS) =  -115.725681866     A.U. after   12 cycles
 SCF Done:  E(RTPSS-TPSS) =  -115.726394724     A.U. after   11 cycles
 SCF Done:  E(RTPSS-TPSS) =  -115.726405241     A.U. after    8 cycles
 Optimization completed.
    -- Stationary point found.

                         Standard orientation:
 ---------------------------------------------------------------------
 Center     Atomic      Atomic             Coordinates (Angstroms)
 Number     Number       Type             X           Y           Z
 ---------------------------------------------------------------------
      1          6           0       -0.047357    0.665463    0.000000
      2          8           0       -0.047357   -0.761954    0.000000
      3          1           0       -1.099212    0.971957    0.000000
      4          1           0        0.885928   -1.048998    0.000000
      5          1           0        0.438139    1.089948    0.896470
      6          1           0        0.438139    1.089948   -0.896470
 ---------------------------------------------------------------------

 The electronic state is 1-A'.
 Alpha  occ. eigenvalues --  -18.88997 -10.03202  -0.93672  -0.62383  -0.45168
 Alpha  occ. eigenvalues --   -0.38768  -0.37239  -0.28474  -0.21406
 Alpha virt. eigenvalues --    0.06089   0.11780   0.14908   0.15932   0.17952
 Alpha virt. eigenvalues --    0.50921   0.55660   0.56602   0.76290   0.83291
 Alpha virt. eigenvalues --    0.84901   0.89699   0.94941   0.97643   1.01104

 Mulliken charges:
               1
     1  C   -0.219363
     2  O   -0.611112
     3  H    0.167615
     4  H    0.392598
     5  H    0.135131
     6  H    0.135131
 Sum of Mulliken charges =  -0.00000

 Dipole moment (field-independent basis, Debye):
    X=              1.4075    Y=              0.8837    Z=             -0.0000  Tot=              1.6619
 Quadrupole moment (field-independent basis, Debye-Ang):
   XX=            -11.5190   YY=            -13.0035   ZZ=            -13.5938
   XY=             -2.0912   XZ=              0.0000   YZ=              0.0000

 Normal termination of Gaussian 16 at Wed Oct  7 13:04:44 2020.
