 Gaussian 16, Revision A.03,
 Gaussian 16:  ES64L-G16RevA.03 25-Dec-2016

 ----------------------------------------------------------------------
 #P Opt(MaxCyc=100) TPSSTPSS/6-31G* 5D 7F Integral=UltraFineGrid SCF=(N
 oSymm,XQC,MaxCyc=120) EmpiricalDispersion=GD3BJ IOp(1/33=1)
 ----------------------------------------------------------------------

 TstMul:  Mul=     1
 TstMul:  ICh=     0
 TstMul:  Mul=     1
 Symbolic Z-matrix:
 Charge =  0 Multiplicity = 1

 SCF Done:  E(RTPSS-TPSS) =  -40.5236312826     A.U. after    8 cycles
 SCF Done:  E(RTPSS-TPSS) =  -40.5238143252     A.U. after    5 cycles
 Optimization completed.
    -- Stationary point found.

                         Standard orientation:
 ---------------------------------------------------------------------
 Center     Atomic      Atomic             Coordinates (Angstroms)
 Number     Number       Type             X           Y           Z
 ---------------------------------------------------------------------
      1          6           0        0.000000    0.000000    0.000000
      2          1           0        0.632829    0.632829    0.632829
      3          1           0       -0.632829   -0.632829    0.632829
      4          1           0        0.632829   -0.632829   -0.632829
      5          1           0       -0.632829    0.632829   -0.632829
 ---------------------------------------------------------------------

 The electronic state is 1-A1.
 Alpha  occ. eigenvalues --   -9.97584  -0.63723  -0.34885  -0.34885  -0.34885
 Alpha virt. eigenvalues --    0.10747   0.16109   0.16109   0.16109   0.52165
 Alpha virt. eigenvalues --    0.52165   0.52165   0.88351   0.88351   0.88351
 Alpha virt. eigenvalues --    0.94350   1.09693   1.62991   1.62991   2.24784

 Mulliken charges:
               1
     1  C   -0.648556
     2  H    0.162139
     3  H    0.162139
     4  H    0.162139
     5  H    0.162139
 Sum of Mulliken charges =   0.00000

 Dipole moment (field-independent basis, Debye):
    X=              0.0000    Y=             -0.0000    Z=              0.0000  Tot=              0.0000
 Quadrupole moment (field-independent basis, Debye-Ang):
   XX=             -8.2409   YY=             -8.2409   ZZ=             -8.2409
   XY=             -0.0000   XZ=             -0.0000   YZ=             -0.0000

 1\1\GINC-NODE20\FOpt\RTPSSTPSS\6-31G(d)\C1H4\RPEVERATI\07-Oct-2020\0\\
 #P Opt(MaxCyc=100) TPSSTPSS/6-31G* 5D 7F Integral=UltraFineGrid SCF=(N
 oSymm,XQC,MaxCyc=120) EmpiricalDispersion=GD3BJ IOp(1/33=1)\\TS search
  on BH76.\\0,1\C,0.,0.,0.\H,0.6328291015,0.6328291015,0.6328291015\H,-
 0.6328291015,-0.6328291015,0.6328291015\H,0.6328291015,-0.6328291015,-
 0.6328291015\H,-0.6328291015,0.6328291015,-0.6328291015\\Version=ES64L
 -G16RevA.03\State=1-A1\HF=-40.5238143\RMSD=9.177e-09\RMSF=4.924e-05\Di
 pole=0.,0.,0.\Quadrupole=0.,0.,0.,0.,0.,0.\PG=TD [O(C1),4C3(H1)]\\@

 Normal termination of Gaussian 16 at Wed Oct  7 13:04:31 2020.
