 Gaussian 16, Revision A.03,

 ----------------------------------------------------------------------
 #P Opt(TS,MaxCyc=50,NoEigenTest,MaxStep=10,AddRedundant) TPSSTPSS/6-31
 G* 5D 7F Integral=UltraFineGrid SCF=(NoSymm,XQC,MaxCyc=120) EmpiricalD
 ispersion=GD3BJ IOp(1/33=1)
 ----------------------------------------------------------------------

 TstMul:  Mul=     1
 TstMul:  ICh=    -1
 TstMul:  Mul=     1
 Symbolic Z-matrix:
 Charge = -1 Multiplicity = 1

 SCF Done:  E(RTPSS-TPSS) =  -960.387540581     A.U. after   13 cycles
 SCF Done:  E(RTPSS-TPSS) =  -960.387821074     A.U. after   11 cycles
 SCF Done:  E(RTPSS-TPSS) =  -960.387907831     A.U. after   12 cycles
 SCF Done:  E(RTPSS-TPSS) =  -960.387927955     A.U. after   10 cycles
 SCF Done:  E(RTPSS-TPSS) =  -960.387906651     A.U. after   12 cycles
 SCF Done:  E(RTPSS-TPSS) =  -960.387908231     A.U. after    8 cycles
 Optimization completed.
    -- Stationary point found.
 Normal termination of Gaussian 16 at Wed Oct  7 13:05:59 2020.
 Gaussian 16:  ES64L-G16RevA.03 25-Dec-2016

 ----------------------------------------------------------------------
 #P Freq TPSSTPSS/6-31G* 5D 7F Integral=UltraFineGrid SCF=(NoSymm,XQC,M
 axCyc=120) EmpiricalDispersion=GD3BJ IOp(1/33=1) Geom=Check Guess=Read
 ----------------------------------------------------------------------

 TstMul:  Mul=     1
 TstMul:  ICh=    -1
 TstMul:  Mul=     1
 Structure from the checkpoint file:  "MN_28_clch3clts_BH76_TPSSDBJ_631Gs.chk"
 Charge = -1 Multiplicity = 1

                         Standard orientation:
 ---------------------------------------------------------------------
 Center     Atomic      Atomic             Coordinates (Angstroms)
 Number     Number       Type             X           Y           Z
 ---------------------------------------------------------------------
      1         17           0        2.356206   -0.000002   -0.000021
      2          6           0       -0.000109    0.000003    0.000061
      3          1           0        0.000039    0.930609   -0.541850
      4          1           0       -0.000049   -0.934685   -0.534773
      5          1           0        0.000038    0.004091    1.076953
      6         17           0       -2.356169    0.000000   -0.000020
 ---------------------------------------------------------------------

 SCF Done:  E(RTPSS-TPSS) =  -960.387908231     A.U. after    1 cycles

 The electronic state is 1-A.
 Alpha  occ. eigenvalues -- -100.74180-100.74175  -9.89450  -8.99150  -8.99146
 Alpha  occ. eigenvalues --   -6.76885  -6.76880  -6.76378  -6.76378  -6.76374
 Alpha  occ. eigenvalues --   -6.76374  -0.52847  -0.49693  -0.45136  -0.24416
 Alpha  occ. eigenvalues --   -0.24413  -0.12320  -0.05529  -0.05529  -0.04861
 Alpha  occ. eigenvalues --   -0.04861  -0.04722
 Alpha virt. eigenvalues --    0.11483   0.24434   0.31033   0.31035   0.56157
 Alpha virt. eigenvalues --    0.56444   0.62315   0.62318   0.62925   0.62925
 Alpha virt. eigenvalues --    0.67285   0.71180   0.71180   0.72521   0.85491

 Mulliken charges:
               1
     1  Cl  -0.630176
     2  C   -0.405241
     3  H    0.221810
     4  H    0.221811
     5  H    0.221794
     6  Cl  -0.629998
 Sum of Mulliken charges =  -1.00000

 Dipole moment (field-independent basis, Debye):
    X=             -0.0018    Y=              0.0000    Z=              0.0002  Tot=              0.0018
 Quadrupole moment (field-independent basis, Debye-Ang):
   XX=            -71.7862   YY=            -35.4394   ZZ=            -35.4400
   XY=              0.0001   XZ=              0.0001   YZ=              0.0000

  Exact polarizability:  99.233   0.000  22.531   0.000  -0.000  22.532
 Approx polarizability: 201.416   0.000  31.337   0.000  -0.000  31.336

 ******    1 imaginary frequencies (negative Signs) ******

                      1                      2                      3
                      A                      A                      A
 Frequencies --   -273.2021               195.1805               195.1952
 Red. masses --     13.2679                 4.3495                 4.3496
 Frc consts  --      0.5835                 0.0976                 0.0976
 IR Inten    --    816.9738                13.2112                13.2095

                      4                      5                      6
                      A                      A                      A
 Frequencies --    210.7422               913.7879               913.9218
 Red. masses --     34.9634                 1.0122                 1.0122
 Frc consts  --      0.9149                 0.4980                 0.4981
 IR Inten    --      0.0000                 0.0000                 0.0000

                      7                      8                      9
                      A                      A                      A
 Frequencies --    996.5600              1428.9720              1429.0669
 Red. masses --      1.0437                 1.1046                 1.1046
 Frc consts  --      0.6107                 1.3289                 1.3291
 IR Inten    --     62.4469                 3.8154                 3.8179

                     10                     11                     12
                      A                      A                      A
 Frequencies --   3198.9396              3390.6685              3390.7735
 Red. masses --      1.0078                 1.1229                 1.1229
 Frc consts  --      6.0764                 7.6061                 7.6065
 IR Inten    --      0.0000                 0.0099                 0.0105

 - Thermochemistry -
 -------------------
 Temperature   298.150 Kelvin.  Pressure   1.00000 Atm.
 Atom     1 has atomic number 17 and mass  34.96885

 Molecular mass:    84.96118 amu.
 Principal axes and moments of inertia in atomic units:
                           1         2         3
     Eigenvalues --    12.521311392.789141392.79013
           X            1.00000   0.00000   0.00000
           Y           -0.00000   1.00000  -0.00001
           Z           -0.00000   0.00001   1.00000
 This molecule is an asymmetric top.
 Rotational symmetry number  1.
 Rotational temperatures (Kelvin)      6.91732     0.06219     0.06219
 Rotational constants (GHZ):         144.13363     1.29577     1.29577
    1 imaginary frequencies ignored.
 Zero-point vibrational energy      97279.2 (Joules/Mol)
                                   23.25028 (Kcal/Mol)
 Warning -- explicit consideration of   3 degrees of freedom as
           vibrations may cause significant error
 Vibrational temperatures:    280.82   280.84   303.21  1314.74  1314.93
          (Kelvin)           1433.83  2055.97  2056.11  4602.56  4878.42
                             4878.57

 Zero-point correction=                           0.037052 (Hartree/Particle)
 Thermal correction to Energy=                    0.041718
 Thermal correction to Enthalpy=                  0.042662
 Thermal correction to Gibbs Free Energy=         0.009063
 Sum of electronic and zero-point Energies=           -960.350857
 Sum of electronic and thermal Energies=              -960.346190
 Sum of electronic and thermal Enthalpies=            -960.345246
 Sum of electronic and thermal Free Energies=         -960.378846

                     E (Thermal)             CV                S
                      KCal/Mol        Cal/Mol-Kelvin    Cal/Mol-Kelvin
 Total                   26.178             13.015             70.716
 Electronic               0.000              0.000              0.000
 Translational            0.889              2.981             39.232
 Rotational               0.889              2.981             24.700
 Vibrational             24.401              7.053              6.784
 Vibration     1          0.636              1.847              2.178
 Vibration     2          0.636              1.847              2.178
 Vibration     3          0.643              1.824              2.037

 Optimization completed.
    -- Stationary point found.
 Normal termination of Gaussian 16 at Wed Oct  7 13:06:33 2020.
