 Gaussian 16, Revision A.03,
 Gaussian 16:  ES64L-G16RevA.03 25-Dec-2016

 ----------------------------------------------------------------------
 #P Opt(MaxCyc=100) TPSSTPSS/6-31G* 5D 7F Integral=UltraFineGrid SCF=(N
 oSymm,XQC,MaxCyc=120) EmpiricalDispersion=GD3BJ IOp(1/33=1)
 ----------------------------------------------------------------------

 TstMul:  Mul=     1
 TstMul:  ICh=     0
 TstMul:  Mul=     1
 Symbolic Z-matrix:
 Charge =  0 Multiplicity = 1

 SCF Done:  E(RTPSS-TPSS) =  -139.745654159     A.U. after   11 cycles
 SCF Done:  E(RTPSS-TPSS) =  -139.746045108     A.U. after   10 cycles
 SCF Done:  E(RTPSS-TPSS) =  -139.746050697     A.U. after    7 cycles
 Optimization completed.
    -- Stationary point found.

                         Standard orientation:
 ---------------------------------------------------------------------
 Center     Atomic      Atomic             Coordinates (Angstroms)
 Number     Number       Type             X           Y           Z
 ---------------------------------------------------------------------
      1          6           0        0.000000    0.000000   -0.635325
      2          9           0        0.000000    0.000000    0.756922
      3          1           0        0.000000    1.036678   -1.000117
      4          1           0        0.897790   -0.518339   -1.000117
      5          1           0       -0.897790   -0.518339   -1.000117
 ---------------------------------------------------------------------

 The electronic state is 1-A1.
 Alpha  occ. eigenvalues --  -24.38516 -10.06086  -1.08814  -0.63968  -0.41995
 Alpha  occ. eigenvalues --   -0.41895  -0.41895  -0.27718  -0.27718
 Alpha virt. eigenvalues --    0.08958   0.10858   0.14979   0.14979   0.49225
 Alpha virt. eigenvalues --    0.53903   0.53903   0.82996   0.82996   0.86648
 Alpha virt. eigenvalues --    0.96570   1.22040   1.22602   1.22602   1.48851

 Mulliken charges:
               1
     1  C   -0.112954
     2  F   -0.329178
     3  H    0.147377
     4  H    0.147377
     5  H    0.147377
 Sum of Mulliken charges =  -0.00000

 Dipole moment (field-independent basis, Debye):
    X=             -0.0000    Y=              0.0000    Z=             -1.6811  Tot=              1.6811
 Quadrupole moment (field-independent basis, Debye-Ang):
   XX=            -11.6938   YY=            -11.6938   ZZ=            -11.9284
   XY=              0.0000   XZ=              0.0000   YZ=             -0.0000

 Normal termination of Gaussian 16 at Wed Oct  7 13:04:22 2020.
