 Gaussian 16, Revision A.03,
 Gaussian 16:  ES64L-G16RevA.03 25-Dec-2016

 ----------------------------------------------------------------------
 #P Opt(MaxCyc=100) TPSSTPSS/6-31G* 5D 7F Integral=UltraFineGrid SCF=(N
 oSymm,XQC,MaxCyc=120) EmpiricalDispersion=GD3BJ IOp(1/33=1)
 ----------------------------------------------------------------------

 TstMul:  Mul=     1
 TstMul:  ICh=    -1
 TstMul:  Mul=     1
 Symbolic Z-matrix:
 Charge = -1 Multiplicity = 1

 SCF Done:  E(RTPSS-TPSS) =  -960.391833151     A.U. after   13 cycles
 SCF Done:  E(RTPSS-TPSS) =  -960.392721906     A.U. after   11 cycles
 SCF Done:  E(RTPSS-TPSS) =  -960.393190071     A.U. after   12 cycles
 SCF Done:  E(RTPSS-TPSS) =  -960.393553964     A.U. after   11 cycles
 SCF Done:  E(RTPSS-TPSS) =  -960.393653147     A.U. after   10 cycles
 SCF Done:  E(RTPSS-TPSS) =  -960.393668709     A.U. after   10 cycles
 SCF Done:  E(RTPSS-TPSS) =  -960.393670748     A.U. after    8 cycles
 SCF Done:  E(RTPSS-TPSS) =  -960.393671238     A.U. after    6 cycles
 Optimization completed.
    -- Stationary point found.

                         Standard orientation:
 ---------------------------------------------------------------------
 Center     Atomic      Atomic             Coordinates (Angstroms)
 Number     Number       Type             X           Y           Z
 ---------------------------------------------------------------------
      1         17           0        0.000000    0.000000   -2.341812
      2          6           0        0.000000    0.000000   -0.431358
      3          1           0       -0.000000    1.040818   -0.120549
      4          1           0       -0.901375   -0.520409   -0.120549
      5          1           0        0.901375   -0.520409   -0.120549
      6         17           0        0.000000    0.000000    2.515329
 ---------------------------------------------------------------------

 The electronic state is 1-A1.
 Alpha  occ. eigenvalues -- -100.82057-100.67657  -9.89038  -9.07330  -8.92435
 Alpha  occ. eigenvalues --   -6.85324  -6.84381  -6.84381  -6.69939  -6.69805
 Alpha  occ. eigenvalues --   -6.69805  -0.61518  -0.47146  -0.42332  -0.24295
 Alpha  occ. eigenvalues --   -0.24295  -0.20498  -0.11525  -0.11525   0.00197
 Alpha  occ. eigenvalues --    0.00651   0.00651
 Alpha virt. eigenvalues --    0.13811   0.25736   0.29911   0.29911   0.52210
 Alpha virt. eigenvalues --    0.56943   0.58167   0.58167   0.60652   0.65125
 Alpha virt. eigenvalues --    0.65125   0.70383   0.70652   0.70652   0.90763

 Mulliken charges:
               1
     1  Cl  -0.287215
     2  C   -0.478353
     3  H    0.216071
     4  H    0.216071
     5  H    0.216071
     6  Cl  -0.882647
 Sum of Mulliken charges =  -1.00000

 Dipole moment (field-independent basis, Debye):
    X=             -0.0000    Y=             -0.0000    Z=             -6.5215  Tot=              6.5215
 Quadrupole moment (field-independent basis, Debye-Ang):
   XX=            -35.4983   YY=            -35.4983   ZZ=            -72.8039
   XY=             -0.0000   XZ=              0.0000   YZ=              0.0000

 Normal termination of Gaussian 16 at Wed Oct  7 13:06:03 2020.
