 Gaussian 16, Revision A.03,
 Gaussian 16:  ES64L-G16RevA.03 25-Dec-2016

 ----------------------------------------------------------------------
 #P TPSSTPSS/6-31G* 5D 7F Integral=UltraFineGrid SCF=(NoSymm,XQC,MaxCyc
 =120) EmpiricalDispersion=GD3BJ IOp(1/33=1)
 ----------------------------------------------------------------------

 TstMul:  Mul=     1
 TstMul:  ICh=    -1
 TstMul:  Mul=     1
 Symbolic Z-matrix:
 Charge = -1 Multiplicity = 1

                         Standard orientation:
 ---------------------------------------------------------------------
 Center     Atomic      Atomic             Coordinates (Angstroms)
 Number     Number       Type             X           Y           Z
 ---------------------------------------------------------------------
      1          9           0        0.000000    0.000000    0.000000
 ---------------------------------------------------------------------

 SCF Done:  E(RTPSS-TPSS) =  -99.7518563785     A.U. after    8 cycles

 The electronic state is 1-A1G.
 Alpha  occ. eigenvalues --  -23.80029  -0.46308   0.23261   0.23261   0.23261
 Alpha virt. eigenvalues --    1.63068   1.63068   1.63068   1.80131   2.33159
 Alpha virt. eigenvalues --    2.33159   2.33159   2.33159   2.33159

 Mulliken charges:
               1
     1  F   -1.000000
 Sum of Mulliken charges =  -1.00000

 Dipole moment (field-independent basis, Debye):
    X=             -0.0000    Y=             -0.0000    Z=             -0.0000  Tot=              0.0000
 Quadrupole moment (field-independent basis, Debye-Ang):
   XX=             -5.7603   YY=             -5.7603   ZZ=             -5.7603
   XY=             -0.0000   XZ=             -0.0000   YZ=              0.0000

 1\1\GINC-NODE01\SP\RTPSSTPSS\6-31G(d)\F1(1-)\RPEVERATI\08-Oct-2020\0\\
 #P TPSSTPSS/6-31G* 5D 7F Integral=UltraFineGrid SCF=(NoSymm,XQC,MaxCyc
 =120) EmpiricalDispersion=GD3BJ IOp(1/33=1)\\TS search on BH76.\\-1,1\
 F,0,0.,0.,0.\\Version=ES64L-G16RevA.03\State=1-A1G\HF=-99.7518564\RMSD
 =3.137e-11\Dipole=0.,0.,0.\Quadrupole=0.,0.,0.,0.,0.,0.\PG=OH [O(F1)]\
 \@

 Normal termination of Gaussian 16 at Thu Oct  8 19:05:05 2020.
