 Gaussian 16, Revision A.03,
 Gaussian 16:  ES64L-G16RevA.03 25-Dec-2016

 ----------------------------------------------------------------------
 #P Opt(MaxCyc=100) TPSSTPSS/6-31G* 5D 7F Integral=UltraFineGrid SCF=(N
 oSymm,XQC,MaxCyc=120) EmpiricalDispersion=GD3BJ IOp(1/33=1)
 ----------------------------------------------------------------------

 TstMul:  Mul=     1
 TstMul:  ICh=     0
 TstMul:  Mul=     1
 Symbolic Z-matrix:
 Charge =  0 Multiplicity = 1

 SCF Done:  E(RTPSS-TPSS) =  -199.516972315     A.U. after    9 cycles
 SCF Done:  E(RTPSS-TPSS) =  -199.517517493     A.U. after    9 cycles
 SCF Done:  E(RTPSS-TPSS) =  -199.517527088     A.U. after    6 cycles
 Optimization completed.
    -- Stationary point found.

                         Standard orientation:
 ---------------------------------------------------------------------
 Center     Atomic      Atomic             Coordinates (Angstroms)
 Number     Number       Type             X           Y           Z
 ---------------------------------------------------------------------
      1          9           0        0.000000    0.000000    0.711689
      2          9           0        0.000000    0.000000   -0.711689
 ---------------------------------------------------------------------

 The electronic state is 1-SGG.
 Alpha  occ. eigenvalues --  -24.51139 -24.51131  -1.23910  -1.01668  -0.53641
 Alpha  occ. eigenvalues --   -0.44703  -0.44703  -0.32550  -0.32550
 Alpha virt. eigenvalues --   -0.18171   1.02790   1.02790   1.05652   1.18579
 Alpha virt. eigenvalues --    1.20949   1.20949   1.23001   1.50028   1.50028
 Alpha virt. eigenvalues --    1.66006   1.66006   1.69635   1.88718   1.88718

 Mulliken charges:
               1
     1  F   -0.000000
     2  F   -0.000000
 Sum of Mulliken charges =  -0.00000

 Dipole moment (field-independent basis, Debye):
    X=             -0.0000    Y=             -0.0000    Z=             -0.0000  Tot=              0.0000
 Quadrupole moment (field-independent basis, Debye-Ang):
   XX=             -9.2798   YY=             -9.2798   ZZ=             -8.2482
   XY=             -0.0000   XZ=              0.0000   YZ=              0.0000

 Normal termination of Gaussian 16 at Wed Oct  7 13:05:28 2020.
