 Gaussian 16, Revision A.03,
 Gaussian 16:  ES64L-G16RevA.03 25-Dec-2016

 ----------------------------------------------------------------------
 #P Opt(MaxCyc=100) TPSSTPSS/6-31G* 5D 7F Integral=UltraFineGrid SCF=(N
 oSymm,XQC,MaxCyc=120) EmpiricalDispersion=GD3BJ IOp(1/33=1)
 ----------------------------------------------------------------------

 TstMul:  Mul=     1
 TstMul:  ICh=    -1
 TstMul:  Mul=     1
 Symbolic Z-matrix:
 Charge = -1 Multiplicity = 1

 SCF Done:  E(RTPSS-TPSS) =  -599.936462815     A.U. after   18 cycles
 SCF Done:  E(RTPSS-TPSS) =  -599.940885190     A.U. after   13 cycles
 SCF Done:  E(RTPSS-TPSS) =  -599.947576679     A.U. after   14 cycles
 SCF Done:  E(RTPSS-TPSS) =  -599.947047445     A.U. after   14 cycles
 SCF Done:  E(RTPSS-TPSS) =  -599.957335180     A.U. after   12 cycles
 SCF Done:  E(RTPSS-TPSS) =  -599.902607242     A.U. after   13 cycles
 SCF Done:  E(RTPSS-TPSS) =  -599.989859392     A.U. after   12 cycles
 SCF Done:  E(RTPSS-TPSS) =  -600.004535642     A.U. after   13 cycles
 SCF Done:  E(RTPSS-TPSS) =  -599.989828290     A.U. after   14 cycles
 SCF Done:  E(RTPSS-TPSS) =  -599.973808698     A.U. after   12 cycles
 SCF Done:  E(RTPSS-TPSS) =  -599.961963950     A.U. after   11 cycles
 SCF Done:  E(RTPSS-TPSS) =  -600.007765498     A.U. after   10 cycles
 SCF Done:  E(RTPSS-TPSS) =  -600.011430006     A.U. after   11 cycles
 SCF Done:  E(RTPSS-TPSS) =  -600.012154558     A.U. after   10 cycles
 SCF Done:  E(RTPSS-TPSS) =  -600.012986064     A.U. after   10 cycles
 SCF Done:  E(RTPSS-TPSS) =  -600.013251899     A.U. after   10 cycles
 SCF Done:  E(RTPSS-TPSS) =  -600.013339164     A.U. after    9 cycles
 SCF Done:  E(RTPSS-TPSS) =  -600.013344317     A.U. after    8 cycles
 Optimization completed.
    -- Stationary point found.

                         Standard orientation:
 ---------------------------------------------------------------------
 Center     Atomic      Atomic             Coordinates (Angstroms)
 Number     Number       Type             X           Y           Z
 ---------------------------------------------------------------------
      1         17           0        0.000000    0.000000    1.963803
      2          6           0        0.000000    0.000000   -1.203100
      3          1           0        0.000000    1.030593   -0.835973
      4          1           0        0.892520   -0.515297   -0.835973
      5          1           0       -0.892520   -0.515297   -0.835973
      6          9           0        0.000000    0.000000   -2.628681
 ---------------------------------------------------------------------

 The electronic state is 1-A1.
 Alpha  occ. eigenvalues -- -100.65536 -24.23237  -9.89152  -8.90273  -6.67726
 Alpha  occ. eigenvalues --   -6.67675  -6.67675  -0.92785  -0.47363  -0.40310
 Alpha  occ. eigenvalues --   -0.25838  -0.25273  -0.25273  -0.12497  -0.12497
 Alpha  occ. eigenvalues --    0.02344   0.02618   0.02618
 Alpha virt. eigenvalues --    0.24703   0.27942   0.31881   0.31881   0.59826
 Alpha virt. eigenvalues --    0.67649   0.68206   0.68206   0.71970   0.71970
 Alpha virt. eigenvalues --    0.80513   1.00712   1.00712   1.09462   1.11270

 Mulliken charges:
               1
     1  Cl  -0.947088
     2  C   -0.126711
     3  H    0.154403
     4  H    0.154403
     5  H    0.154403
     6  F   -0.389410
 Sum of Mulliken charges =  -1.00000

 Dipole moment (field-independent basis, Debye):
    X=             -0.0000    Y=             -0.0000    Z=             -6.2913  Tot=              6.2913
 Quadrupole moment (field-independent basis, Debye-Ang):
   XX=            -27.2955   YY=            -27.2955   ZZ=            -53.7981
   XY=             -0.0000   XZ=              0.0000   YZ=              0.0000

 Normal termination of Gaussian 16 at Wed Oct  7 13:09:17 2020.
