 Gaussian 16, Revision A.03,
 Gaussian 16:  ES64L-G16RevA.03 25-Dec-2016

 ----------------------------------------------------------------------
 #P Opt(MaxCyc=100) TPSSTPSS/6-31G* 5D 7F Integral=UltraFineGrid SCF=(N
 oSymm,XQC,MaxCyc=120) EmpiricalDispersion=GD3BJ IOp(1/33=1)
 ----------------------------------------------------------------------

 TstMul:  Mul=     1
 TstMul:  ICh=    -1
 TstMul:  Mul=     1
 Symbolic Z-matrix:
 Charge = -1 Multiplicity = 1

 SCF Done:  E(RTPSS-TPSS) =  -239.546865628     A.U. after   16 cycles
 SCF Done:  E(RTPSS-TPSS) =  -239.548686035     A.U. after   11 cycles
 SCF Done:  E(RTPSS-TPSS) =  -239.550183450     A.U. after   11 cycles
 SCF Done:  E(RTPSS-TPSS) =  -239.550728669     A.U. after   12 cycles
 SCF Done:  E(RTPSS-TPSS) =  -239.550835185     A.U. after    9 cycles
 SCF Done:  E(RTPSS-TPSS) =  -239.550866448     A.U. after    8 cycles
 Optimization completed.
    -- Stationary point found.

                         Standard orientation:
 ---------------------------------------------------------------------
 Center     Atomic      Atomic             Coordinates (Angstroms)
 Number     Number       Type             X           Y           Z
 ---------------------------------------------------------------------
      1          9           0        0.000000    0.000000   -1.804653
      2          6           0        0.000000    0.000000   -0.318397
      3          1           0       -0.000000    1.028876    0.037423
      4          1           0       -0.891033   -0.514438    0.037423
      5          1           0        0.891033   -0.514438    0.037423
      6          9           0        0.000000    0.000000    2.004444
 ---------------------------------------------------------------------

 The electronic state is 1-A1.
 Alpha  occ. eigenvalues --  -24.15865 -23.92643  -9.82734  -0.84384  -0.58251
 Alpha  occ. eigenvalues --   -0.40788  -0.18408  -0.18408  -0.18055  -0.06428
 Alpha  occ. eigenvalues --   -0.06428   0.11146   0.12147   0.12147
 Alpha virt. eigenvalues --    0.30288   0.32538   0.37196   0.37196   0.74874
 Alpha virt. eigenvalues --    0.74874   0.75922   1.06657   1.06657   1.10785
 Alpha virt. eigenvalues --    1.22862   1.41569   1.41569   1.42626   1.55922

 Mulliken charges:
               1
     1  F   -0.440001
     2  C   -0.165170
     3  H    0.123415
     4  H    0.123415
     5  H    0.123415
     6  F   -0.765075
 Sum of Mulliken charges =  -1.00000

 Dipole moment (field-independent basis, Debye):
    X=             -0.0000    Y=             -0.0000    Z=             -4.4175  Tot=              4.4175
 Quadrupole moment (field-independent basis, Debye-Ang):
   XX=            -17.8812   YY=            -17.8812   ZZ=            -39.1447
   XY=             -0.0000   XZ=              0.0000   YZ=              0.0000

 Normal termination of Gaussian 16 at Wed Oct  7 13:06:28 2020.
