 Gaussian 16, Revision A.03,
 Gaussian 16:  ES64L-G16RevA.03 25-Dec-2016

 ----------------------------------------------------------------------
 #P TPSSTPSS/6-31G* 5D 7F Integral=UltraFineGrid SCF=(NoSymm,XQC,MaxCyc
 =120) EmpiricalDispersion=GD3BJ IOp(1/33=1) Stable=Opt
 ----------------------------------------------------------------------

 TstMul:  Mul=     2
 TstMul:  ICh=     0
 TstMul:  Mul=     2
 Symbolic Z-matrix:
 Charge =  0 Multiplicity = 2

                         Standard orientation:
 ---------------------------------------------------------------------
 Center     Atomic      Atomic             Coordinates (Angstroms)
 Number     Number       Type             X           Y           Z
 ---------------------------------------------------------------------
      1         17           0        0.000000    0.000000    0.000000
 ---------------------------------------------------------------------

 SCF Done:  E(UTPSS-TPSS) =  -460.135482967     A.U. after   10 cycles

 Unable to determine electronic state:  an orbital has unidentified symmetry.
 Alpha  occ. eigenvalues -- -101.03564  -9.28532  -7.07656  -7.05259  -7.05259
 Alpha  occ. eigenvalues --   -0.78345  -0.37002  -0.31228  -0.31228
 Alpha virt. eigenvalues --    0.31571   0.38229   0.41332   0.41332   0.73356
 Alpha virt. eigenvalues --    0.74784   0.74784   0.79751   0.79751
  Beta  occ. eigenvalues -- -101.02944  -9.27991  -7.05946  -7.04923  -7.04923
  Beta  occ. eigenvalues --   -0.73600  -0.29714  -0.29714
  Beta virt. eigenvalues --   -0.27618   0.33685   0.42278   0.42278   0.42493
  Beta virt. eigenvalues --    0.81124   0.81124   0.81525   0.81525   0.82634

 Mulliken charges and spin densities:
               1          2
     1  Cl  -0.000000   1.000000
 Sum of Mulliken charges =  -0.00000   1.00000

 Dipole moment (field-independent basis, Debye):
    X=              0.0000    Y=             -0.0000    Z=             -0.0000  Tot=              0.0000
 Quadrupole moment (field-independent basis, Debye-Ang):
   XX=            -12.9212   YY=            -12.9212   ZZ=            -10.7169
   XY=             -0.0000   XZ=             -0.0000   YZ=             -0.0027

 Normal termination of Gaussian 16 at Wed Oct  7 13:04:47 2020.
