 Gaussian 16, Revision A.03,
 Gaussian 16:  ES64L-G16RevA.03 25-Dec-2016

 ----------------------------------------------------------------------
 #P Opt(MaxCyc=100) TPSSTPSS/6-31G* 5D 7F Integral=UltraFineGrid SCF=(N
 oSymm,XQC,MaxCyc=120) EmpiricalDispersion=GD3BJ IOp(1/33=1)
 ----------------------------------------------------------------------

 TstMul:  Mul=     1
 TstMul:  ICh=    -1
 TstMul:  Mul=     1
 Symbolic Z-matrix:
 Charge = -1 Multiplicity = 1

 SCF Done:  E(RTPSS-TPSS) =  -600.012843769     A.U. after   12 cycles
 SCF Done:  E(RTPSS-TPSS) =  -600.013271895     A.U. after   11 cycles
 SCF Done:  E(RTPSS-TPSS) =  -600.013300449     A.U. after    9 cycles
 SCF Done:  E(RTPSS-TPSS) =  -600.013338921     A.U. after   10 cycles
 SCF Done:  E(RTPSS-TPSS) =  -600.013344116     A.U. after    8 cycles
 SCF Done:  E(RTPSS-TPSS) =  -600.013344311     A.U. after    6 cycles
 Optimization completed.
    -- Stationary point found.

                         Standard orientation:
 ---------------------------------------------------------------------
 Center     Atomic      Atomic             Coordinates (Angstroms)
 Number     Number       Type             X           Y           Z
 ---------------------------------------------------------------------
      1          9           0        0.000000    0.000000   -2.628668
      2          6           0        0.000000    0.000000   -1.203292
      3          1           0       -0.000000    1.030550   -0.836159
      4          1           0       -0.892482   -0.515275   -0.836159
      5          1           0        0.892482   -0.515275   -0.836159
      6         17           0        0.000000    0.000000    1.963897
 ---------------------------------------------------------------------

 The electronic state is 1-A1.
 Alpha  occ. eigenvalues -- -100.65535 -24.23240  -9.89151  -8.90272  -6.67725
 Alpha  occ. eigenvalues --   -6.67674  -6.67674  -0.92794  -0.47364  -0.40309
 Alpha  occ. eigenvalues --   -0.25844  -0.25278  -0.25278  -0.12498  -0.12498
 Alpha  occ. eigenvalues --    0.02346   0.02619   0.02619
 Alpha virt. eigenvalues --    0.24708   0.27947   0.31882   0.31882   0.59827
 Alpha virt. eigenvalues --    0.67649   0.68205   0.68205   0.71970   0.71970
 Alpha virt. eigenvalues --    0.80511   1.00713   1.00713   1.09466   1.11273

 Mulliken charges:
               1
     1  F   -0.389342
     2  C   -0.126674
     3  H    0.154380
     4  H    0.154380
     5  H    0.154380
     6  Cl  -0.947123
 Sum of Mulliken charges =  -1.00000

 Dipole moment (field-independent basis, Debye):
    X=             -0.0000    Y=             -0.0000    Z=             -6.2931  Tot=              6.2931
 Quadrupole moment (field-independent basis, Debye-Ang):
   XX=            -27.2956   YY=            -27.2956   ZZ=            -53.7973
   XY=             -0.0000   XZ=              0.0000   YZ=              0.0000

 Normal termination of Gaussian 16 at Wed Oct  7 13:07:01 2020.
