 Gaussian 16, Revision A.03,

 ----------------------------------------------------------------------
 #P Opt(TS,MaxCyc=50,NoEigenTest,MaxStep=10,AddRedundant) TPSSTPSS/6-31
 G* 5D 7F Integral=UltraFineGrid SCF=(NoSymm,XQC,MaxCyc=120) EmpiricalD
 ispersion=GD3BJ IOp(1/33=1)
 ----------------------------------------------------------------------

 TstMul:  Mul=     1
 TstMul:  ICh=    -1
 TstMul:  Mul=     1
 Symbolic Z-matrix:
 Charge = -1 Multiplicity = 1

 SCF Done:  E(RTPSS-TPSS) =  -239.542158094     A.U. after   12 cycles
 SCF Done:  E(RTPSS-TPSS) =  -239.542354640     A.U. after    9 cycles
 SCF Done:  E(RTPSS-TPSS) =  -239.542372228     A.U. after    8 cycles
 SCF Done:  E(RTPSS-TPSS) =  -239.542372551     A.U. after    9 cycles
 SCF Done:  E(RTPSS-TPSS) =  -239.542373039     A.U. after    7 cycles
 Optimization completed.
    -- Stationary point found.
 Normal termination of Gaussian 16 at Wed Oct  7 13:06:03 2020.
 Gaussian 16:  ES64L-G16RevA.03 25-Dec-2016

 ----------------------------------------------------------------------
 #P Freq TPSSTPSS/6-31G* 5D 7F Integral=UltraFineGrid SCF=(NoSymm,XQC,M
 axCyc=120) EmpiricalDispersion=GD3BJ IOp(1/33=1) Geom=Check Guess=Read
 ----------------------------------------------------------------------

 TstMul:  Mul=     1
 TstMul:  ICh=    -1
 TstMul:  Mul=     1
 Structure from the checkpoint file:  "MN_39_fch3fts_BH76_TPSSDBJ_631Gs.chk"
 Charge = -1 Multiplicity = 1

                         Standard orientation:
 ---------------------------------------------------------------------
 Center     Atomic      Atomic             Coordinates (Angstroms)
 Number     Number       Type             X           Y           Z
 ---------------------------------------------------------------------
      1          9           0        1.824319    0.000009   -0.000010
      2          6           0        0.000037   -0.000013    0.000012
      3          1           0       -0.000017   -0.350878    1.021357
      4          1           0        0.000042    1.059918   -0.206819
      5          1           0       -0.000059   -0.709182   -0.814436
      6          9           0       -1.824340    0.000015   -0.000009
 ---------------------------------------------------------------------

 SCF Done:  E(RTPSS-TPSS) =  -239.542373039     A.U. after    1 cycles

 The electronic state is 1-A.
 Alpha  occ. eigenvalues --  -24.02329 -24.02325  -9.81875  -0.68890  -0.68296
 Alpha  occ. eigenvalues --   -0.38936  -0.16933  -0.16931  -0.05992   0.03115
 Alpha  occ. eigenvalues --    0.03115   0.04017   0.04504   0.04504
 Alpha virt. eigenvalues --    0.28952   0.30878   0.36625   0.36626   0.76964
 Alpha virt. eigenvalues --    0.76967   0.83844   1.01853   1.10682   1.10685
 Alpha virt. eigenvalues --    1.31867   1.39743   1.39743   1.53115   1.53431

 Mulliken charges:
               1
     1  F   -0.621507
     2  C   -0.117418
     3  H    0.120155
     4  H    0.120164
     5  H    0.120157
     6  F   -0.621551
 Sum of Mulliken charges =  -1.00000

 Dipole moment (field-independent basis, Debye):
    X=              0.0006    Y=             -0.0001    Z=              0.0001  Tot=              0.0006
 Quadrupole moment (field-independent basis, Debye-Ang):
   XX=            -37.7021   YY=            -17.6192   ZZ=            -17.6195
   XY=              0.0001   XZ=              0.0000   YZ=             -0.0000

  Exact polarizability:  31.096   0.000  14.949   0.000   0.000  14.948
 Approx polarizability:  65.379   0.001  19.699   0.000   0.000  19.698

 ******    1 imaginary frequencies (negative Signs) ******

                      1                      2                      3
                      A                      A                      A
 Frequencies --   -429.3656               318.9512               319.0075
 Red. masses --      9.6444                 4.3666                 4.3668
 Frc consts  --      1.0476                 0.2617                 0.2618
 IR Inten    --    608.9414                14.7947                14.7960

                      4                      5                      6
                      A                      A                      A
 Frequencies --    354.2348               962.9509               963.0375
 Red. masses --     18.9706                 1.0211                 1.0211
 Frc consts  --      1.4025                 0.5579                 0.5580
 IR Inten    --      0.0000                 0.0000                 0.0000

                      7                      8                      9
                      A                      A                      A
 Frequencies --   1080.6347              1389.8736              1390.0726
 Red. masses --      1.0973                 1.1216                 1.1215
 Frc consts  --      0.7550                 1.2765                 1.2768
 IR Inten    --      0.8743                 0.8436                 0.8431

                     10                     11                     12
                      A                      A                      A
 Frequencies --   3107.4001              3287.8607              3288.0214
 Red. masses --      1.0079                 1.1279                 1.1279
 Frc consts  --      5.7341                 7.1834                 7.1841
 IR Inten    --      0.0000                64.4632                64.4592

 - Thermochemistry -
 -------------------
 Temperature   298.150 Kelvin.  Pressure   1.00000 Atm.
 Atom     1 has atomic number  9 and mass  18.99840

 Molecular mass:    53.02028 amu.
 Principal axes and moments of inertia in atomic units:
                           1         2         3
     Eigenvalues --    12.59196 457.89311 457.89394
           X            1.00000   0.00000   0.00000
           Y           -0.00000   1.00000   0.00001
           Z           -0.00000  -0.00001   1.00000
 This molecule is an asymmetric top.
 Rotational symmetry number  1.
 Rotational temperatures (Kelvin)      6.87851     0.18916     0.18916
 Rotational constants (GHZ):         143.32489     3.94140     3.94140
    1 imaginary frequencies ignored.
 Zero-point vibrational energy      98464.9 (Joules/Mol)
                                   23.53367 (Kcal/Mol)
 Warning -- explicit consideration of   3 degrees of freedom as
           vibrations may cause significant error
 Vibrational temperatures:    458.90   458.98   509.66  1385.47  1385.60
          (Kelvin)           1554.79  1999.72  2000.00  4470.86  4730.50
                             4730.73

 Zero-point correction=                           0.037503 (Hartree/Particle)
 Thermal correction to Energy=                    0.041614
 Thermal correction to Enthalpy=                  0.042558
 Thermal correction to Gibbs Free Energy=         0.011949
 Sum of electronic and zero-point Energies=           -239.504870
 Sum of electronic and thermal Energies=              -239.500759
 Sum of electronic and thermal Enthalpies=            -239.499815
 Sum of electronic and thermal Free Energies=         -239.530424

                     E (Thermal)             CV                S
                      KCal/Mol        Cal/Mol-Kelvin    Cal/Mol-Kelvin
 Total                   26.113             12.158             64.421
 Electronic               0.000              0.000              0.000
 Translational            0.889              2.981             37.827
 Rotational               0.889              2.981             22.495
 Vibrational             24.336              6.196              4.100
 Vibration     1          0.705              1.637              1.315
 Vibration     2          0.705              1.637              1.315
 Vibration     3          0.730              1.567              1.147

 Optimization completed.
    -- Stationary point found.
 Normal termination of Gaussian 16 at Wed Oct  7 13:06:30 2020.
