 Gaussian 16, Revision A.03,
 Gaussian 16:  ES64L-G16RevA.03 25-Dec-2016

 ----------------------------------------------------------------------
 #P Opt(MaxCyc=100) TPSSTPSS/6-31G* 5D 7F Integral=UltraFineGrid SCF=(N
 oSymm,XQC,MaxCyc=120) EmpiricalDispersion=GD3BJ IOp(1/33=1)
 ----------------------------------------------------------------------

 TstMul:  Mul=     1
 TstMul:  ICh=     0
 TstMul:  Mul=     1
 Symbolic Z-matrix:
 Charge =  0 Multiplicity = 1

 SCF Done:  E(RTPSS-TPSS) =  -399.387807128     A.U. after    9 cycles
 SCF Done:  E(RTPSS-TPSS) =  -399.387989162     A.U. after   10 cycles
 SCF Done:  E(RTPSS-TPSS) =  -399.387990086     A.U. after    6 cycles
 Optimization completed.
    -- Stationary point found.

                         Standard orientation:
 ---------------------------------------------------------------------
 Center     Atomic      Atomic             Coordinates (Angstroms)
 Number     Number       Type             X           Y           Z
 ---------------------------------------------------------------------
      1         16           0        0.000000   -0.000000    0.103686
      2          1           0       -0.000000    0.975222   -0.829490
      3          1           0       -0.000000   -0.975222   -0.829490
 ---------------------------------------------------------------------

 The electronic state is 1-A1.
 Alpha  occ. eigenvalues --  -88.35653  -7.74321  -5.72490  -5.72112  -5.71239
 Alpha  occ. eigenvalues --   -0.69423  -0.41710  -0.33454  -0.22848
 Alpha virt. eigenvalues --   -0.00352   0.03878   0.30537   0.31953   0.33561
 Alpha virt. eigenvalues --    0.35360   0.65708   0.69450   0.72014   0.72793
 Alpha virt. eigenvalues --    0.73597   1.00042   1.18308

 Mulliken charges:
               1
     1  S   -0.243956
     2  H    0.121978
     3  H    0.121978
 Sum of Mulliken charges =  -0.00000

 Dipole moment (field-independent basis, Debye):
    X=             -0.0000    Y=              0.0000    Z=             -1.4369  Tot=              1.4369
 Quadrupole moment (field-independent basis, Debye-Ang):
   XX=            -16.5576   YY=            -12.1791   ZZ=            -13.5048
   XY=              0.0000   XZ=              0.0000   YZ=             -0.0000

 1\1\GINC-NODE20\FOpt\RTPSSTPSS\6-31G(d)\H2S1\RPEVERATI\07-Oct-2020\0\\
 #P Opt(MaxCyc=100) TPSSTPSS/6-31G* 5D 7F Integral=UltraFineGrid SCF=(N
 oSymm,XQC,MaxCyc=120) EmpiricalDispersion=GD3BJ IOp(1/33=1)\\TS search
  on BH76.\\0,1\S,0.,0.,0.1095202316\H,0.,0.975221992,-0.8236564552\H,0
 .,-0.975221992,-0.8236564552\\Version=ES64L-G16RevA.03\State=1-A1\HF=-
 399.3879901\RMSD=1.243e-09\RMSF=2.358e-05\Dipole=0.,0.,-0.5653197\Quad
 rupole=-1.8416856,1.413668,0.4280176,0.,0.,0.\PG=C02V [C2(S1),SGV(H2)]
 \\@

 Normal termination of Gaussian 16 at Wed Oct  7 13:05:45 2020.
