 Gaussian 16, Revision A.03,
 Gaussian 16:  ES64L-G16RevA.03 25-Dec-2016

 ----------------------------------------------------------------------
 #P Opt(MaxCyc=100) TPSSTPSS/6-31G* 5D 7F Integral=UltraFineGrid SCF=(N
 oSymm,XQC,MaxCyc=120) EmpiricalDispersion=GD3BJ IOp(1/33=1)
 ----------------------------------------------------------------------

 TstMul:  Mul=     1
 TstMul:  ICh=     0
 TstMul:  Mul=     1
 Symbolic Z-matrix:
 Charge =  0 Multiplicity = 1

 SCF Done:  E(RTPSS-TPSS) =  -93.4358895829     A.U. after   11 cycles
 SCF Done:  E(RTPSS-TPSS) =  -93.4362915153     A.U. after   10 cycles
 SCF Done:  E(RTPSS-TPSS) =  -93.4362922319     A.U. after    7 cycles
 Optimization completed.
    -- Stationary point found.

                         Standard orientation:
 ---------------------------------------------------------------------
 Center     Atomic      Atomic             Coordinates (Angstroms)
 Number     Number       Type             X           Y           Z
 ---------------------------------------------------------------------
      1          6           0        0.000000    0.000000   -0.506279
      2          7           0        0.000000    0.000000    0.659573
      3          1           0        0.000000    0.000000   -1.579339
 ---------------------------------------------------------------------

 The electronic state is 1-SG.
 Alpha  occ. eigenvalues --  -14.14128 -10.04989  -0.84781  -0.56278  -0.33055
 Alpha  occ. eigenvalues --   -0.31758  -0.31758
 Alpha virt. eigenvalues --   -0.01069  -0.01069   0.06632   0.26688   0.50597
 Alpha virt. eigenvalues --    0.50597   0.62932   0.67273   0.74814   0.74814
 Alpha virt. eigenvalues --    0.80073   1.07286   1.45351   1.47105   1.47105

 Mulliken charges:
               1
     1  C    0.035266
     2  N   -0.295482
     3  H    0.260215
 Sum of Mulliken charges =  -0.00000

 Dipole moment (field-independent basis, Debye):
    X=              0.0000    Y=             -0.0000    Z=             -2.8484  Tot=              2.8484
 Quadrupole moment (field-independent basis, Debye-Ang):
   XX=            -11.3729   YY=            -11.3729   ZZ=             -9.5009
   XY=              0.0000   XZ=              0.0000   YZ=              0.0000

 Normal termination of Gaussian 16 at Wed Oct  7 13:06:29 2020.
