 Gaussian 16, Revision A.03,

 ----------------------------------------------------------------------
 #P Opt(TS,MaxCyc=50,NoEigenTest,MaxStep=10,AddRedundant) TPSSTPSS/6-31
 G* 5D 7F Integral=UltraFineGrid SCF=(NoSymm,XQC,MaxCyc=120) EmpiricalD
 ispersion=GD3BJ IOp(1/33=1)
 ----------------------------------------------------------------------

 TstMul:  Mul=     1
 TstMul:  ICh=     0
 TstMul:  Mul=     1
 Symbolic Z-matrix:
 Charge =  0 Multiplicity = 1

 SCF Done:  E(RTPSS-TPSS) =  -93.3564508872     A.U. after   13 cycles
 SCF Done:  E(RTPSS-TPSS) =  -93.3566052374     A.U. after    9 cycles
 SCF Done:  E(RTPSS-TPSS) =  -93.3566134819     A.U. after    9 cycles
 SCF Done:  E(RTPSS-TPSS) =  -93.3566077490     A.U. after    8 cycles
 Optimization completed.
    -- Stationary point found.
 Normal termination of Gaussian 16 at Wed Oct  7 13:06:19 2020.
 Gaussian 16:  ES64L-G16RevA.03 25-Dec-2016

 ----------------------------------------------------------------------
 #P Freq TPSSTPSS/6-31G* 5D 7F Integral=UltraFineGrid SCF=(NoSymm,XQC,M
 axCyc=120) EmpiricalDispersion=GD3BJ IOp(1/33=1) Geom=Check Guess=Read
 ----------------------------------------------------------------------

 TstMul:  Mul=     1
 TstMul:  ICh=     0
 TstMul:  Mul=     1
 Structure from the checkpoint file:  "MN_49_hcnts_BH76_TPSSDBJ_631Gs.chk"
 Charge =  0 Multiplicity = 1

                         Standard orientation:
 ---------------------------------------------------------------------
 Center     Atomic      Atomic             Coordinates (Angstroms)
 Number     Number       Type             X           Y           Z
 ---------------------------------------------------------------------
      1          6           0        0.080411    0.631483    0.000000
      2          7           0        0.080411   -0.571480    0.000000
      3          1           0       -1.045337    0.211458    0.000000
 ---------------------------------------------------------------------

 SCF Done:  E(RTPSS-TPSS) =  -93.3566077490     A.U. after    1 cycles

 The electronic state is 1-A'.
 Alpha  occ. eigenvalues --  -14.18817 -10.05888  -0.91712  -0.48114  -0.40897
 Alpha  occ. eigenvalues --   -0.34175  -0.28938
 Alpha virt. eigenvalues --   -0.08897  -0.02512   0.03739   0.30211   0.51086
 Alpha virt. eigenvalues --    0.51403   0.55138   0.64445   0.67847   0.71554
 Alpha virt. eigenvalues --    0.74950   0.79699   1.22453   1.43483   1.44839

 Mulliken charges:
               1
     1  C   -0.043979
     2  N   -0.227422
     3  H    0.271401
 Sum of Mulliken charges =  -0.00000

 Dipole moment (field-independent basis, Debye):
    X=             -1.2182    Y=              0.0736    Z=              0.0000  Tot=              1.2205
 Quadrupole moment (field-independent basis, Debye-Ang):
   XX=             -9.4523   YY=            -14.1294   ZZ=            -11.7988
   XY=             -0.2439   XZ=              0.0000   YZ=              0.0000

  Exact polarizability:  13.171   0.331  17.822   0.000  -0.000   8.672
 Approx polarizability:  22.394   1.686  43.034  -0.000   0.000  13.316

 ******    1 imaginary frequencies (negative Signs) ******

                      1                      2                      3
                     A'                     A'                     A'
 Frequencies --  -1115.8898              1989.9194              2556.6264
 Red. masses --      1.1638                11.9034                 1.0583
 Frc consts  --      0.8538                27.7710                 4.0757
 IR Inten    --     61.7757                10.3436                92.7251

 - Thermochemistry -
 -------------------
 Temperature   298.150 Kelvin.  Pressure   1.00000 Atm.
 Atom     1 has atomic number  6 and mass  12.00000

 Molecular mass:    27.01090 amu.
 Principal axes and moments of inertia in atomic units:
                           1         2         3
     Eigenvalues --     4.36385  33.60186  37.96571
           X           -0.03040   0.99954   0.00000
           Y            0.99954   0.03040   0.00000
           Z            0.00000   0.00000   1.00000
 This molecule is an asymmetric top.
 Rotational symmetry number  1.
 Rotational temperatures (Kelvin)     19.84806     2.57765     2.28137
 Rotational constants (GHZ):         413.56643    53.70956    47.53608
    1 imaginary frequencies ignored.
 Zero-point vibrational energy      27194.4 (Joules/Mol)
                                    6.49961 (Kcal/Mol)
 Vibrational temperatures:   2863.05  3678.42
          (Kelvin)

 Zero-point correction=                           0.010358 (Hartree/Particle)
 Thermal correction to Energy=                    0.013191
 Thermal correction to Enthalpy=                  0.014135
 Thermal correction to Gibbs Free Energy=        -0.010662
 Sum of electronic and zero-point Energies=            -93.346250
 Sum of electronic and thermal Energies=               -93.343417
 Sum of electronic and thermal Enthalpies=             -93.342473
 Sum of electronic and thermal Free Energies=          -93.367270

                     E (Thermal)             CV                S
                      KCal/Mol        Cal/Mol-Kelvin    Cal/Mol-Kelvin
 Total                    8.277              5.975             52.190
 Electronic               0.000              0.000              0.000
 Translational            0.889              2.981             35.816
 Rotational               0.889              2.981             16.372
 Vibrational              6.500              0.014              0.002

 Optimization completed.
    -- Stationary point found.
 Normal termination of Gaussian 16 at Wed Oct  7 13:06:41 2020.
