 Gaussian 16, Revision A.03,

 ----------------------------------------------------------------------
 #P Opt(TS,MaxCyc=50,NoEigenTest,MaxStep=10,AddRedundant) TPSSTPSS/6-31
 G* 5D 7F Integral=UltraFineGrid SCF=(NoSymm,XQC,MaxCyc=120) EmpiricalD
 ispersion=GD3BJ IOp(1/33=1)
 ----------------------------------------------------------------------

 TstMul:  Mul=     2
 TstMul:  ICh=     0
 TstMul:  Mul=     2
 Symbolic Z-matrix:
 Charge =  0 Multiplicity = 2

 SCF Done:  E(UTPSS-TPSS) =  -461.279141017     A.U. after   10 cycles
 SCF Done:  E(UTPSS-TPSS) =  -461.279458100     A.U. after    9 cycles
 SCF Done:  E(UTPSS-TPSS) =  -461.279490064     A.U. after    7 cycles
 Optimization completed.
    -- Stationary point found.
 Normal termination of Gaussian 16 at Wed Oct  7 13:05:46 2020.
 Gaussian 16:  ES64L-G16RevA.03 25-Dec-2016

 ----------------------------------------------------------------------
 #P Freq TPSSTPSS/6-31G* 5D 7F Integral=UltraFineGrid SCF=(NoSymm,XQC,M
 axCyc=120) EmpiricalDispersion=GD3BJ IOp(1/33=1) Geom=Check Guess=Read
 ----------------------------------------------------------------------

 TstMul:  Mul=     2
 TstMul:  ICh=     0
 TstMul:  Mul=     2
 Structure from the checkpoint file:  "MN_45_hclhts_BH76_TPSSDBJ_631Gs.chk"
 Charge =  0 Multiplicity = 2

                         Standard orientation:
 ---------------------------------------------------------------------
 Center     Atomic      Atomic             Coordinates (Angstroms)
 Number     Number       Type             X           Y           Z
 ---------------------------------------------------------------------
      1          1           0        0.000000    0.000000    1.513440
      2         17           0        0.000000    0.000000    0.000000
      3          1           0        0.000000    0.000000   -1.513440
 ---------------------------------------------------------------------

 SCF Done:  E(UTPSS-TPSS) =  -461.279490064     A.U. after    1 cycles

 The electronic state is 2-SGG.
 Alpha  occ. eigenvalues -- -101.01046  -9.26226  -7.04488  -7.03144  -7.03144
 Alpha  occ. eigenvalues --   -0.78633  -0.49497  -0.30334  -0.30334  -0.23819
 Alpha virt. eigenvalues --   -0.01147   0.37741   0.41296   0.41296   0.59847
 Alpha virt. eigenvalues --    0.61929   0.69124   0.78083   0.78083   0.80937
 Alpha virt. eigenvalues --    0.80938   1.03284
  Beta  occ. eigenvalues -- -101.01036  -9.26180  -7.04638  -7.03057  -7.03057
  Beta  occ. eigenvalues --   -0.78130  -0.45606  -0.29766  -0.29766
  Beta virt. eigenvalues --   -0.12923   0.05301   0.37822   0.41792   0.41792
  Beta virt. eigenvalues --    0.60568   0.67156   0.77702   0.77702   0.80497
  Beta virt. eigenvalues --    0.81965   0.81966   1.09763

 Mulliken charges and spin densities:
               1          2
     1  H    0.123862   0.562569
     2  Cl  -0.247724  -0.125138
     3  H    0.123862   0.562569
 Sum of Mulliken charges =   0.00000   1.00000

 Dipole moment (field-independent basis, Debye):
    X=              0.0000    Y=              0.0000    Z=             -0.0000  Tot=              0.0000
 Quadrupole moment (field-independent basis, Debye-Ang):
   XX=            -15.1686   YY=            -15.1686   ZZ=            -11.7548
   XY=             -0.0000   XZ=             -0.0000   YZ=              0.0000

  Exact polarizability:   6.260  -0.000   6.260   0.000  -0.000  37.938
 Approx polarizability:   8.399  -0.000   8.399  -0.000  -0.000  69.882

 ******    1 imaginary frequencies (negative Signs) ******

                      1                      2                      3
                     SGU                    PIU                    PIU
 Frequencies --  -1272.1958               278.9419               278.9419
 Red. masses --      1.0641                 1.0641                 1.0641
 Frc consts  --      1.0148                 0.0488                 0.0488
 IR Inten    --    944.5049                41.1873                41.1873

                      4
                     SGG
 Frequencies --   1745.4007
 Red. masses --      1.0078
 Frc consts  --      1.8089
 IR Inten    --      0.0000

 - Thermochemistry -
 -------------------
 Temperature   298.150 Kelvin.  Pressure   1.00000 Atm.
 Atom     1 has atomic number  1 and mass   1.00783

 Molecular mass:    36.98450 amu.
 Principal axes and moments of inertia in atomic units:
                           1         2         3
     Eigenvalues --     0.00000  16.48707  16.48707
           X           -0.00000   1.00000   0.00000
           Y            0.00000   0.00000   1.00000
           Z            1.00000   0.00000   0.00000
 This molecule is a prolate symmetric top.
 Rotational symmetry number  2.
 Rotational temperature (Kelvin)      5.25345
 Rotational constant (GHZ):         109.464032
    1 imaginary frequencies ignored.
 Zero-point vibrational energy      13776.7 (Joules/Mol)
                                    3.29271 (Kcal/Mol)
 Warning -- explicit consideration of   2 degrees of freedom as
           vibrations may cause significant error
 Vibrational temperatures:    401.34   401.34  2511.24
          (Kelvin)

 Zero-point correction=                           0.005247 (Hartree/Particle)
 Thermal correction to Energy=                    0.008504
 Thermal correction to Enthalpy=                  0.009448
 Thermal correction to Gibbs Free Energy=        -0.014238
 Sum of electronic and zero-point Energies=           -461.274243
 Sum of electronic and thermal Energies=              -461.270986
 Sum of electronic and thermal Enthalpies=            -461.270042
 Sum of electronic and thermal Free Energies=         -461.293728

                     E (Thermal)             CV                S
                      KCal/Mol        Cal/Mol-Kelvin    Cal/Mol-Kelvin
 Total                    5.336              8.424             49.850
 Electronic               0.000              0.000              1.377
 Translational            0.889              2.981             36.753
 Rotational               0.592              1.987              8.636
 Vibrational              3.855              3.456              3.084
 Vibration     1          0.679              1.712              1.540
 Vibration     2          0.679              1.712              1.540

 Optimization completed.
    -- Stationary point found.
 Normal termination of Gaussian 16 at Wed Oct  7 13:06:09 2020.
