 Gaussian 16, Revision A.03,
 Gaussian 16:  ES64L-G16RevA.03 25-Dec-2016

 ----------------------------------------------------------------------
 #P Opt(MaxCyc=100) TPSSTPSS/6-31G* 5D 7F Integral=UltraFineGrid SCF=(N
 oSymm,XQC,MaxCyc=120) EmpiricalDispersion=GD3BJ IOp(1/33=1)
 ----------------------------------------------------------------------

 TstMul:  Mul=     1
 TstMul:  ICh=     0
 TstMul:  Mul=     1
 Symbolic Z-matrix:
 Charge =  0 Multiplicity = 1

 SCF Done:  E(RTPSS-TPSS) =  -76.4090567948     A.U. after   10 cycles
 SCF Done:  E(RTPSS-TPSS) =  -76.4096898574     A.U. after    7 cycles
 SCF Done:  E(RTPSS-TPSS) =  -76.4097096293     A.U. after    6 cycles
 Optimization completed.
    -- Stationary point found.

                         Standard orientation:
 ---------------------------------------------------------------------
 Center     Atomic      Atomic             Coordinates (Angstroms)
 Number     Number       Type             X           Y           Z
 ---------------------------------------------------------------------
      1          8           0        0.000000    0.000000    0.121390
      2          1           0        0.000000    0.764524   -0.485559
      3          1           0       -0.000000   -0.764524   -0.485559
 ---------------------------------------------------------------------

 The electronic state is 1-A1.
 Alpha  occ. eigenvalues --  -18.88765  -0.92566  -0.46406  -0.31936  -0.23408
 Alpha virt. eigenvalues --    0.05017   0.13011   0.74797   0.82556   0.86123
 Alpha virt. eigenvalues --    0.91225   1.03247   1.35072   1.69507   1.71421
 Alpha virt. eigenvalues --    1.74542   2.26082   2.55216

 Mulliken charges:
               1
     1  O   -0.782115
     2  H    0.391058
     3  H    0.391058
 Sum of Mulliken charges =  -0.00000

 Dipole moment (field-independent basis, Debye):
    X=             -0.0000    Y=              0.0000    Z=             -2.0677  Tot=              2.0677
 Quadrupole moment (field-independent basis, Debye-Ang):
   XX=             -7.2171   YY=             -4.2965   ZZ=             -5.9594
   XY=              0.0000   XZ=              0.0000   YZ=              0.0000

 1\1\GINC-NODE59\FOpt\RTPSSTPSS\6-31G(d)\H2O1\RPEVERATI\07-Oct-2020\0\\
 #P Opt(MaxCyc=100) TPSSTPSS/6-31G* 5D 7F Integral=UltraFineGrid SCF=(N
 oSymm,XQC,MaxCyc=120) EmpiricalDispersion=GD3BJ IOp(1/33=1)\\TS search
  on BH76.\\0,1\O,0.,0.,0.1312927336\H,0.,0.7645242839,-0.4756560447\H,
 0.,-0.7645242839,-0.4756560447\\Version=ES64L-G16RevA.03\State=1-A1\HF
 =-76.4097096\RMSD=5.575e-09\RMSF=1.133e-04\Dipole=0.,0.,-0.8135121\Qua
 drupole=-1.0354938,1.1358831,-0.1003892,0.,0.,0.\PG=C02V [C2(O1),SGV(H
 2)]\\@

 Normal termination of Gaussian 16 at Wed Oct  7 13:05:43 2020.
