 Gaussian 16, Revision A.03,
 Gaussian 16:  ES64L-G16RevA.03 25-Dec-2016

 ----------------------------------------------------------------------
 #P TPSSTPSS/6-31G* 5D 7F Integral=UltraFineGrid SCF=(NoSymm,XQC,MaxCyc
 =120) EmpiricalDispersion=GD3BJ IOp(1/33=1) Stable=Opt
 ----------------------------------------------------------------------

 TstMul:  Mul=     2
 TstMul:  ICh=     0
 TstMul:  Mul=     2
 Symbolic Z-matrix:
 Charge =  0 Multiplicity = 2

                         Standard orientation:
 ---------------------------------------------------------------------
 Center     Atomic      Atomic             Coordinates (Angstroms)
 Number     Number       Type             X           Y           Z
 ---------------------------------------------------------------------
      1          9           0        0.000000    0.000000    0.000000
 ---------------------------------------------------------------------

 SCF Done:  E(UTPSS-TPSS) =  -99.7180504805     A.U. after    9 cycles

 Unable to determine electronic state:  an orbital has unidentified symmetry.
 Alpha  occ. eigenvalues --  -24.49926  -1.11968  -0.46831  -0.37485  -0.37485
 Alpha virt. eigenvalues --    1.04389   1.10133   1.10133   1.24242   1.72301
 Alpha virt. eigenvalues --    1.73744   1.73744   1.78583   1.78583
  Beta  occ. eigenvalues --  -24.46850  -1.04053  -0.34770  -0.34770
  Beta virt. eigenvalues --   -0.29018   1.12361   1.12361   1.15963   1.29580
  Beta virt. eigenvalues --    1.79364   1.79364   1.79756   1.79756   1.81535

 Mulliken charges and spin densities:
               1          2
     1  F    0.000000   1.000000
 Sum of Mulliken charges =   0.00000   1.00000

 Dipole moment (field-independent basis, Debye):
    X=              0.0000    Y=              0.0000    Z=              0.0000  Tot=              0.0000
 Quadrupole moment (field-independent basis, Debye-Ang):
   XX=             -4.7105   YY=             -4.7104   ZZ=             -3.8898
   XY=              0.0000   XZ=             -0.0000   YZ=              0.0058

 Normal termination of Gaussian 16 at Wed Oct  7 13:05:26 2020.
