 Gaussian 16, Revision A.03,

 ----------------------------------------------------------------------
 #P Opt(TS,MaxCyc=50,NoEigenTest,MaxStep=10,AddRedundant) TPSSTPSS/6-31
 G* 5D 7F Integral=UltraFineGrid SCF=(NoSymm,XQC,MaxCyc=120) EmpiricalD
 ispersion=GD3BJ IOp(1/33=1)
 ----------------------------------------------------------------------

 TstMul:  Mul=     2
 TstMul:  ICh=     0
 TstMul:  Mul=     2
 Symbolic Z-matrix:
 Charge =  0 Multiplicity = 2

 SCF Done:  E(UTPSS-TPSS) =  -140.208531443     A.U. after   15 cycles
 SCF Done:  E(UTPSS-TPSS) =  -140.209356388     A.U. after   12 cycles
 SCF Done:  E(UTPSS-TPSS) =  -140.209564802     A.U. after   12 cycles
 SCF Done:  E(UTPSS-TPSS) =  -140.209790883     A.U. after   14 cycles
 SCF Done:  E(UTPSS-TPSS) =  -140.209516657     A.U. after   14 cycles
 SCF Done:  E(UTPSS-TPSS) =  -140.209502094     A.U. after   11 cycles
 SCF Done:  E(UTPSS-TPSS) =  -140.209505118     A.U. after   10 cycles
 SCF Done:  E(UTPSS-TPSS) =  -140.209511426     A.U. after   11 cycles
 SCF Done:  E(UTPSS-TPSS) =  -140.209511873     A.U. after    9 cycles
 SCF Done:  E(UTPSS-TPSS) =  -140.209511932     A.U. after    8 cycles
 Optimization completed.
    -- Stationary point found.
 Normal termination of Gaussian 16 at Wed Oct  7 13:08:29 2020.
 Gaussian 16:  ES64L-G16RevA.03 25-Dec-2016

 ----------------------------------------------------------------------
 #P Freq TPSSTPSS/6-31G* 5D 7F Integral=UltraFineGrid SCF=(NoSymm,XQC,M
 axCyc=120) EmpiricalDispersion=GD3BJ IOp(1/33=1) Geom=Check Guess=Read
 ----------------------------------------------------------------------

 TstMul:  Mul=     2
 TstMul:  ICh=     0
 TstMul:  Mul=     2
 Structure from the checkpoint file:  "MN_53_hfch3ts_BH76_TPSSDBJ_631Gs.chk"
 Charge =  0 Multiplicity = 2

                         Standard orientation:
 ---------------------------------------------------------------------
 Center     Atomic      Atomic             Coordinates (Angstroms)
 Number     Number       Type             X           Y           Z
 ---------------------------------------------------------------------
      1          1           0       -0.000274    2.057182    0.000000
      2          9           0        0.000006    0.784121    0.000000
      3          6           0        0.000006   -0.933032    0.000000
      4          1           0        1.060874   -1.171680    0.000000
      5          1           0       -0.530345   -1.172203    0.918668
      6          1           0       -0.530345   -1.172203   -0.918668
 ---------------------------------------------------------------------

 SCF Done:  E(UTPSS-TPSS) =  -140.209511932     A.U. after    1 cycles

 The electronic state is 2-A'.
 Alpha  occ. eigenvalues --  -24.38906 -10.04009  -1.03982  -0.65164  -0.43873
 Alpha  occ. eigenvalues --   -0.39774  -0.39773  -0.29063  -0.29063  -0.15726
 Alpha virt. eigenvalues --   -0.00854   0.09667   0.15119   0.15120   0.47596
 Alpha virt. eigenvalues --    0.53290   0.53290   0.67128   0.80933   0.85938
 Alpha virt. eigenvalues --    0.85940   0.99082   1.17894   1.17899   1.51047

  Beta  occ. eigenvalues --  -24.38903 -10.03074  -1.03975  -0.63354  -0.41848
  Beta  occ. eigenvalues --   -0.39253  -0.39252  -0.28833  -0.28832
  Beta virt. eigenvalues --   -0.06685   0.04601   0.10661   0.15987   0.15987
  Beta virt. eigenvalues --    0.51589   0.53919   0.53919   0.76562   0.83478
  Beta virt. eigenvalues --    0.88287   0.88289   1.01395   1.18480   1.18485

 Mulliken charges and spin densities:
               1          2
     1  H    0.106484   0.634314
     2  F   -0.330634  -0.111941
     3  C   -0.315201   0.546742
     4  H    0.179796  -0.023039
     5  H    0.179777  -0.023038
     6  H    0.179777  -0.023038
 Sum of Mulliken charges =   0.00000   1.00000

 Dipole moment (field-independent basis, Debye):
    X=             -0.0000    Y=             -1.3759    Z=             -0.0000  Tot=              1.3759
 Quadrupole moment (field-independent basis, Debye-Ang):
   XX=            -12.7544   YY=            -11.8172   ZZ=            -12.7546
   XY=              0.0001   XZ=              0.0000   YZ=              0.0000

  Exact polarizability:  13.090  -0.002  50.523  -0.000  -0.000  13.090
 Approx polarizability:  16.960  -0.003  96.322   0.000   0.000  16.960

 ******    1 imaginary frequencies (negative Signs) ******

                      1                      2                      3
                     A'                     A'                     A"
 Frequencies --  -1322.7488               241.1388               241.1707
 Red. masses --      1.9484                 1.1558                 1.1558
 Frc consts  --      2.0086                 0.0396                 0.0396
 IR Inten    --   1611.2196                 9.0692                 9.0739

                      4                      5                      6
                     A"                     A'                     A'
 Frequencies --    774.0962               774.1915               937.9539
 Red. masses --      1.1274                 1.1274                 1.5236
 Frc consts  --      0.3980                 0.3981                 0.7898
 IR Inten    --      0.5628                 0.5594               222.2678

                      7                      8                      9
                     A'                     A'                     A"
 Frequencies --   1168.7197              1477.2393              1477.2973
 Red. masses --      1.2699                 1.0886                 1.0886
 Frc consts  --      1.0220                 1.3996                 1.3998
 IR Inten    --     62.4854                 1.8800                 1.8783

                     10                     11                     12
                     A'                     A"                     A'
 Frequencies --   3099.6463              3245.1866              3245.3117
 Red. masses --      1.0159                 1.1152                 1.1152
 Frc consts  --      5.7508                 6.9195                 6.9200
 IR Inten    --      2.3269                15.8892                15.8807

 - Thermochemistry -
 -------------------
 Temperature   298.150 Kelvin.  Pressure   1.00000 Atm.
 Atom     1 has atomic number  1 and mass   1.00783

 Molecular mass:    35.02970 amu.
 Principal axes and moments of inertia in atomic units:
                           1         2         3
     Eigenvalues --    12.14985 114.64936 114.64966
           X           -0.00001   1.00000   0.00000
           Y            1.00000   0.00001   0.00000
           Z           -0.00000   0.00000   1.00000
 This molecule is an asymmetric top.
 Rotational symmetry number  1.
 Rotational temperatures (Kelvin)      7.12881     0.75547     0.75547
 Rotational constants (GHZ):         148.54025    15.74140    15.74136
    1 imaginary frequencies ignored.
 Zero-point vibrational energy      99780.2 (Joules/Mol)
                                   23.84805 (Kcal/Mol)
 Warning -- explicit consideration of   2 degrees of freedom as
           vibrations may cause significant error
 Vibrational temperatures:    346.94   346.99  1113.75  1113.89  1349.51
          (Kelvin)           1681.53  2125.42  2125.50  4459.70  4669.10
                             4669.28

 Zero-point correction=                           0.038004 (Hartree/Particle)
 Thermal correction to Energy=                    0.042084
 Thermal correction to Enthalpy=                  0.043028
 Thermal correction to Gibbs Free Energy=         0.013610
 Sum of electronic and zero-point Energies=           -140.171508
 Sum of electronic and thermal Energies=              -140.167428
 Sum of electronic and thermal Enthalpies=            -140.166484
 Sum of electronic and thermal Free Energies=         -140.195902

                     E (Thermal)             CV                S
                      KCal/Mol        Cal/Mol-Kelvin    Cal/Mol-Kelvin
 Total                   26.408             11.744             61.916
 Electronic               0.000              0.000              1.377
 Translational            0.889              2.981             36.591
 Rotational               0.889              2.981             19.707
 Vibrational             24.631              5.782              4.240
 Vibration     1          0.658              1.777              1.794
 Vibration     2          0.658              1.777              1.794

 Optimization completed.
    -- Stationary point found.
 Normal termination of Gaussian 16 at Wed Oct  7 13:09:00 2020.
