 Gaussian 16, Revision A.03,

 ----------------------------------------------------------------------
 #P Opt(TS,MaxCyc=50,NoEigenTest,MaxStep=10,AddRedundant) TPSSTPSS/6-31
 G* 5D 7F Integral=UltraFineGrid SCF=(NoSymm,XQC,MaxCyc=120) EmpiricalD
 ispersion=GD3BJ IOp(1/33=1)
 ----------------------------------------------------------------------

 TstMul:  Mul=     2
 TstMul:  ICh=     0
 TstMul:  Mul=     2
 Symbolic Z-matrix:
 Charge =  0 Multiplicity = 2

 SCF Done:  E(UTPSS-TPSS) =  -100.873310058     A.U. after   10 cycles
 SCF Done:  E(UTPSS-TPSS) =  -100.875180078     A.U. after    9 cycles
 SCF Done:  E(UTPSS-TPSS) =  -100.876107202     A.U. after    9 cycles
 SCF Done:  E(UTPSS-TPSS) =  -100.876260162     A.U. after    9 cycles
 SCF Done:  E(UTPSS-TPSS) =  -100.876262433     A.U. after    6 cycles
 Optimization completed.
    -- Stationary point found.
 Normal termination of Gaussian 16 at Wed Oct  7 13:06:38 2020.
 Gaussian 16:  ES64L-G16RevA.03 25-Dec-2016

 ----------------------------------------------------------------------
 #P Freq TPSSTPSS/6-31G* 5D 7F Integral=UltraFineGrid SCF=(NoSymm,XQC,M
 axCyc=120) EmpiricalDispersion=GD3BJ IOp(1/33=1) Geom=Check Guess=Read
 ----------------------------------------------------------------------

 TstMul:  Mul=     2
 TstMul:  ICh=     0
 TstMul:  Mul=     2
 Structure from the checkpoint file:  "MN_54_hfhts_BH76_TPSSDBJ_631Gs.chk"
 Charge =  0 Multiplicity = 2

                         Standard orientation:
 ---------------------------------------------------------------------
 Center     Atomic      Atomic             Coordinates (Angstroms)
 Number     Number       Type             X           Y           Z
 ---------------------------------------------------------------------
      1          1           0        0.000000    0.000000    1.204867
      2          9           0        0.000000    0.000000    0.000000
      3          1           0        0.000000    0.000000   -1.204867
 ---------------------------------------------------------------------

 SCF Done:  E(UTPSS-TPSS) =  -100.876262433     A.U. after    1 cycles

 The electronic state is 2-SGG.
 Alpha  occ. eigenvalues --  -24.42586  -1.08201  -0.52440  -0.33549  -0.33549
 Alpha  occ. eigenvalues --   -0.17953
 Alpha virt. eigenvalues --   -0.02138   0.57787   0.70958   1.11645   1.11645
 Alpha virt. eigenvalues --    1.54688   1.61970   1.74275   1.74275   1.81090
 Alpha virt. eigenvalues --    1.81090   2.27218
  Beta  occ. eigenvalues --  -24.42539  -1.08053  -0.49619  -0.33167  -0.33167
  Beta virt. eigenvalues --   -0.07392   0.04359   0.66518   0.80842   1.11964
  Beta virt. eigenvalues --    1.11964   1.54969   1.64872   1.74030   1.74030
  Beta virt. eigenvalues --    1.81270   1.81270   2.30652

 Mulliken charges and spin densities:
               1          2
     1  H    0.184202   0.563877
     2  F   -0.368403  -0.127753
     3  H    0.184202   0.563877
 Sum of Mulliken charges =  -0.00000   1.00000

 Dipole moment (field-independent basis, Debye):
    X=              0.0000    Y=             -0.0000    Z=              0.0000  Tot=              0.0000
 Quadrupole moment (field-independent basis, Debye-Ang):
   XX=             -6.9516   YY=             -6.9516   ZZ=             -4.6539
   XY=              0.0000   XZ=             -0.0000   YZ=              0.0000

  Exact polarizability:   1.930  -0.000   1.930  -0.000  -0.000  34.987
 Approx polarizability:   2.336  -0.000   2.336  -0.000  -0.000  67.278

 ******    1 imaginary frequencies (negative Signs) ******

                      1                      2                      3
                     SGU                    PIU                    PIU
 Frequencies --  -2228.7292               264.8232               264.8232
 Red. masses --      1.1085                 1.1085                 1.1085
 Frc consts  --      3.2442                 0.0458                 0.0458
 IR Inten    --   3799.0761                43.9869                43.9869

                      4
                     SGG
 Frequencies --   2041.3787
 Red. masses --      1.0078
 Frc consts  --      2.4745
 IR Inten    --      0.0000

 - Thermochemistry -
 -------------------
 Temperature   298.150 Kelvin.  Pressure   1.00000 Atm.
 Atom     1 has atomic number  1 and mass   1.00783

 Molecular mass:    21.01405 amu.
 Principal axes and moments of inertia in atomic units:
                           1         2         3
     Eigenvalues --     0.00000  10.44940  10.44940
           X           -0.00000   1.00000   0.00000
           Y            0.00000   0.00000   1.00000
           Z            1.00000   0.00000   0.00000
 This molecule is a prolate symmetric top.
 Rotational symmetry number  2.
 Rotational temperature (Kelvin)      8.28889
 Rotational constant (GHZ):         172.712459
    1 imaginary frequencies ignored.
 Zero-point vibrational energy      15378.1 (Joules/Mol)
                                    3.67546 (Kcal/Mol)
 Warning -- explicit consideration of   2 degrees of freedom as
           vibrations may cause significant error
 Vibrational temperatures:    381.02   381.02  2937.09
          (Kelvin)

 Zero-point correction=                           0.005857 (Hartree/Particle)
 Thermal correction to Energy=                    0.009150
 Thermal correction to Enthalpy=                  0.010094
 Thermal correction to Gibbs Free Energy=        -0.012444
 Sum of electronic and zero-point Energies=           -100.870405
 Sum of electronic and thermal Energies=              -100.867112
 Sum of electronic and thermal Enthalpies=            -100.866168
 Sum of electronic and thermal Free Energies=         -100.888706

                     E (Thermal)             CV                S
                      KCal/Mol        Cal/Mol-Kelvin    Cal/Mol-Kelvin
 Total                    5.742              8.453             47.435
 Electronic               0.000              0.000              1.377
 Translational            0.889              2.981             35.068
 Rotational               0.592              1.987              7.729
 Vibrational              4.261              3.485              3.261
 Vibration     1          0.671              1.737              1.630
 Vibration     2          0.671              1.737              1.630

 Optimization completed.
    -- Stationary point found.
 Normal termination of Gaussian 16 at Wed Oct  7 13:06:59 2020.
