 Gaussian 16, Revision A.03,
 Gaussian 16:  ES64L-G16RevA.03 25-Dec-2016

 ----------------------------------------------------------------------
 #P Opt(MaxCyc=100) TPSSTPSS/6-31G* 5D 7F Integral=UltraFineGrid SCF=(N
 oSymm,XQC,MaxCyc=120) EmpiricalDispersion=GD3BJ IOp(1/33=1)
 ----------------------------------------------------------------------

 TstMul:  Mul=     1
 TstMul:  ICh=     0
 TstMul:  Mul=     1
 Symbolic Z-matrix:
 Charge =  0 Multiplicity = 1

 SCF Done:  E(RTPSS-TPSS) =  -100.419672927     A.U. after   10 cycles
 SCF Done:  E(RTPSS-TPSS) =  -100.420383733     A.U. after    9 cycles
 SCF Done:  E(RTPSS-TPSS) =  -100.420391312     A.U. after    6 cycles
 Optimization completed.
    -- Stationary point found.

                         Standard orientation:
 ---------------------------------------------------------------------
 Center     Atomic      Atomic             Coordinates (Angstroms)
 Number     Number       Type             X           Y           Z
 ---------------------------------------------------------------------
      1          9           0        0.000000    0.000000    0.094183
      2          1           0        0.000000    0.000000   -0.847645
 ---------------------------------------------------------------------

 The electronic state is 1-SG.
 Alpha  occ. eigenvalues --  -24.38200  -1.08317  -0.45824  -0.30760  -0.30760
 Alpha virt. eigenvalues --    0.04773   0.77204   1.14491   1.14491   1.22931
 Alpha virt. eigenvalues --    1.60515   1.76507   1.76507   1.83126   1.83126
 Alpha virt. eigenvalues --    2.57686

 Mulliken charges:
               1
     1  F   -0.477101
     2  H    0.477101
 Sum of Mulliken charges =  -0.00000

 Dipole moment (field-independent basis, Debye):
    X=              0.0000    Y=             -0.0000    Z=             -1.8361  Tot=              1.8361
 Quadrupole moment (field-independent basis, Debye-Ang):
   XX=             -5.4107   YY=             -5.4107   ZZ=             -3.3853
   XY=             -0.0000   XZ=              0.0000   YZ=             -0.0000

 1\1\GINC-NODE61\FOpt\RTPSSTPSS\6-31G(d)\F1H1\RPEVERATI\07-Oct-2020\0\\
 #P Opt(MaxCyc=100) TPSSTPSS/6-31G* 5D 7F Integral=UltraFineGrid SCF=(N
 oSymm,XQC,MaxCyc=120) EmpiricalDispersion=GD3BJ IOp(1/33=1)\\TS search
  on BH76.\\0,1\F,0.,0.,0.1047606092\H,0.,0.,-0.8370667258\\Version=ES6
 4L-G16RevA.03\State=1-SG\HF=-100.4203913\RMSD=7.787e-09\RMSF=2.662e-06
 \Dipole=0.,0.,-0.7223942\Quadrupole=-0.5019322,-0.5019322,1.0038644,0.
 ,0.,0.\PG=C*V [C*(H1F1)]\\@

 Normal termination of Gaussian 16 at Wed Oct  7 13:06:29 2020.
