 Gaussian 16, Revision A.03,

 ----------------------------------------------------------------------
 #P Opt(TS,MaxCyc=50,NoEigenTest,MaxStep=10,AddRedundant) TPSSTPSS/6-31
 G* 5D 7F Integral=UltraFineGrid SCF=(NoSymm,XQC,MaxCyc=120) EmpiricalD
 ispersion=GD3BJ IOp(1/33=1)
 ----------------------------------------------------------------------

 TstMul:  Mul=     2
 TstMul:  ICh=     0
 TstMul:  Mul=     2
 Symbolic Z-matrix:
 Charge =  0 Multiplicity = 2

 SCF Done:  E(UTPSS-TPSS) =  -200.027704999     A.U. after   19 cycles
 SCF Done:  E(UTPSS-TPSS) =  -200.029938095     A.U. after   15 cycles
 SCF Done:  E(UTPSS-TPSS) =  -200.027526181     A.U. after   14 cycles
 SCF Done:  E(UTPSS-TPSS) =  -200.025610345     A.U. after   14 cycles
 SCF Done:  E(UTPSS-TPSS) =  -200.023994113     A.U. after   14 cycles
 SCF Done:  E(UTPSS-TPSS) =  -200.022635963     A.U. after   14 cycles
 SCF Done:  E(UTPSS-TPSS) =  -200.021497733     A.U. after   14 cycles
 SCF Done:  E(UTPSS-TPSS) =  -200.020544412     A.U. after   14 cycles
 SCF Done:  E(UTPSS-TPSS) =  -200.019745699     A.U. after   14 cycles
 SCF Done:  E(UTPSS-TPSS) =  -200.019077236     A.U. after   15 cycles
 SCF Done:  E(UTPSS-TPSS) =  -200.016068689     A.U. after   10 cycles
 SCF Done:  E(UTPSS-TPSS) =  -200.016019341     A.U. after   10 cycles
 SCF Done:  E(UTPSS-TPSS) =  -200.015972449     A.U. after   10 cycles
 SCF Done:  E(UTPSS-TPSS) =  -200.015928029     A.U. after   10 cycles
 SCF Done:  E(UTPSS-TPSS) =  -200.015886036     A.U. after    9 cycles
 SCF Done:  E(UTPSS-TPSS) =  -200.015845842     A.U. after    9 cycles
 SCF Done:  E(UTPSS-TPSS) =  -200.015807658     A.U. after    9 cycles
 SCF Done:  E(UTPSS-TPSS) =  -200.015771564     A.U. after    9 cycles
 SCF Done:  E(UTPSS-TPSS) =  -200.015736889     A.U. after   10 cycles
 Optimization completed.
    -- Stationary point found.
 Normal termination of Gaussian 16 at Wed Oct  7 13:12:06 2020.
 Gaussian 16:  ES64L-G16RevA.03 25-Dec-2016

 ----------------------------------------------------------------------
 #P Freq TPSSTPSS/6-31G* 5D 7F Integral=UltraFineGrid SCF=(NoSymm,XQC,M
 axCyc=120) EmpiricalDispersion=GD3BJ IOp(1/33=1) Geom=Check Guess=Read
 ----------------------------------------------------------------------

 TstMul:  Mul=     2
 TstMul:  ICh=     0
 TstMul:  Mul=     2
 Structure from the checkpoint file:  "MN_52_hf2ts_BH76_TPSSDBJ_631Gs.chk"
 Charge =  0 Multiplicity = 2

                         Standard orientation:
 ---------------------------------------------------------------------
 Center     Atomic      Atomic             Coordinates (Angstroms)
 Number     Number       Type             X           Y           Z
 ---------------------------------------------------------------------
      1          1           0        0.000000    0.000000   -3.773205
      2          9           0        0.000000    0.000000   -0.502202
      3          9           0        0.000000    0.000000    0.921447
 ---------------------------------------------------------------------

 SCF Done:  E(UTPSS-TPSS) =  -200.015736889     A.U. after    1 cycles

 The electronic state is 2-SG.
 Alpha  occ. eigenvalues --  -24.51079 -24.51062  -1.23840  -1.01620  -0.53590
 Alpha  occ. eigenvalues --   -0.44642  -0.44642  -0.32497  -0.32497  -0.28277
 Alpha virt. eigenvalues --   -0.18121   0.67142   1.02835   1.02835   1.06375
 Alpha virt. eigenvalues --    1.19068   1.20992   1.20992   1.23082   1.50080
 Alpha virt. eigenvalues --    1.50080   1.66066   1.66066   1.69709   1.88761

  Beta  occ. eigenvalues --  -24.51079 -24.51055  -1.23830  -1.01612  -0.53574
  Beta  occ. eigenvalues --   -0.44638  -0.44638  -0.32494  -0.32494
  Beta virt. eigenvalues --   -0.18134   0.04969   0.99724   1.02837   1.02837
  Beta virt. eigenvalues --    1.08636   1.19769   1.20997   1.20997   1.23138
  Beta virt. eigenvalues --    1.50087   1.50087   1.66067   1.66067   1.69730

 Mulliken charges and spin densities:
               1          2
     1  H    0.001749   0.997965
     2  F   -0.000886   0.000027
     3  F   -0.000863   0.002008
 Sum of Mulliken charges =   0.00000   1.00000

 Dipole moment (field-independent basis, Debye):
    X=              0.0000    Y=              0.0000    Z=             -0.0354  Tot=              0.0354
 Quadrupole moment (field-independent basis, Debye-Ang):
   XX=            -10.5545   YY=            -10.5545   ZZ=             -9.3886
   XY=              0.0000   XZ=              0.0000   YZ=              0.0000

  Exact polarizability:   2.760   0.000   2.760   0.000   0.000  11.903
 Approx polarizability:   3.491   0.000   3.491   0.000   0.000  26.747

 ******    1 imaginary frequencies (negative Signs) ******

                      1                      2                      3
                     SG                     PI                     PI
 Frequencies --    -25.5088                34.6663                34.6663
 Red. masses --      1.0332                 1.7901                 1.7901
 Frc consts  --      0.0004                 0.0013                 0.0013
 IR Inten    --      0.5153                 0.0021                 0.0021

                      4
                     SG
 Frequencies --   1009.6004
 Red. masses --     18.9751
 Frc consts  --     11.3955
 IR Inten    --      0.8518

 - Thermochemistry -
 -------------------
 Temperature   298.150 Kelvin.  Pressure   1.00000 Atm.
 Atom     1 has atomic number  1 and mass   1.00783

 Molecular mass:    39.00463 amu.
 Principal axes and moments of inertia in atomic units:
                           1         2         3
     Eigenvalues --     0.00000 124.36856 124.36856
           X            0.00000   0.00000   1.00000
           Y            0.00000   1.00000   0.00000
           Z            1.00000   0.00000   0.00000
 This molecule is a prolate symmetric top.
 Rotational symmetry number  1.
 Rotational temperature (Kelvin)      0.69643
 Rotational constant (GHZ):          14.511234
    1 imaginary frequencies ignored.
 Zero-point vibrational energy       6453.5 (Joules/Mol)
                                    1.54241 (Kcal/Mol)
 Warning -- explicit consideration of   2 degrees of freedom as
           vibrations may cause significant error
 Vibrational temperatures:     49.88    49.88  1452.59
          (Kelvin)

 Zero-point correction=                           0.002458 (Hartree/Particle)
 Thermal correction to Energy=                    0.006589
 Thermal correction to Enthalpy=                  0.007533
 Thermal correction to Gibbs Free Energy=        -0.022635
 Sum of electronic and zero-point Energies=           -200.013279
 Sum of electronic and thermal Energies=              -200.009148
 Sum of electronic and thermal Enthalpies=            -200.008204
 Sum of electronic and thermal Free Energies=         -200.038371

                     E (Thermal)             CV                S
                      KCal/Mol        Cal/Mol-Kelvin    Cal/Mol-Kelvin
 Total                    4.135              9.300             63.493
 Electronic               0.000              0.000              1.377
 Translational            0.889              2.981             36.912
 Rotational               0.592              1.987             14.028
 Vibrational              2.653              4.332             11.175
 Vibration     1          0.594              1.983              5.543
 Vibration     2          0.594              1.983              5.543

                           ! Non-Optimized Parameters !
 Normal termination of Gaussian 16 at Wed Oct  7 13:12:29 2020.
