 Gaussian 16, Revision A.03,

 ----------------------------------------------------------------------
 #P Opt(TS,MaxCyc=50,NoEigenTest,MaxStep=10,AddRedundant) TPSSTPSS/6-31
 G* 5D 7F Integral=UltraFineGrid SCF=(NoSymm,XQC,MaxCyc=120) EmpiricalD
 ispersion=GD3BJ IOp(1/33=1)
 ----------------------------------------------------------------------

 TstMul:  Mul=     2
 TstMul:  ICh=     0
 TstMul:  Mul=     2
 Symbolic Z-matrix:
 Charge =  0 Multiplicity = 2

 SCF Done:  E(UTPSS-TPSS) =  -110.032568772     A.U. after   15 cycles
 SCF Done:  E(UTPSS-TPSS) =  -110.033161034     A.U. after   14 cycles
 SCF Done:  E(UTPSS-TPSS) =  -110.033133793     A.U. after   10 cycles
 SCF Done:  E(UTPSS-TPSS) =  -110.033080570     A.U. after   11 cycles
 SCF Done:  E(UTPSS-TPSS) =  -110.033077990     A.U. after    9 cycles
 SCF Done:  E(UTPSS-TPSS) =  -110.033075974     A.U. after    9 cycles
 SCF Done:  E(UTPSS-TPSS) =  -110.033073882     A.U. after    9 cycles
 SCF Done:  E(UTPSS-TPSS) =  -110.032791026     A.U. after   14 cycles
 SCF Done:  E(UTPSS-TPSS) =  -110.032777469     A.U. after   11 cycles
 SCF Done:  E(UTPSS-TPSS) =  -110.032778337     A.U. after   10 cycles
 SCF Done:  E(UTPSS-TPSS) =  -110.032778527     A.U. after   10 cycles
 Optimization completed.
    -- Stationary point found.
 Normal termination of Gaussian 16 at Wed Oct  7 13:08:14 2020.
 Gaussian 16:  ES64L-G16RevA.03 25-Dec-2016

 ----------------------------------------------------------------------
 #P Freq TPSSTPSS/6-31G* 5D 7F Integral=UltraFineGrid SCF=(NoSymm,XQC,M
 axCyc=120) EmpiricalDispersion=GD3BJ IOp(1/33=1) Geom=Check Guess=Read
 ----------------------------------------------------------------------

 TstMul:  Mul=     2
 TstMul:  ICh=     0
 TstMul:  Mul=     2
 Structure from the checkpoint file:  "MN_59_hn2ts_BH76_TPSSDBJ_631Gs.chk"
 Charge =  0 Multiplicity = 2

                         Standard orientation:
 ---------------------------------------------------------------------
 Center     Atomic      Atomic             Coordinates (Angstroms)
 Number     Number       Type             X           Y           Z
 ---------------------------------------------------------------------
      1          7           0        0.089075   -0.653766    0.000000
      2          7           0        0.089075    0.479575    0.000000
      3          1           0       -1.247044    1.219336    0.000000
 ---------------------------------------------------------------------

 SCF Done:  E(UTPSS-TPSS) =  -110.032778527     A.U. after    1 cycles

 The electronic state is 2-A'.
 Alpha  occ. eigenvalues --  -14.22825 -14.21405  -1.03334  -0.54204  -0.44014
 Alpha  occ. eigenvalues --   -0.41228  -0.38601  -0.21855
 Alpha virt. eigenvalues --   -0.07300  -0.03830   0.37780   0.57137   0.58983
 Alpha virt. eigenvalues --    0.60080   0.62710   0.72040   0.73589   0.76206
 Alpha virt. eigenvalues --    0.90190   1.25777   1.41433   1.43317   1.47686

  Beta  occ. eigenvalues --  -14.22749 -14.20688  -1.02743  -0.52269  -0.41640
  Beta  occ. eigenvalues --   -0.40791  -0.37149
  Beta virt. eigenvalues --   -0.12207  -0.06619   0.00279   0.38492   0.58298
  Beta virt. eigenvalues --    0.59283   0.62583   0.68052   0.72591   0.74348
  Beta virt. eigenvalues --    0.80035   0.94477   1.27094   1.42421   1.44629

 Mulliken charges and spin densities:
               1          2
     1  N    0.004335   0.306828
     2  N   -0.069131  -0.024975
     3  H    0.064795   0.718147
 Sum of Mulliken charges =  -0.00000   1.00000

 Dipole moment (field-independent basis, Debye):
    X=             -0.2604    Y=              0.2679    Z=              0.0000  Tot=              0.3736
 Quadrupole moment (field-independent basis, Debye-Ang):
   XX=            -11.4293   YY=            -12.6971   ZZ=            -11.2319
   XY=             -0.1467   XZ=              0.0000   YZ=              0.0000

  Exact polarizability:  15.429  -7.305  20.173  -0.000  -0.000   6.108
 Approx polarizability:  24.838 -13.909  47.823  -0.000  -0.000   9.391

 ******    1 imaginary frequencies (negative Signs) ******

                      1                      2                      3
                     A'                     A'                     A'
 Frequencies --   -916.2516               672.8793              2161.1594
 Red. masses --      1.0925                 1.3659                 9.9252
 Frc consts  --      0.5404                 0.3644                27.3125
 IR Inten    --    271.2009                 2.7558                64.2074

 - Thermochemistry -
 -------------------
 Temperature   298.150 Kelvin.  Pressure   1.00000 Atm.
 Atom     1 has atomic number  7 and mass  14.00307

 Molecular mass:    29.01397 amu.
 Principal axes and moments of inertia in atomic units:
                           1         2         3
     Eigenvalues --     5.08611  39.16038  44.24648
           X           -0.18095   0.98349   0.00000
           Y            0.98349   0.18095   0.00000
           Z            0.00000   0.00000   1.00000
 This molecule is an asymmetric top.
 Rotational symmetry number  1.
 Rotational temperatures (Kelvin)     17.02952     2.21177     1.95753
 Rotational constants (GHZ):         354.83750    46.08590    40.78835
    1 imaginary frequencies ignored.
 Zero-point vibrational energy      16951.3 (Joules/Mol)
                                    4.05146 (Kcal/Mol)
 Vibrational temperatures:    968.12  3109.43
          (Kelvin)

 Zero-point correction=                           0.006456 (Hartree/Particle)
 Thermal correction to Energy=                    0.009413
 Thermal correction to Enthalpy=                  0.010357
 Thermal correction to Gibbs Free Energy=        -0.015573
 Sum of electronic and zero-point Energies=           -110.026322
 Sum of electronic and thermal Energies=              -110.023365
 Sum of electronic and thermal Enthalpies=            -110.022421
 Sum of electronic and thermal Free Energies=         -110.048352

                     E (Thermal)             CV                S
                      KCal/Mol        Cal/Mol-Kelvin    Cal/Mol-Kelvin
 Total                    5.907              6.850             54.576
 Electronic               0.000              0.000              1.377
 Translational            0.889              2.981             36.030
 Rotational               0.889              2.981             16.829
 Vibrational              4.129              0.888              0.341

                           ! Non-Optimized Parameters !
 Normal termination of Gaussian 16 at Wed Oct  7 13:08:38 2020.
