 Gaussian 16, Revision A.03,
 Gaussian 16:  ES64L-G16RevA.03 25-Dec-2016

 ----------------------------------------------------------------------
 #P Opt(MaxCyc=100) TPSSTPSS/6-31G* 5D 7F Integral=UltraFineGrid SCF=(N
 oSymm,XQC,MaxCyc=120) EmpiricalDispersion=GD3BJ IOp(1/33=1)
 ----------------------------------------------------------------------

 TstMul:  Mul=     2
 TstMul:  ICh=     0
 TstMul:  Mul=     2
 Symbolic Z-matrix:
 Charge =  0 Multiplicity = 2

 SCF Done:  E(UTPSS-TPSS) =  -113.865801943     A.U. after   14 cycles
 SCF Done:  E(UTPSS-TPSS) =  -113.866418055     A.U. after   13 cycles
 SCF Done:  E(UTPSS-TPSS) =  -113.866430611     A.U. after   10 cycles
 Optimization completed.
    -- Stationary point found.

                         Standard orientation:
 ---------------------------------------------------------------------
 Center     Atomic      Atomic             Coordinates (Angstroms)
 Number     Number       Type             X           Y           Z
 ---------------------------------------------------------------------
      1          1           0       -0.884007    1.216023    0.000000
      2          6           0        0.063143    0.594403    0.000000
      3          8           0        0.063143   -0.597805    0.000000
 ---------------------------------------------------------------------

 The electronic state is 2-A'.
 Alpha  occ. eigenvalues --  -18.96717 -10.09731  -1.02628  -0.56511  -0.44004
 Alpha  occ. eigenvalues --   -0.38305  -0.37863  -0.17870
 Alpha virt. eigenvalues --   -0.07702   0.10788   0.21905   0.49241   0.50371
 Alpha virt. eigenvalues --    0.62575   0.66226   0.78476   0.84712   0.90638
 Alpha virt. eigenvalues --    0.94916   1.45589   1.46620   1.47025   1.47708

  Beta  occ. eigenvalues --  -18.95903 -10.08795  -1.01363  -0.54191  -0.42112
  Beta  occ. eigenvalues --   -0.37547  -0.33508
  Beta virt. eigenvalues --   -0.09880  -0.05686   0.13304   0.23314   0.50695
  Beta virt. eigenvalues --    0.55266   0.64472   0.68823   0.81862   0.87472
  Beta virt. eigenvalues --    0.91109   0.97595   1.47228   1.48938   1.49612

 Mulliken charges and spin densities:
               1          2
     1  H    0.153668   0.179428
     2  C    0.080777   0.571785
     3  O   -0.234445   0.248788
 Sum of Mulliken charges =   0.00000   1.00000

 Dipole moment (field-independent basis, Debye):
    X=             -0.8832    Y=              1.1870    Z=              0.0000  Tot=              1.4795
 Quadrupole moment (field-independent basis, Debye-Ang):
   XX=            -11.1060   YY=            -11.3229   ZZ=            -10.6165
   XY=             -0.9525   XZ=              0.0000   YZ=              0.0000

 Normal termination of Gaussian 16 at Wed Oct  7 13:06:22 2020.
