 Gaussian 16, Revision A.03,
 Gaussian 16:  ES64L-G16RevA.03 25-Dec-2016

 ----------------------------------------------------------------------
 #P Opt(MaxCyc=100) TPSSTPSS/6-31G* 5D 7F Integral=UltraFineGrid SCF=(N
 oSymm,XQC,MaxCyc=120) EmpiricalDispersion=GD3BJ IOp(1/33=1)
 ----------------------------------------------------------------------

 TstMul:  Mul=     2
 TstMul:  ICh=     0
 TstMul:  Mul=     2
 Symbolic Z-matrix:
 Charge =  0 Multiplicity = 2

 SCF Done:  E(UTPSS-TPSS) =  -110.045902583     A.U. after   16 cycles
 SCF Done:  E(UTPSS-TPSS) =  -110.046454424     A.U. after   12 cycles
 SCF Done:  E(UTPSS-TPSS) =  -110.046483203     A.U. after   11 cycles
 SCF Done:  E(UTPSS-TPSS) =  -110.046484503     A.U. after    9 cycles
 Optimization completed.
    -- Stationary point found.

                         Standard orientation:
 ---------------------------------------------------------------------
 Center     Atomic      Atomic             Coordinates (Angstroms)
 Number     Number       Type             X           Y           Z
 ---------------------------------------------------------------------
      1          7           0       -0.063646    0.666136    0.000000
      2          7           0       -0.063646   -0.521906    0.000000
      3          1           0        0.891046   -1.009612    0.000000
 ---------------------------------------------------------------------

 The electronic state is 2-A'.
 Alpha  occ. eigenvalues --  -14.20020 -14.19004  -0.99370  -0.62064  -0.43353
 Alpha  occ. eigenvalues --   -0.38265  -0.36504  -0.17436
 Alpha virt. eigenvalues --   -0.08184   0.05571   0.34568   0.59974   0.60815
 Alpha virt. eigenvalues --    0.62909   0.65035   0.71277   0.72458   0.78417
 Alpha virt. eigenvalues --    0.90864   1.22598   1.43251   1.44858   1.45243

  Beta  occ. eigenvalues --  -14.19743 -14.17430  -0.97912  -0.59648  -0.39609
  Beta  occ. eigenvalues --   -0.37405  -0.33598
  Beta virt. eigenvalues --   -0.09405  -0.06773   0.07793   0.36167   0.61140
  Beta virt. eigenvalues --    0.61431   0.65599   0.71164   0.72723   0.73668
  Beta virt. eigenvalues --    0.82230   0.92086   1.24421   1.44952   1.47033

 Mulliken charges and spin densities:
               1          2
     1  N   -0.078738   0.717786
     2  N   -0.230679   0.101114
     3  H    0.309417   0.181100
 Sum of Mulliken charges =  -0.00000   1.00000

 Dipole moment (field-independent basis, Debye):
    X=              1.3941    Y=             -1.2429    Z=              0.0000  Tot=              1.8677
 Quadrupole moment (field-independent basis, Debye-Ang):
   XX=            -10.6993   YY=            -11.8780   ZZ=            -10.9873
   XY=             -1.3446   XZ=              0.0000   YZ=              0.0000

 Normal termination of Gaussian 16 at Wed Oct  7 13:06:53 2020.
