 Gaussian 16, Revision A.03,

 ----------------------------------------------------------------------
 #P Opt(TS,MaxCyc=50,NoEigenTest,MaxStep=10,AddRedundant) TPSSTPSS/6-31
 G* 5D 7F Integral=UltraFineGrid SCF=(NoSymm,XQC,MaxCyc=120) EmpiricalD
 ispersion=GD3BJ IOp(1/33=1)
 ----------------------------------------------------------------------

 TstMul:  Mul=     2
 TstMul:  ICh=     0
 TstMul:  Mul=     2
 Symbolic Z-matrix:
 Charge =  0 Multiplicity = 2

 SCF Done:  E(UTPSS-TPSS) =  -113.828143894     A.U. after   15 cycles
 SCF Done:  E(UTPSS-TPSS) =  -113.828413415     A.U. after   12 cycles
 SCF Done:  E(UTPSS-TPSS) =  -113.828193252     A.U. after   12 cycles
 SCF Done:  E(UTPSS-TPSS) =  -113.827560891     A.U. after   13 cycles
 SCF Done:  E(UTPSS-TPSS) =  -113.826976500     A.U. after   13 cycles
 SCF Done:  E(UTPSS-TPSS) =  -113.826408375     A.U. after   13 cycles
 SCF Done:  E(UTPSS-TPSS) =  -113.825870643     A.U. after   13 cycles
 SCF Done:  E(UTPSS-TPSS) =  -113.825368769     A.U. after   13 cycles
 SCF Done:  E(UTPSS-TPSS) =  -113.824903491     A.U. after   13 cycles
 SCF Done:  E(UTPSS-TPSS) =  -113.824473206     A.U. after   13 cycles
 SCF Done:  E(UTPSS-TPSS) =  -113.821798809     A.U. after   12 cycles
 SCF Done:  E(UTPSS-TPSS) =  -113.821608255     A.U. after   12 cycles
 SCF Done:  E(UTPSS-TPSS) =  -113.821436753     A.U. after   11 cycles
 SCF Done:  E(UTPSS-TPSS) =  -113.821284376     A.U. after   11 cycles
 SCF Done:  E(UTPSS-TPSS) =  -113.821151766     A.U. after   11 cycles
 SCF Done:  E(UTPSS-TPSS) =  -113.821041367     A.U. after   16 cycles
 SCF Done:  E(UTPSS-TPSS) =  -113.820960601     A.U. after  121 cycles
 SCF Done:  E(UTPSS-TPSS) =  -113.821060845     a.u. after    6 cycles
 SCF Done:  E(UTPSS-TPSS) =  -113.821061512     A.U. after    9 cycles
 Optimization completed.
    -- Stationary point found.
 Normal termination of Gaussian 16 at Wed Oct  7 13:12:14 2020.
 Gaussian 16:  ES64L-G16RevA.03 25-Dec-2016

 ----------------------------------------------------------------------
 #P Freq TPSSTPSS/6-31G* 5D 7F Integral=UltraFineGrid SCF=(NoSymm,XQC,M
 axCyc=120) EmpiricalDispersion=GD3BJ IOp(1/33=1) Geom=Check Guess=Read
 ----------------------------------------------------------------------

 TstMul:  Mul=     2
 TstMul:  ICh=     0
 TstMul:  Mul=     2
 Structure from the checkpoint file:  "MN_51_hcots_BH76_TPSSDBJ_631Gs.chk"
 Charge =  0 Multiplicity = 2

                         Standard orientation:
 ---------------------------------------------------------------------
 Center     Atomic      Atomic             Coordinates (Angstroms)
 Number     Number       Type             X           Y           Z
 ---------------------------------------------------------------------
      1          6           0        0.179069    0.520833   -0.000000
      2          8           0        0.179069   -0.626379    0.000000
      3          1           0       -2.506966    1.886034   -0.000000
 ---------------------------------------------------------------------

 SCF Done:  E(UTPSS-TPSS) =  -113.821061512     A.U. after    1 cycles

 The electronic state is 2-A'.
 Alpha  occ. eigenvalues --  -19.00533 -10.10805  -1.07630  -0.51307  -0.41713
 Alpha  occ. eigenvalues --   -0.41687  -0.32836  -0.27767
 Alpha virt. eigenvalues --   -0.05494  -0.05333   0.24911   0.49503   0.50110
 Alpha virt. eigenvalues --    0.56021   0.70485   0.74589   0.80814   0.88850
 Alpha virt. eigenvalues --    0.89989   1.44441   1.44505   1.47691   1.49494

  Beta  occ. eigenvalues --  -19.00523 -10.10791  -1.07615  -0.51289  -0.41678
  Beta  occ. eigenvalues --   -0.41668  -0.32586
  Beta virt. eigenvalues --   -0.06132  -0.05478   0.01333   0.24859   0.50081
  Beta virt. eigenvalues --    0.50944   0.57921   0.70526   0.80713   0.88525
  Beta virt. eigenvalues --    0.88847   1.02295   1.44463   1.44555   1.47690

 Mulliken charges and spin densities:
               1          2
     1  C    0.155516   0.003971
     2  O   -0.157769   0.003571
     3  H    0.002252   0.992458
 Sum of Mulliken charges =  -0.00000   1.00000

 Dipole moment (field-independent basis, Debye):
    X=             -0.0316    Y=             -0.1189    Z=             -0.0000  Tot=              0.1230
 Quadrupole moment (field-independent basis, Debye-Ang):
   XX=            -11.0434   YY=            -13.1106   ZZ=            -11.1384
   XY=             -0.1007   XZ=             -0.0000   YZ=              0.0000

  Exact polarizability:   9.796  -0.993  13.480  -0.000   0.000   8.029
 Approx polarizability:  14.630  -1.042  29.063  -0.000   0.000  12.693

                      1                      2                      3
                     A'                     A'                     A'
 Frequencies --     50.9791                87.6776              2133.8767
 Red. masses --      1.6758                 1.1927                13.4389
 Frc consts  --      0.0026                 0.0054                36.0540
 IR Inten    --      0.1401                 0.0323                64.0550

 - Thermochemistry -
 -------------------
 Temperature   298.150 Kelvin.  Pressure   1.00000 Atm.
 Atom     1 has atomic number  6 and mass  12.00000

 Molecular mass:    29.00274 amu.
 Principal axes and moments of inertia in atomic units:
                           1         2         3
     Eigenvalues --    14.06996  57.40142  71.47138
           X           -0.50370   0.86388   0.00000
           Y            0.86388   0.50370   0.00000
           Z            0.00000   0.00000   1.00000
 This molecule is an asymmetric top.
 Rotational symmetry number  1.
 Rotational temperatures (Kelvin)      6.15595     1.50892     1.21187
 Rotational constants (GHZ):         128.26911    31.44071    25.25124
 Zero-point vibrational energy      13592.8 (Joules/Mol)
                                    3.24875 (Kcal/Mol)
 Warning -- explicit consideration of   2 degrees of freedom as
           vibrations may cause significant error
 Vibrational temperatures:     73.35   126.15  3070.17
          (Kelvin)

 Zero-point correction=                           0.005177 (Hartree/Particle)
 Thermal correction to Energy=                    0.009601
 Thermal correction to Enthalpy=                  0.010546
 Thermal correction to Gibbs Free Energy=        -0.020145
 Sum of electronic and zero-point Energies=           -113.815884
 Sum of electronic and thermal Energies=              -113.811460
 Sum of electronic and thermal Enthalpies=            -113.810516
 Sum of electronic and thermal Free Energies=         -113.841206

                     E (Thermal)             CV                S
                      KCal/Mol        Cal/Mol-Kelvin    Cal/Mol-Kelvin
 Total                    6.025              9.904             64.593
 Electronic               0.000              0.000              1.377
 Translational            0.889              2.981             36.028
 Rotational               0.889              2.981             18.696
 Vibrational              4.248              3.942              8.491
 Vibration     1          0.595              1.977              4.779
 Vibration     2          0.601              1.958              3.711

                           ! Non-Optimized Parameters !
 Normal termination of Gaussian 16 at Wed Oct  7 13:12:40 2020.
