 Gaussian 16, Revision A.03,
 Gaussian 16:  ES64L-G16RevA.03 25-Dec-2016

 ----------------------------------------------------------------------
 #P Opt(MaxCyc=100) TPSSTPSS/6-31G* 5D 7F Integral=UltraFineGrid SCF=(N
 oSymm,XQC,MaxCyc=120) EmpiricalDispersion=GD3BJ IOp(1/33=1)
 ----------------------------------------------------------------------

 TstMul:  Mul=     1
 TstMul:  ICh=     0
 TstMul:  Mul=     1
 Symbolic Z-matrix:
 Charge =  0 Multiplicity = 1

 SCF Done:  E(RTPSS-TPSS) =  -93.4081067161     A.U. after   11 cycles
 SCF Done:  E(RTPSS-TPSS) =  -93.4086749145     A.U. after   10 cycles
 SCF Done:  E(RTPSS-TPSS) =  -93.4086776113     A.U. after    7 cycles
 Optimization completed.
    -- Stationary point found.

                         Standard orientation:
 ---------------------------------------------------------------------
 Center     Atomic      Atomic             Coordinates (Angstroms)
 Number     Number       Type             X           Y           Z
 ---------------------------------------------------------------------
      1          6           0        0.000000    0.000000   -0.748903
      2          7           0        0.000000    0.000000    0.436033
      3          1           0        0.000000    0.000000    1.441190
 ---------------------------------------------------------------------

 The electronic state is 1-SG.
 Alpha  occ. eigenvalues --  -14.15494 -10.04351  -0.87282  -0.61179  -0.32782
 Alpha  occ. eigenvalues --   -0.32782  -0.27209
 Alpha virt. eigenvalues --   -0.00558  -0.00558   0.05058   0.33518   0.48310
 Alpha virt. eigenvalues --    0.53896   0.53896   0.63146   0.70534   0.70534
 Alpha virt. eigenvalues --    0.89349   1.15470   1.41400   1.46483   1.46483

 Mulliken charges:
               1
     1  C    0.041785
     2  N   -0.409463
     3  H    0.367679
 Sum of Mulliken charges =  -0.00000

 Dipole moment (field-independent basis, Debye):
    X=              0.0000    Y=             -0.0000    Z=              2.9688  Tot=              2.9688
 Quadrupole moment (field-independent basis, Debye-Ang):
   XX=            -11.5263   YY=            -11.5263   ZZ=             -9.8956
   XY=             -0.0000   XZ=              0.0000   YZ=             -0.0000

 Normal termination of Gaussian 16 at Wed Oct  7 13:06:43 2020.
