 Gaussian 16, Revision A.03,

 ----------------------------------------------------------------------
 #P Opt(TS,MaxCyc=50,NoEigenTest,MaxStep=10,AddRedundant) TPSSTPSS/6-31
 G* 5D 7F Integral=UltraFineGrid SCF=(NoSymm,XQC,MaxCyc=120) EmpiricalD
 ispersion=GD3BJ IOp(1/33=1)
 ----------------------------------------------------------------------

 TstMul:  Mul=     2
 TstMul:  ICh=     0
 TstMul:  Mul=     2
 Symbolic Z-matrix:
 Charge =  0 Multiplicity = 2

 SCF Done:  E(UTPSS-TPSS) =  -185.180218767     A.U. after   18 cycles
 SCF Done:  E(UTPSS-TPSS) =  -185.182543719     A.U. after   16 cycles
 SCF Done:  E(UTPSS-TPSS) =  -185.182734535     A.U. after   13 cycles
 SCF Done:  E(UTPSS-TPSS) =  -185.183257505     A.U. after   16 cycles
 SCF Done:  E(UTPSS-TPSS) =  -185.182671380     A.U. after   17 cycles
 SCF Done:  E(UTPSS-TPSS) =  -185.182652917     A.U. after   12 cycles
 SCF Done:  E(UTPSS-TPSS) =  -185.182653098     A.U. after   10 cycles
 Optimization completed.
    -- Stationary point found.
 Normal termination of Gaussian 16 at Wed Oct  7 13:08:33 2020.
 Gaussian 16:  ES64L-G16RevA.03 25-Dec-2016

 ----------------------------------------------------------------------
 #P Freq TPSSTPSS/6-31G* 5D 7F Integral=UltraFineGrid SCF=(NoSymm,XQC,M
 axCyc=120) EmpiricalDispersion=GD3BJ IOp(1/33=1) Geom=Check Guess=Read
 ----------------------------------------------------------------------

 TstMul:  Mul=     2
 TstMul:  ICh=     0
 TstMul:  Mul=     2
 Structure from the checkpoint file:  "MN_68_n2ohts_BH76_TPSSDBJ_631Gs.chk"
 Charge =  0 Multiplicity = 2

                         Standard orientation:
 ---------------------------------------------------------------------
 Center     Atomic      Atomic             Coordinates (Angstroms)
 Number     Number       Type             X           Y           Z
 ---------------------------------------------------------------------
      1          1           0       -0.405431   -2.000215    0.000000
      2          8           0       -0.880298   -0.615910    0.000000
      3          7           0       -0.000000    0.264448    0.000000
      4          7           0        1.063974    0.725194   -0.000000
 ---------------------------------------------------------------------

 SCF Done:  E(UTPSS-TPSS) =  -185.182653098     A.U. after    1 cycles

 The electronic state is 2-A'.
 Alpha  occ. eigenvalues --  -19.02543 -14.31277 -14.21349  -1.13712  -0.98680
 Alpha  occ. eigenvalues --   -0.59495  -0.49321  -0.48667  -0.43368  -0.34313
 Alpha  occ. eigenvalues --   -0.30739  -0.20004
 Alpha virt. eigenvalues --   -0.08083  -0.06405   0.10499   0.42559   0.56184
 Alpha virt. eigenvalues --    0.58114   0.58710   0.66979   0.68388   0.71131
 Alpha virt. eigenvalues --    0.72116   0.74370   0.89675   0.89900   1.08377

  Beta  occ. eigenvalues --  -19.02504 -14.31078 -14.20707  -1.13254  -0.98048
  Beta  occ. eigenvalues --   -0.58482  -0.48342  -0.48276  -0.42153  -0.31943
  Beta  occ. eigenvalues --   -0.30368
  Beta virt. eigenvalues --   -0.12246  -0.05809  -0.02882   0.11181   0.43160
  Beta virt. eigenvalues --    0.58515   0.59041   0.59719   0.68962   0.70970
  Beta virt. eigenvalues --    0.72567   0.74410   0.76552   0.89815   0.90519

 Mulliken charges and spin densities:
               1          2
     1  H    0.054376   0.702402
     2  O   -0.369007  -0.087628
     3  N    0.415412   0.082334
     4  N   -0.100781   0.302892
 Sum of Mulliken charges =  -0.00000   1.00000

 Dipole moment (field-independent basis, Debye):
    X=             -0.2224    Y=             -0.2209    Z=             -0.0000  Tot=              0.3134
 Quadrupole moment (field-independent basis, Debye-Ang):
   XX=            -18.7988   YY=            -17.2247   ZZ=            -16.3729
   XY=             -1.4039   XZ=              0.0000   YZ=              0.0000

  Exact polarizability:  22.919  12.343  38.326   0.000   0.000   7.625
 Approx polarizability:  73.982  51.832 100.648  -0.000  -0.000  11.500

 ******    1 imaginary frequencies (negative Signs) ******

                      1                      2                      3
                     A'                     A'                     A"
 Frequencies --  -1161.6916               481.7143               559.4877
 Red. masses --      1.5425                 1.3582                 4.2792
 Frc consts  --      1.2265                 0.1857                 0.7892
 IR Inten    --    562.1637                15.8568                 5.1275

                      4                      5                      6
                     A'                     A'                     A'
 Frequencies --    823.7572              1184.1376              2086.0785
 Red. masses --      2.4164                 5.1702                13.9695
 Frc consts  --      0.9661                 4.2713                35.8173
 IR Inten    --      1.5705                37.1957               218.6308

 - Thermochemistry -
 -------------------
 Temperature   298.150 Kelvin.  Pressure   1.00000 Atm.
 Atom     1 has atomic number  1 and mass   1.00783

 Molecular mass:    45.00889 amu.
 Principal axes and moments of inertia in atomic units:
                           1         2         3
     Eigenvalues --     8.90011 158.09752 166.99763
           X            0.78760  -0.61618   0.00000
           Y            0.61618   0.78760   0.00000
           Z           -0.00000   0.00000   1.00000
 This molecule is an asymmetric top.
 Rotational symmetry number  1.
 Rotational temperatures (Kelvin)      9.73178     0.54785     0.51865
 Rotational constants (GHZ):         202.77734    11.41537    10.80699
    1 imaginary frequencies ignored.
 Zero-point vibrational energy      30715.2 (Joules/Mol)
                                    7.34110 (Kcal/Mol)
 Warning -- explicit consideration of   2 degrees of freedom as
           vibrations may cause significant error
 Vibrational temperatures:    693.08   804.98  1185.20  1703.71  3001.40
          (Kelvin)

 Zero-point correction=                           0.011699 (Hartree/Particle)
 Thermal correction to Energy=                    0.015043
 Thermal correction to Enthalpy=                  0.015987
 Thermal correction to Gibbs Free Energy=        -0.012649
 Sum of electronic and zero-point Energies=           -185.170954
 Sum of electronic and thermal Energies=              -185.167610
 Sum of electronic and thermal Enthalpies=            -185.166666
 Sum of electronic and thermal Free Energies=         -185.195303

                     E (Thermal)             CV                S
                      KCal/Mol        Cal/Mol-Kelvin    Cal/Mol-Kelvin
 Total                    9.440              9.208             60.271
 Electronic               0.000              0.000              1.377
 Translational            0.889              2.981             37.338
 Rotational               0.889              2.981             20.091
 Vibrational              7.662              3.246              1.464
 Vibration     1          0.838              1.291              0.705
 Vibration     2          0.915              1.119              0.525

                           ! Non-Optimized Parameters !
 Normal termination of Gaussian 16 at Wed Oct  7 13:09:04 2020.
