 Gaussian 16, Revision A.03,
 Gaussian 16:  ES64L-G16RevA.03 25-Dec-2016

 ----------------------------------------------------------------------
 #P Opt(MaxCyc=100) TPSSTPSS/6-31G* 5D 7F Integral=UltraFineGrid SCF=(N
 oSymm,XQC,MaxCyc=120) EmpiricalDispersion=GD3BJ IOp(1/33=1)
 ----------------------------------------------------------------------

 TstMul:  Mul=     3
 TstMul:  ICh=     0
 TstMul:  Mul=     3
 Symbolic Z-matrix:
 Charge =  0 Multiplicity = 3

 SCF Done:  E(UTPSS-TPSS) =  -55.2287825661     A.U. after   12 cycles
 SCF Done:  E(UTPSS-TPSS) =  -55.2289157898     A.U. after    8 cycles
 SCF Done:  E(UTPSS-TPSS) =  -55.2289168103     A.U. after    7 cycles
 Optimization completed.
    -- Stationary point found.

                         Standard orientation:
 ---------------------------------------------------------------------
 Center     Atomic      Atomic             Coordinates (Angstroms)
 Number     Number       Type             X           Y           Z
 ---------------------------------------------------------------------
      1          7           0        0.000000    0.000000    0.131361
      2          1           0        0.000000    0.000000   -0.919530
 ---------------------------------------------------------------------

 The electronic state is 3-SG.
 Alpha  occ. eigenvalues --  -14.18643  -0.77614  -0.34884  -0.28167  -0.28167
 Alpha virt. eigenvalues --    0.07211   0.61428   0.61428   0.69193   0.71604
 Alpha virt. eigenvalues --    0.93084   1.61494   1.61494   1.61724   1.61724
 Alpha virt. eigenvalues --    2.18148
  Beta  occ. eigenvalues --  -14.14561  -0.67565  -0.31223
  Beta virt. eigenvalues --   -0.11198  -0.11198   0.10059   0.73476   0.73476
  Beta virt. eigenvalues --    0.73700   0.77747   1.03684   1.73493   1.73493
  Beta virt. eigenvalues --    1.77789   1.77789   2.29477

 Mulliken charges and spin densities:
               1          2
     1  N   -0.296925   2.051799
     2  H    0.296925  -0.051799
 Sum of Mulliken charges =  -0.00000   2.00000

 Dipole moment (field-independent basis, Debye):
    X=              0.0000    Y=              0.0000    Z=             -1.5962  Tot=              1.5962
 Quadrupole moment (field-independent basis, Debye-Ang):
   XX=             -6.1483   YY=             -6.1483   ZZ=             -5.7623
   XY=              0.0000   XZ=              0.0000   YZ=              0.0000

 Normal termination of Gaussian 16 at Wed Oct  7 13:07:06 2020.
