 Gaussian 16, Revision A.03,
 Gaussian 16:  ES64L-G16RevA.03 25-Dec-2016

 ----------------------------------------------------------------------
 #P Opt(MaxCyc=100) TPSSTPSS/6-31G* 5D 7F Integral=UltraFineGrid SCF=(N
 oSymm,XQC,MaxCyc=120) EmpiricalDispersion=GD3BJ IOp(1/33=1)
 ----------------------------------------------------------------------

 TstMul:  Mul=     1
 TstMul:  ICh=    -1
 TstMul:  Mul=     1
 Symbolic Z-matrix:
 Charge = -1 Multiplicity = 1

 SCF Done:  E(RTPSS-TPSS) =  -215.570634250     A.U. after   13 cycles
 SCF Done:  E(RTPSS-TPSS) =  -215.571799698     A.U. after   12 cycles
 SCF Done:  E(RTPSS-TPSS) =  -215.573423484     A.U. after   11 cycles
 SCF Done:  E(RTPSS-TPSS) =  -215.574953648     A.U. after   12 cycles
 SCF Done:  E(RTPSS-TPSS) =  -215.573020686     A.U. after   12 cycles
 SCF Done:  E(RTPSS-TPSS) =  -215.576945999     A.U. after   12 cycles
 SCF Done:  E(RTPSS-TPSS) =  -215.577303130     A.U. after   11 cycles
 SCF Done:  E(RTPSS-TPSS) =  -215.577464001     A.U. after   11 cycles
 SCF Done:  E(RTPSS-TPSS) =  -215.577468261     A.U. after   10 cycles
 SCF Done:  E(RTPSS-TPSS) =  -215.577477598     A.U. after    9 cycles
 SCF Done:  E(RTPSS-TPSS) =  -215.577478175     A.U. after    8 cycles
 Optimization completed.
    -- Stationary point found.

                         Standard orientation:
 ---------------------------------------------------------------------
 Center     Atomic      Atomic             Coordinates (Angstroms)
 Number     Number       Type             X           Y           Z
 ---------------------------------------------------------------------
      1          6           0       -1.265563   -0.380505   -0.000091
      2          8           0       -0.493656    0.745490    0.000087
      3          1           0       -2.366453   -0.147448   -0.014829
      4          1           0       -1.115449   -1.074256   -0.881117
      5          1           0       -1.137227   -1.060717    0.895375
      6          1           0        0.706713    0.294095    0.000743
      7          9           0        1.717227   -0.188063   -0.000036
 ---------------------------------------------------------------------

 The electronic state is 1-A.
 Alpha  occ. eigenvalues --  -24.04215 -18.59554  -9.82051  -0.72586  -0.64082
 Alpha  occ. eigenvalues --   -0.37553  -0.18688  -0.15854  -0.13360  -0.07435
 Alpha  occ. eigenvalues --    0.01087   0.01097   0.04596   0.05687
 Alpha virt. eigenvalues --    0.28658   0.34251   0.35256   0.38556   0.51153
 Alpha virt. eigenvalues --    0.75554   0.77765   0.79914   0.91784   1.01538
 Alpha virt. eigenvalues --    1.02308   1.08877   1.19936   1.21152   1.22002

 Mulliken charges:
               1
     1  C   -0.102128
     2  O   -0.716601
     3  H    0.015052
     4  H    0.017343
     5  H    0.015968
     6  H    0.459628
     7  F   -0.689262
 Sum of Mulliken charges =  -1.00000

 Dipole moment (field-independent basis, Debye):
    X=             -1.7177    Y=             -0.9099    Z=             -0.0039  Tot=              1.9438
 Quadrupole moment (field-independent basis, Debye-Ang):
   XX=            -30.4916   YY=            -22.8467   ZZ=            -20.7523
   XY=              1.7417   XZ=              0.0080   YZ=              0.0064

 Normal termination of Gaussian 16 at Wed Oct  7 13:09:08 2020.
