 Gaussian 16, Revision A.03,
 Gaussian 16:  ES64L-G16RevA.03 25-Dec-2016

 ----------------------------------------------------------------------
 #P Opt(MaxCyc=100) TPSSTPSS/6-31G* 5D 7F Integral=UltraFineGrid SCF=(N
 oSymm,XQC,MaxCyc=120) EmpiricalDispersion=GD3BJ IOp(1/33=1)
 ----------------------------------------------------------------------

 TstMul:  Mul=     1
 TstMul:  ICh=     0
 TstMul:  Mul=     1
 Symbolic Z-matrix:
 Charge =  0 Multiplicity = 1

 SCF Done:  E(RTPSS-TPSS) =  -109.538589535     A.U. after    8 cycles
 SCF Done:  E(RTPSS-TPSS) =  -109.539376588     A.U. after    6 cycles
 SCF Done:  E(RTPSS-TPSS) =  -109.539386880     A.U. after    5 cycles
 Optimization completed.
    -- Stationary point found.

                         Standard orientation:
 ---------------------------------------------------------------------
 Center     Atomic      Atomic             Coordinates (Angstroms)
 Number     Number       Type             X           Y           Z
 ---------------------------------------------------------------------
      1          7           0        0.000000    0.000000    0.557022
      2          7           0        0.000000    0.000000   -0.557022
 ---------------------------------------------------------------------

 The electronic state is 1-SGG.
 Alpha  occ. eigenvalues --  -14.21863 -14.21772  -1.04067  -0.50324  -0.41487
 Alpha  occ. eigenvalues --   -0.41487  -0.36990
 Alpha virt. eigenvalues --   -0.05926  -0.05926   0.39225   0.58669   0.59160
 Alpha virt. eigenvalues --    0.59160   0.70299   0.73105   0.73105   0.76780
 Alpha virt. eigenvalues --    1.25430   1.41413   1.41413   1.49756   1.49756

 Mulliken charges:
               1
     1  N   -0.000000
     2  N   -0.000000
 Sum of Mulliken charges =  -0.00000

 Dipole moment (field-independent basis, Debye):
    X=             -0.0000    Y=             -0.0000    Z=              0.0000  Tot=              0.0000
 Quadrupole moment (field-independent basis, Debye-Ang):
   XX=             -9.9979   YY=             -9.9979   ZZ=            -11.5950
   XY=             -0.0000   XZ=              0.0000   YZ=             -0.0000

 Normal termination of Gaussian 16 at Wed Oct  7 13:07:15 2020.
