 Gaussian 16, Revision A.03,
 Gaussian 16:  ES64L-G16RevA.03 25-Dec-2016

 ----------------------------------------------------------------------
 #P Opt(MaxCyc=100) TPSSTPSS/6-31G* 5D 7F Integral=UltraFineGrid SCF=(N
 oSymm,XQC,MaxCyc=120) EmpiricalDispersion=GD3BJ IOp(1/33=1)
 ----------------------------------------------------------------------

 TstMul:  Mul=     2
 TstMul:  ICh=     0
 TstMul:  Mul=     2
 Symbolic Z-matrix:
 Charge =  0 Multiplicity = 2

 SCF Done:  E(UTPSS-TPSS) =  -398.740905647     A.U. after   12 cycles
 SCF Done:  E(UTPSS-TPSS) =  -398.741016501     A.U. after    9 cycles
 Optimization completed.
    -- Stationary point found.

                         Standard orientation:
 ---------------------------------------------------------------------
 Center     Atomic      Atomic             Coordinates (Angstroms)
 Number     Number       Type             X           Y           Z
 ---------------------------------------------------------------------
      1         16           0        0.000000    0.000000    0.079757
      2          1           0        0.000000    0.000000   -1.276109
 ---------------------------------------------------------------------

 Unable to determine electronic state:  partially filled degenerate orbitals.
 Alpha  occ. eigenvalues --  -88.38271  -7.76563  -5.75277  -5.74411  -5.73302
 Alpha  occ. eigenvalues --   -0.68597  -0.38008  -0.29041  -0.23970
 Alpha virt. eigenvalues --    0.00637   0.26205   0.31605   0.31818   0.34630
 Alpha virt. eigenvalues --    0.66399   0.66772   0.69353   0.70502   0.70846
 Alpha virt. eigenvalues --    1.07143
  Beta  occ. eigenvalues --  -88.37767  -7.76096  -5.74122  -5.73852  -5.73016
  Beta  occ. eigenvalues --   -0.65018  -0.36700  -0.22594
  Beta virt. eigenvalues --   -0.20379   0.02076   0.28019   0.32633   0.35548
  Beta virt. eigenvalues --    0.35907   0.69295   0.72400   0.73024   0.75744
  Beta virt. eigenvalues --    0.76421   1.09802

 Mulliken charges and spin densities:
               1          2
     1  S   -0.107733   1.030182
     2  H    0.107733  -0.030182
 Sum of Mulliken charges =  -0.00000   1.00000

 Dipole moment (field-independent basis, Debye):
    X=              0.0000    Y=             -0.0000    Z=             -1.0646  Tot=              1.0646
 Quadrupole moment (field-independent basis, Debye-Ang):
   XX=            -15.6597   YY=            -12.7840   ZZ=            -11.9953
   XY=              0.0000   XZ=              0.0000   YZ=             -0.0000

 Normal termination of Gaussian 16 at Wed Oct  7 13:07:00 2020.
