 Gaussian 16, Revision A.03,
 Gaussian 16:  ES64L-G16RevA.03 25-Dec-2016

 ----------------------------------------------------------------------
 #P Opt(MaxCyc=100) TPSSTPSS/6-31G* 5D 7F Integral=UltraFineGrid SCF=(N
 oSymm,XQC,MaxCyc=120) EmpiricalDispersion=GD3BJ IOp(1/33=1)
 ----------------------------------------------------------------------

 TstMul:  Mul=     1
 TstMul:  ICh=     0
 TstMul:  Mul=     1
 Symbolic Z-matrix:
 Charge =  0 Multiplicity = 1

 SCF Done:  E(RTPSS-TPSS) =  -184.696025781     A.U. after   13 cycles
 SCF Done:  E(RTPSS-TPSS) =  -184.697880387     A.U. after   12 cycles
 SCF Done:  E(RTPSS-TPSS) =  -184.697928176     A.U. after    9 cycles
 Optimization completed.
    -- Stationary point found.

                         Standard orientation:
 ---------------------------------------------------------------------
 Center     Atomic      Atomic             Coordinates (Angstroms)
 Number     Number       Type             X           Y           Z
 ---------------------------------------------------------------------
      1          7           0        0.000000    0.000000   -1.218588
      2          7           0        0.000000    0.000000   -0.071349
      3          8           0        0.000000    0.000000    1.128695
 ---------------------------------------------------------------------

 The electronic state is 1-SG.
 Alpha  occ. eigenvalues --  -19.00673 -14.33417 -14.21164  -1.15630  -1.00136
 Alpha  occ. eigenvalues --   -0.55111  -0.50098  -0.50098  -0.42348  -0.29915
 Alpha  occ. eigenvalues --   -0.29915
 Alpha virt. eigenvalues --   -0.05019  -0.05019   0.08876   0.40135   0.57314
 Alpha virt. eigenvalues --    0.58188   0.58188   0.71066   0.71810   0.72234
 Alpha virt. eigenvalues --    0.72234   0.92352   0.92352   0.99976   1.30945

 Mulliken charges:
               1
     1  N   -0.106419
     2  N    0.536791
     3  O   -0.430372
 Sum of Mulliken charges =  -0.00000

 Dipole moment (field-independent basis, Debye):
    X=              0.0000    Y=             -0.0000    Z=              0.1300  Tot=              0.1300
 Quadrupole moment (field-independent basis, Debye-Ang):
   XX=            -14.9999   YY=            -14.9999   ZZ=            -18.6164
   XY=              0.0000   XZ=              0.0000   YZ=             -0.0000

 1\1\GINC-NODE56\FOpt\RTPSSTPSS\6-31G(d)\N2O1\RPEVERATI\07-Oct-2020\0\\
 #P Opt(MaxCyc=100) TPSSTPSS/6-31G* 5D 7F Integral=UltraFineGrid SCF=(N
 oSymm,XQC,MaxCyc=120) EmpiricalDispersion=GD3BJ IOp(1/33=1)\\TS search
  on BH76.\\0,1\N,0.,0.,-1.2177901789\N,0.,0.,-0.0705512792\O,0.,0.,1.1
 294935722\\Version=ES64L-G16RevA.03\State=1-SG\HF=-184.6979282\RMSD=6.
 515e-10\RMSF=1.972e-04\Dipole=0.,0.,0.0511474\Quadrupole=0.8962811,0.8
 962811,-1.7925622,0.,0.,0.\PG=C*V [C*(N1N1O1)]\\@

 Normal termination of Gaussian 16 at Wed Oct  7 13:07:37 2020.
