 Gaussian 16, Revision A.03,
 Gaussian 16:  ES64L-G16RevA.03 25-Dec-2016

 ----------------------------------------------------------------------
 #P Opt(MaxCyc=100) TPSSTPSS/6-31G* 5D 7F Integral=UltraFineGrid SCF=(N
 oSymm,XQC,MaxCyc=120) EmpiricalDispersion=GD3BJ IOp(1/33=1)
 ----------------------------------------------------------------------

 TstMul:  Mul=     1
 TstMul:  ICh=    -1
 TstMul:  Mul=     1
 Symbolic Z-matrix:
 Charge = -1 Multiplicity = 1

 SCF Done:  E(RTPSS-TPSS) =  -215.496741395     A.U. after   17 cycles
 SCF Done:  E(RTPSS-TPSS) =  -215.501086173     A.U. after   13 cycles
 SCF Done:  E(RTPSS-TPSS) =  -215.504531006     A.U. after   14 cycles
 SCF Done:  E(RTPSS-TPSS) =  -215.506475917     A.U. after   12 cycles
 SCF Done:  E(RTPSS-TPSS) =  -215.506744274     A.U. after   13 cycles
 SCF Done:  E(RTPSS-TPSS) =  -215.507458395     A.U. after   12 cycles
 SCF Done:  E(RTPSS-TPSS) =  -215.507629980     A.U. after   11 cycles
 SCF Done:  E(RTPSS-TPSS) =  -215.507770466     A.U. after   12 cycles
 SCF Done:  E(RTPSS-TPSS) =  -215.507806618     A.U. after   10 cycles
 SCF Done:  E(RTPSS-TPSS) =  -215.507829959     A.U. after   10 cycles
 SCF Done:  E(RTPSS-TPSS) =  -215.510949317     A.U. after   12 cycles
 SCF Done:  E(RTPSS-TPSS) =  -215.511029028     A.U. after   12 cycles
 SCF Done:  E(RTPSS-TPSS) =  -215.511282253     A.U. after   11 cycles
 SCF Done:  E(RTPSS-TPSS) =  -215.511387787     A.U. after   11 cycles
 SCF Done:  E(RTPSS-TPSS) =  -215.511413501     A.U. after   11 cycles
 SCF Done:  E(RTPSS-TPSS) =  -215.511434495     A.U. after   11 cycles
 SCF Done:  E(RTPSS-TPSS) =  -215.511441729     A.U. after    8 cycles
 SCF Done:  E(RTPSS-TPSS) =  -215.511443841     A.U. after    9 cycles
 SCF Done:  E(RTPSS-TPSS) =  -215.511443996     A.U. after    8 cycles
 SCF Done:  E(RTPSS-TPSS) =  -215.511444021     A.U. after    7 cycles
 Optimization completed.
    -- Stationary point found.

                         Standard orientation:
 ---------------------------------------------------------------------
 Center     Atomic      Atomic             Coordinates (Angstroms)
 Number     Number       Type             X           Y           Z
 ---------------------------------------------------------------------
      1          9           0        1.677171    0.421951   -0.015354
      2          6           0        0.564641   -0.493452    0.017240
      3          1           0       -0.506986   -0.016100   -0.089986
      4          1           0        0.737945   -1.228145   -0.793809
      5          1           0        0.642364   -1.044005    0.976113
      6          8           0       -2.145818    0.140456   -0.114075
      7          1           0       -2.189163    0.327753    0.855025
 ---------------------------------------------------------------------

 The electronic state is 1-A.
 Alpha  occ. eigenvalues --  -24.18493 -18.51508  -9.83106  -0.87601  -0.50957
 Alpha  occ. eigenvalues --   -0.41659  -0.20980  -0.20551  -0.18168  -0.08098
 Alpha  occ. eigenvalues --   -0.07350  -0.02791   0.12020   0.12572
 Alpha virt. eigenvalues --    0.27974   0.29423   0.33067   0.34999   0.48677
 Alpha virt. eigenvalues --    0.70120   0.74242   0.76791   1.02154   1.04831
 Alpha virt. eigenvalues --    1.08347   1.11528   1.15780   1.23065   1.31928

 Mulliken charges:
               1
     1  F   -0.402449
     2  C   -0.193787
     3  H    0.239147
     4  H    0.055917
     5  H    0.052354
     6  O   -0.969117
     7  H    0.217935
 Sum of Mulliken charges =  -1.00000

 Dipole moment (field-independent basis, Debye):
    X=              5.3676    Y=             -0.9109    Z=              1.2772  Tot=              5.5922
 Quadrupole moment (field-independent basis, Debye-Ang):
   XX=            -41.8554   YY=            -20.9010   ZZ=            -19.2430
   XY=             -0.0244   XZ=             -2.8731   YZ=              0.5208

 Normal termination of Gaussian 16 at Wed Oct  7 13:18:12 2020.
