 Gaussian 16, Revision A.03,

 ----------------------------------------------------------------------
 #P Opt(TS,MaxCyc=50,NoEigenTest,MaxStep=10,AddRedundant) TPSSTPSS/6-31
 G* 5D 7F Integral=UltraFineGrid SCF=(NoSymm,XQC,MaxCyc=120) EmpiricalD
 ispersion=GD3BJ IOp(1/33=1)
 ----------------------------------------------------------------------

 TstMul:  Mul=     1
 TstMul:  ICh=    -1
 TstMul:  Mul=     1
 Symbolic Z-matrix:
 Charge = -1 Multiplicity = 1

 SCF Done:  E(RTPSS-TPSS) =  -215.500931042     A.U. after   14 cycles
 SCF Done:  E(RTPSS-TPSS) =  -215.501979709     A.U. after   12 cycles
 SCF Done:  E(RTPSS-TPSS) =  -215.502105698     A.U. after   11 cycles
 SCF Done:  E(RTPSS-TPSS) =  -215.502179158     A.U. after   12 cycles
 SCF Done:  E(RTPSS-TPSS) =  -215.502199114     A.U. after   11 cycles
 SCF Done:  E(RTPSS-TPSS) =  -215.502217230     A.U. after    9 cycles
 SCF Done:  E(RTPSS-TPSS) =  -215.502217438     A.U. after   13 cycles
 SCF Done:  E(RTPSS-TPSS) =  -215.502185260     A.U. after   12 cycles
 SCF Done:  E(RTPSS-TPSS) =  -215.502157767     A.U. after   12 cycles
 SCF Done:  E(RTPSS-TPSS) =  -215.502162239     A.U. after    8 cycles
 SCF Done:  E(RTPSS-TPSS) =  -215.502161999     A.U. after    9 cycles
 SCF Done:  E(RTPSS-TPSS) =  -215.502162503     A.U. after    8 cycles
 Optimization completed.
    -- Stationary point found.
 Normal termination of Gaussian 16 at Wed Oct  7 13:10:46 2020.
 Gaussian 16:  ES64L-G16RevA.03 25-Dec-2016

 ----------------------------------------------------------------------
 #P Freq TPSSTPSS/6-31G* 5D 7F Integral=UltraFineGrid SCF=(NoSymm,XQC,M
 axCyc=120) EmpiricalDispersion=GD3BJ IOp(1/33=1) Geom=Check Guess=Read
 ----------------------------------------------------------------------

 TstMul:  Mul=     1
 TstMul:  ICh=    -1
 TstMul:  Mul=     1
 Structure from the checkpoint file:  "MN_63_hoch3fts_BH76_TPSSDBJ_631Gs.chk"
 Charge = -1 Multiplicity = 1

                         Standard orientation:
 ---------------------------------------------------------------------
 Center     Atomic      Atomic             Coordinates (Angstroms)
 Number     Number       Type             X           Y           Z
 ---------------------------------------------------------------------
      1          9           0        1.865129   -0.020197   -0.000005
      2          6           0        0.074843    0.027880    0.000035
      3          1           0        0.033972    1.106977    0.002566
      4          1           0        0.019790   -0.500591   -0.940277
      5          1           0        0.019532   -0.505202    0.937677
      6          8           0       -1.904884    0.098208    0.000008
      7          1           0       -2.069442   -0.872351   -0.000194
 ---------------------------------------------------------------------

 SCF Done:  E(RTPSS-TPSS) =  -215.502162503     A.U. after    1 cycles

 The electronic state is 1-A.
 Alpha  occ. eigenvalues --  -24.03590 -18.57632  -9.81724  -0.69877  -0.57391
 Alpha  occ. eigenvalues --   -0.39043  -0.17144  -0.17094  -0.08594  -0.04560
 Alpha  occ. eigenvalues --    0.02669   0.02784   0.06371   0.07567
 Alpha virt. eigenvalues --    0.27192   0.29202   0.34818   0.36312   0.36581
 Alpha virt. eigenvalues --    0.76420   0.77093   0.87630   1.00461   1.06058
 Alpha virt. eigenvalues --    1.09526   1.10928   1.16548   1.19728   1.31473

 Mulliken charges:
               1
     1  F   -0.598354
     2  C   -0.160789
     3  H    0.132696
     4  H    0.120214
     5  H    0.120121
     6  O   -0.872250
     7  H    0.258362
 Sum of Mulliken charges =  -1.00000

 Dipole moment (field-independent basis, Debye):
    X=              0.3829    Y=             -1.1856    Z=             -0.0002  Tot=              1.2459
 Quadrupole moment (field-independent basis, Debye-Ang):
   XX=            -40.4431   YY=            -18.1793   ZZ=            -19.6373
   XY=              2.9374   XZ=              0.0003   YZ=              0.0002

  Exact polarizability:  40.617   2.307  20.496   0.000   0.000  15.977
 Approx polarizability:  84.686   0.366  29.684  -0.001   0.001  21.114

 ******    1 imaginary frequencies (negative Signs) ******

                      1                      2                      3
                      A                      A                      A
 Frequencies --   -415.3174               202.4824               290.9315
 Red. masses --      9.9292                 1.0519                 3.3363
 Frc consts  --      1.0091                 0.0254                 0.1664
 IR Inten    --    700.2429                42.5725                13.1507

                      4                      5                      6
                      A                      A                      A
 Frequencies --    310.4960               341.0188               773.4583
 Red. masses --      4.4682                12.9212                 1.1287
 Frc consts  --      0.2538                 0.8853                 0.3978
 IR Inten    --     21.1815                 5.3219                26.8765

                      7                      8                      9
                      A                      A                      A
 Frequencies --    964.3781              1009.9026              1090.9411
 Red. masses --      1.0211                 1.0561                 1.0607
 Frc consts  --      0.5595                 0.6346                 0.7437
 IR Inten    --      0.0270                 2.6205                 1.9653

                     10                     11                     12
                      A                      A                      A
 Frequencies --   1388.9138              1393.1476              3111.4617
 Red. masses --      1.1244                 1.1151                 1.0084
 Frc consts  --      1.2780                 1.2752                 5.7522
 IR Inten    --      0.6283                 0.9983                 0.2224

                     13                     14                     15
                      A                      A                      A
 Frequencies --   3288.5863              3294.1462              3503.4763
 Red. masses --      1.1279                 1.1260                 1.0676
 Frc consts  --      7.1871                 7.1987                 7.7207
 IR Inten    --     59.4703                47.5738                94.7149

 - Thermochemistry -
 -------------------
 Temperature   298.150 Kelvin.  Pressure   1.00000 Atm.
 Atom     1 has atomic number  9 and mass  18.99840

 Molecular mass:    51.02462 amu.
 Principal axes and moments of inertia in atomic units:
                           1         2         3
     Eigenvalues --    15.78613 464.34255 467.43593
           X            0.99989   0.01514   0.00000
           Y           -0.01514   0.99989  -0.00001
           Z           -0.00000   0.00001   1.00000
 This molecule is an asymmetric top.
 Rotational symmetry number  1.
 Rotational temperatures (Kelvin)      5.48671     0.18653     0.18530
 Rotational constants (GHZ):         114.32449     3.88666     3.86094
    1 imaginary frequencies ignored.
 Zero-point vibrational energy     125388.6 (Joules/Mol)
                                   29.96860 (Kcal/Mol)
 Warning -- explicit consideration of   4 degrees of freedom as
           vibrations may cause significant error
 Vibrational temperatures:    291.33   418.59   446.73   490.65  1112.83
          (Kelvin)           1387.52  1453.02  1569.62  1998.34  2004.43
                             4476.70  4731.54  4739.54  5040.72

 Zero-point correction=                           0.047758 (Hartree/Particle)
 Thermal correction to Energy=                    0.052563
 Thermal correction to Enthalpy=                  0.053507
 Thermal correction to Gibbs Free Energy=         0.021606
 Sum of electronic and zero-point Energies=           -215.454404
 Sum of electronic and thermal Energies=              -215.449600
 Sum of electronic and thermal Enthalpies=            -215.448655
 Sum of electronic and thermal Free Energies=         -215.480557

                     E (Thermal)             CV                S
                      KCal/Mol        Cal/Mol-Kelvin    Cal/Mol-Kelvin
 Total                   32.984             14.722             67.142
 Electronic               0.000              0.000              0.000
 Translational            0.889              2.981             37.712
 Rotational               0.889              2.981             22.754
 Vibrational             31.206              8.760              6.676
 Vibration     1          0.639              1.836              2.110
 Vibration     2          0.687              1.691              1.469
 Vibration     3          0.699              1.654              1.360
 Vibration     4          0.721              1.594              1.207

                           ! Non-Optimized Parameters !
 Normal termination of Gaussian 16 at Wed Oct  7 13:11:26 2020.
