 Gaussian 16, Revision A.03,
 Gaussian 16:  ES64L-G16RevA.03 25-Dec-2016

 ----------------------------------------------------------------------
 #P Opt(MaxCyc=100) TPSSTPSS/6-31G* 5D 7F Integral=UltraFineGrid SCF=(N
 oSymm,XQC,MaxCyc=120) EmpiricalDispersion=GD3BJ IOp(1/33=1)
 ----------------------------------------------------------------------

 TstMul:  Mul=     1
 TstMul:  ICh=     0
 TstMul:  Mul=     1
 Symbolic Z-matrix:
 Charge =  0 Multiplicity = 1

 SCF Done:  E(RTPSS-TPSS) =  -56.5497220410     A.U. after    9 cycles
 SCF Done:  E(RTPSS-TPSS) =  -56.5501968685     A.U. after    9 cycles
 SCF Done:  E(RTPSS-TPSS) =  -56.5502612743     A.U. after    8 cycles
 Optimization completed.
    -- Stationary point found.

                         Standard orientation:
 ---------------------------------------------------------------------
 Center     Atomic      Atomic             Coordinates (Angstroms)
 Number     Number       Type             X           Y           Z
 ---------------------------------------------------------------------
      1          7           0        0.000000    0.000000    0.122694
      2          1           0        0.000000    0.940547   -0.286286
      3          1           0        0.814537   -0.470273   -0.286286
      4          1           0       -0.814537   -0.470273   -0.286286
 ---------------------------------------------------------------------

 The electronic state is 1-A1.
 Alpha  occ. eigenvalues --  -14.08679  -0.78394  -0.40576  -0.40576  -0.20823
 Alpha virt. eigenvalues --    0.06719   0.14989   0.14989   0.66889   0.66889
 Alpha virt. eigenvalues --    0.69809   0.88335   0.88335   0.90987   1.22466
 Alpha virt. eigenvalues --    1.64461   1.64461   1.91056   2.39084   2.39084

 Mulliken charges:
               1
     1  N   -0.891339
     2  H    0.297113
     3  H    0.297113
     4  H    0.297113
 Sum of Mulliken charges =  -0.00000

 Dipole moment (field-independent basis, Debye):
    X=              0.0000    Y=             -0.0000    Z=             -1.9138  Tot=              1.9138
 Quadrupole moment (field-independent basis, Debye-Ang):
   XX=             -6.1816   YY=             -6.1816   ZZ=             -8.7686
   XY=             -0.0000   XZ=             -0.0000   YZ=              0.0000

 1\1\GINC-NODE20\FOpt\RTPSSTPSS\6-31G(d)\H3N1\RPEVERATI\07-Oct-2020\0\\
 #P Opt(MaxCyc=100) TPSSTPSS/6-31G* 5D 7F Integral=UltraFineGrid SCF=(N
 oSymm,XQC,MaxCyc=120) EmpiricalDispersion=GD3BJ IOp(1/33=1)\\TS search
  on BH76.\\0,1\N,0.,0.,0.3067555515\H,0.4702732838,0.814537221,-0.1022
 244103\H,0.4702732838,-0.814537221,-0.1022244103\H,-0.9405465677,0.,-0
 .1022244103\\Version=ES64L-G16RevA.03\State=1-A1\HF=-56.5502613\RMSD=9
 .569e-09\RMSF=7.337e-05\Dipole=0.,0.,-0.7529558\Quadrupole=0.6411218,0
 .6411218,-1.2822437,0.,0.,0.\PG=C03V [C3(N1),3SGV(H1)]\\@

 Normal termination of Gaussian 16 at Wed Oct  7 13:07:14 2020.
