 Gaussian 16, Revision A.03,
 Gaussian 16:  ES64L-G16RevA.03 25-Dec-2016

 ----------------------------------------------------------------------
 #P Opt(MaxCyc=100) TPSSTPSS/6-31G* 5D 7F Integral=UltraFineGrid SCF=(N
 oSymm,XQC,MaxCyc=120) EmpiricalDispersion=GD3BJ IOp(1/33=1)
 ----------------------------------------------------------------------

 TstMul:  Mul=     1
 TstMul:  ICh=    -1
 TstMul:  Mul=     1
 Symbolic Z-matrix:
 Charge = -1 Multiplicity = 1

 SCF Done:  E(RTPSS-TPSS) =  -75.7173731971     A.U. after   11 cycles
 SCF Done:  E(RTPSS-TPSS) =  -75.7183393891     A.U. after   10 cycles
 SCF Done:  E(RTPSS-TPSS) =  -75.7183783000     A.U. after    7 cycles
 Optimization completed.
    -- Stationary point found.

                         Standard orientation:
 ---------------------------------------------------------------------
 Center     Atomic      Atomic             Coordinates (Angstroms)
 Number     Number       Type             X           Y           Z
 ---------------------------------------------------------------------
      1          8           0        0.000000    0.000000    0.110966
      2          1           0        0.000000    0.000000   -0.887730
 ---------------------------------------------------------------------

 The electronic state is 1-SG.
 Alpha  occ. eigenvalues --  -18.42151  -0.41088   0.05437   0.21527   0.21527
 Alpha virt. eigenvalues --    0.39788   1.15442   1.26782   1.26782   1.31055
 Alpha virt. eigenvalues --    1.63873   2.17275   2.17275   2.23433   2.23433
 Alpha virt. eigenvalues --    2.82057

 Mulliken charges:
               1
     1  O   -1.143911
     2  H    0.143911
 Sum of Mulliken charges =  -1.00000

 Dipole moment (field-independent basis, Debye):
    X=              0.0000    Y=              0.0000    Z=             -1.1339  Tot=              1.1339
 Quadrupole moment (field-independent basis, Debye-Ang):
   XX=             -7.9869   YY=             -7.9869   ZZ=             -6.8524
   XY=             -0.0000   XZ=              0.0000   YZ=             -0.0000

 Normal termination of Gaussian 16 at Wed Oct  7 13:07:20 2020.
