 Gaussian 16, Revision A.03,
 Gaussian 16:  ES64L-G16RevA.03 25-Dec-2016

 ----------------------------------------------------------------------
 #P Opt(MaxCyc=100) TPSSTPSS/6-31G* 5D 7F Integral=UltraFineGrid SCF=(N
 oSymm,XQC,MaxCyc=120) EmpiricalDispersion=GD3BJ IOp(1/33=1)
 ----------------------------------------------------------------------

 TstMul:  Mul=     2
 TstMul:  ICh=     0
 TstMul:  Mul=     2
 Symbolic Z-matrix:
 Charge =  0 Multiplicity = 2

 SCF Done:  E(UTPSS-TPSS) =  -342.507357670     A.U. after   12 cycles
 SCF Done:  E(UTPSS-TPSS) =  -342.507484338     A.U. after    8 cycles
 SCF Done:  E(UTPSS-TPSS) =  -342.507484483     A.U. after    6 cycles
 Optimization completed.
    -- Stationary point found.

                         Standard orientation:
 ---------------------------------------------------------------------
 Center     Atomic      Atomic             Coordinates (Angstroms)
 Number     Number       Type             X           Y           Z
 ---------------------------------------------------------------------
      1         15           0        0.000000   -0.000000    0.117334
      2          1           0       -0.000000    1.023847   -0.880002
      3          1           0       -0.000000   -1.023847   -0.880002
 ---------------------------------------------------------------------

 The electronic state is 2-B1.
 Alpha  occ. eigenvalues --  -76.60183  -6.37939  -4.56146  -4.55652  -4.55285
 Alpha  occ. eigenvalues --   -0.59216  -0.35898  -0.28101  -0.22416
 Alpha virt. eigenvalues --    0.00439   0.05711   0.22769   0.26735   0.28329
 Alpha virt. eigenvalues --    0.29114   0.60416   0.61163   0.62208   0.65450
 Alpha virt. eigenvalues --    0.70401   0.95734   1.12850
  Beta  occ. eigenvalues --  -76.59793  -6.37549  -4.55406  -4.55057  -4.55002
  Beta  occ. eigenvalues --   -0.56481  -0.35384  -0.26635
  Beta virt. eigenvalues --   -0.14452   0.01320   0.08415   0.25069   0.27653
  Beta virt. eigenvalues --    0.30106   0.32318   0.63977   0.65962   0.66645
  Beta virt. eigenvalues --    0.67281   0.75961   0.98689   1.15466

 Mulliken charges and spin densities:
               1          2
     1  P   -0.007121   1.074836
     2  H    0.003561  -0.037418
     3  H    0.003561  -0.037418
 Sum of Mulliken charges =  -0.00000   1.00000

 Dipole moment (field-independent basis, Debye):
    X=              0.0000    Y=              0.0000    Z=             -0.9003  Tot=              0.9003
 Quadrupole moment (field-independent basis, Debye-Ang):
   XX=            -14.8681   YY=            -13.9268   ZZ=            -15.4155
   XY=             -0.0000   XZ=             -0.0000   YZ=              0.0000

 Normal termination of Gaussian 16 at Wed Oct  7 13:07:37 2020.
