 Gaussian 16, Revision A.03,

 ----------------------------------------------------------------------
 #P Opt(TS,MaxCyc=50,NoEigenTest,MaxStep=10,AddRedundant) TPSSTPSS/6-31
 G* 5D 7F Integral=UltraFineGrid SCF=(NoSymm,XQC,MaxCyc=120) EmpiricalD
 ispersion=GD3BJ IOp(1/33=1)
 ----------------------------------------------------------------------

 TstMul:  Mul=     2
 TstMul:  ICh=     0
 TstMul:  Mul=     2
 Symbolic Z-matrix:
 Charge =  0 Multiplicity = 2

 SCF Done:  E(UTPSS-TPSS) =  -461.304288038     A.U. after   14 cycles
 SCF Done:  E(UTPSS-TPSS) =  -461.306538843     A.U. after   13 cycles
 SCF Done:  E(UTPSS-TPSS) =  -461.307965882     A.U. after   13 cycles
 SCF Done:  E(UTPSS-TPSS) =  -461.308929524     A.U. after   13 cycles
 SCF Done:  E(UTPSS-TPSS) =  -461.309642693     A.U. after   13 cycles
 SCF Done:  E(UTPSS-TPSS) =  -461.310207398     A.U. after   13 cycles
 SCF Done:  E(UTPSS-TPSS) =  -461.310669023     A.U. after   13 cycles
 SCF Done:  E(UTPSS-TPSS) =  -461.311047091     A.U. after   12 cycles
 SCF Done:  E(UTPSS-TPSS) =  -461.311352569     A.U. after   12 cycles
 SCF Done:  E(UTPSS-TPSS) =  -461.311593819     A.U. after   13 cycles
 SCF Done:  E(UTPSS-TPSS) =  -461.311778733     A.U. after   13 cycles
 SCF Done:  E(UTPSS-TPSS) =  -461.311915887     A.U. after   13 cycles
 SCF Done:  E(UTPSS-TPSS) =  -461.312013060     A.U. after   13 cycles
 SCF Done:  E(UTPSS-TPSS) =  -461.312077009     A.U. after   13 cycles
 SCF Done:  E(UTPSS-TPSS) =  -461.312114402     A.U. after   12 cycles
 SCF Done:  E(UTPSS-TPSS) =  -461.312130896     A.U. after   12 cycles
 SCF Done:  E(UTPSS-TPSS) =  -461.312133887     A.U. after   11 cycles
 SCF Done:  E(UTPSS-TPSS) =  -461.312134058     A.U. after    8 cycles
 Optimization completed.
    -- Stationary point found.
 Normal termination of Gaussian 16 at Wed Oct  7 13:10:25 2020.
 Gaussian 16:  ES64L-G16RevA.03 25-Dec-2016

 ----------------------------------------------------------------------
 #P Freq TPSSTPSS/6-31G* 5D 7F Integral=UltraFineGrid SCF=(NoSymm,XQC,M
 axCyc=120) EmpiricalDispersion=GD3BJ IOp(1/33=1) Geom=Check Guess=Read
 ----------------------------------------------------------------------

 TstMul:  Mul=     2
 TstMul:  ICh=     0
 TstMul:  Mul=     2
 Structure from the checkpoint file:  "MN_78_RKT01_BH76_TPSSDBJ_631Gs.chk"
 Charge =  0 Multiplicity = 2

                         Standard orientation:
 ---------------------------------------------------------------------
 Center     Atomic      Atomic             Coordinates (Angstroms)
 Number     Number       Type             X           Y           Z
 ---------------------------------------------------------------------
      1          1           0        0.000000    0.000000   -1.851799
      2         17           0        0.000000    0.000000    0.262236
      3          1           0        0.000000    0.000000   -2.606211
 ---------------------------------------------------------------------

 SCF Done:  E(UTPSS-TPSS) =  -461.312134058     A.U. after    1 cycles

 The electronic state is 2-SG.
 Alpha  occ. eigenvalues -- -101.02404  -9.27344  -7.06371  -7.04109  -7.04109
 Alpha  occ. eigenvalues --   -0.77397  -0.44946  -0.34104  -0.30323  -0.30323
 Alpha virt. eigenvalues --    0.09051   0.34234   0.41829   0.41829   0.44362
 Alpha virt. eigenvalues --    0.61355   0.76035   0.76035   0.80794   0.80794
 Alpha virt. eigenvalues --    0.86713   1.22847
  Beta  occ. eigenvalues -- -101.01824  -9.26838  -7.04775  -7.03793  -7.03793
  Beta  occ. eigenvalues --   -0.73113  -0.42935  -0.28958  -0.28958
  Beta virt. eigenvalues --   -0.26381   0.10636   0.36492   0.42707   0.42707
  Beta virt. eigenvalues --    0.47802   0.65118   0.82064   0.82065   0.82180
  Beta virt. eigenvalues --    0.82180   0.93077   1.29850

 Mulliken charges and spin densities:
               1          2
     1  H   -0.048477  -0.033293
     2  Cl  -0.043888   0.904672
     3  H    0.092365   0.128620
 Sum of Mulliken charges =  -0.00000   1.00000

 Dipole moment (field-independent basis, Debye):
    X=              0.0000    Y=             -0.0000    Z=             -0.7670  Tot=              0.7670
 Quadrupole moment (field-independent basis, Debye-Ang):
   XX=            -14.9796   YY=            -14.9796   ZZ=            -10.5648
   XY=             -0.0000   XZ=              0.0000   YZ=             -0.0000

  Exact polarizability:   5.682   0.000   5.682   0.000  -0.000  27.494
 Approx polarizability:   7.157  -0.000   7.157   0.000  -0.000  40.406

 ******    2 imaginary frequencies (negative Signs) ******

                      1                      2                      3
                     PI                     PI                     SG
 Frequencies --   -121.6680              -121.6680               181.5398
 Red. masses --      1.0091                 1.0091                 1.0641
 Frc consts  --      0.0088                 0.0088                 0.0207
 IR Inten    --      3.6697                 3.6697                44.2226

                      4
                     SG
 Frequencies --   4109.2720
 Red. masses --      1.0079
 Frc consts  --     10.0271
 IR Inten    --    324.6371

 - Thermochemistry -
 -------------------
 Temperature   298.150 Kelvin.  Pressure   1.00000 Atm.
 Atom     1 has atomic number  1 and mass   1.00783

 Molecular mass:    36.98450 amu.
 Principal axes and moments of inertia in atomic units:
                           1         2         3
     Eigenvalues --     0.00000  43.26240  43.26240
           X            0.00000   0.00000   1.00000
           Y            0.00000   1.00000   0.00000
           Z            1.00000   0.00000   0.00000
 This molecule is a prolate symmetric top.
 Rotational symmetry number  1.
 Rotational temperature (Kelvin)      2.00206
 Rotational constant (GHZ):          41.716157
    2 imaginary frequencies ignored.
 Zero-point vibrational energy      25664.8 (Joules/Mol)
                                    6.13402 (Kcal/Mol)
 Warning -- explicit consideration of   1 degrees of freedom as
           vibrations may cause significant error
 Vibrational temperatures:    261.20  5912.33
          (Kelvin)

 Zero-point correction=                           0.009775 (Hartree/Particle)
 Thermal correction to Energy=                    0.012726
 Thermal correction to Enthalpy=                  0.013670
 Thermal correction to Gibbs Free Energy=        -0.011214
 Sum of electronic and zero-point Energies=           -461.302359
 Sum of electronic and thermal Energies=              -461.299408
 Sum of electronic and thermal Enthalpies=            -461.298464
 Sum of electronic and thermal Free Energies=         -461.323348

                     E (Thermal)             CV                S
                      KCal/Mol        Cal/Mol-Kelvin    Cal/Mol-Kelvin
 Total                    7.986              6.833             52.373
 Electronic               0.000              0.000              1.377
 Translational            0.889              2.981             36.753
 Rotational               0.592              1.987             11.930
 Vibrational              6.504              1.865              2.313
 Vibration     1          0.630              1.865              2.313

 Optimization completed.
    -- Stationary point found.
 Normal termination of Gaussian 16 at Wed Oct  7 13:10:47 2020.
