 Gaussian 16, Revision A.03,
 Gaussian 16:  ES64L-G16RevA.03 25-Dec-2016

 ----------------------------------------------------------------------
 #P Opt(MaxCyc=100) TPSSTPSS/6-31G* 5D 7F Integral=UltraFineGrid SCF=(N
 oSymm,XQC,MaxCyc=120) EmpiricalDispersion=GD3BJ IOp(1/33=1)
 ----------------------------------------------------------------------

 TstMul:  Mul=     2
 TstMul:  ICh=     0
 TstMul:  Mul=     2
 Symbolic Z-matrix:
 Charge =  0 Multiplicity = 2

 SCF Done:  E(UTPSS-TPSS) =  -75.7264149750     A.U. after   12 cycles
 SCF Done:  E(UTPSS-TPSS) =  -75.7268344904     A.U. after    8 cycles
 SCF Done:  E(UTPSS-TPSS) =  -75.7268384960     A.U. after    7 cycles
 Optimization completed.
    -- Stationary point found.

                         Standard orientation:
 ---------------------------------------------------------------------
 Center     Atomic      Atomic             Coordinates (Angstroms)
 Number     Number       Type             X           Y           Z
 ---------------------------------------------------------------------
      1          8           0        0.000000    0.000000    0.110149
      2          1           0        0.000000    0.000000   -0.881193
 ---------------------------------------------------------------------

 Unable to determine electronic state:  partially filled degenerate orbitals.
 Alpha  occ. eigenvalues --  -18.96219  -0.93259  -0.41170  -0.34723  -0.26762
 Alpha virt. eigenvalues --    0.05321   0.73919   0.78744   0.83689   0.89281
 Alpha virt. eigenvalues --    1.19239   1.65225   1.70345   1.71319   1.71407
 Alpha virt. eigenvalues --    2.35998
  Beta  occ. eigenvalues --  -18.93681  -0.87063  -0.38875  -0.24556
  Beta virt. eigenvalues --   -0.19062   0.06428   0.75617   0.85675   0.89170
  Beta virt. eigenvalues --    0.91693   1.23901   1.71951   1.72451   1.77908
  Beta virt. eigenvalues --    1.79248   2.39847

 Mulliken charges and spin densities:
               1          2
     1  O   -0.405066   1.031293
     2  H    0.405066  -0.031293
 Sum of Mulliken charges =   0.00000   1.00000

 Dipole moment (field-independent basis, Debye):
    X=              0.0000    Y=              0.0000    Z=             -1.7269  Tot=              1.7269
 Quadrupole moment (field-independent basis, Debye-Ang):
   XX=             -5.2901   YY=             -6.4420   ZZ=             -4.4390
   XY=              0.0000   XZ=              0.0000   YZ=             -0.0000

 Normal termination of Gaussian 16 at Wed Oct  7 13:07:36 2020.
