 Gaussian 16, Revision A.03,
 Gaussian 16:  ES64L-G16RevA.03 25-Dec-2016

 ----------------------------------------------------------------------
 #P Opt(MaxCyc=100) TPSSTPSS/6-31G* 5D 7F Integral=UltraFineGrid SCF=(N
 oSymm,XQC,MaxCyc=120) EmpiricalDispersion=GD3BJ IOp(1/33=1)
 ----------------------------------------------------------------------

 TstMul:  Mul=     2
 TstMul:  ICh=     0
 TstMul:  Mul=     2
 Symbolic Z-matrix:
 Charge =  0 Multiplicity = 2

 SCF Done:  E(UTPSS-TPSS) =  -55.8771972878     A.U. after   12 cycles
 SCF Done:  E(UTPSS-TPSS) =  -55.8775952190     A.U. after    8 cycles
 SCF Done:  E(UTPSS-TPSS) =  -55.8776092093     A.U. after    7 cycles
 Optimization completed.
    -- Stationary point found.

                         Standard orientation:
 ---------------------------------------------------------------------
 Center     Atomic      Atomic             Coordinates (Angstroms)
 Number     Number       Type             X           Y           Z
 ---------------------------------------------------------------------
      1          7           0       -0.000000    0.000000    0.145998
      2          1           0       -0.000000    0.807752   -0.510994
      3          1           0       -0.000000   -0.807752   -0.510994
 ---------------------------------------------------------------------

 The electronic state is 2-B1.
 Alpha  occ. eigenvalues --  -14.14203  -0.78845  -0.41950  -0.27424  -0.26413
 Alpha virt. eigenvalues --    0.06260   0.12948   0.62652   0.66325   0.69267
 Alpha virt. eigenvalues --    0.80400   0.84956   1.05815   1.61787   1.63977
 Alpha virt. eigenvalues --    1.64389   2.05053   2.34630
  Beta  occ. eigenvalues --  -14.12191  -0.74138  -0.40832  -0.25204
  Beta virt. eigenvalues --   -0.12593   0.07671   0.13883   0.67249   0.71334
  Beta virt. eigenvalues --    0.72241   0.84475   0.87353   1.10761   1.67772
  Beta virt. eigenvalues --    1.70190   1.72430   2.14013   2.38669

 Mulliken charges and spin densities:
               1          2
     1  N   -0.585018   1.071619
     2  H    0.292509  -0.035810
     3  H    0.292509  -0.035810
 Sum of Mulliken charges =  -0.00000   1.00000

 Dipole moment (field-independent basis, Debye):
    X=             -0.0000    Y=              0.0000    Z=             -1.9786  Tot=              1.9786
 Quadrupole moment (field-independent basis, Debye-Ang):
   XX=             -6.9430   YY=             -5.5538   ZZ=             -7.3203
   XY=              0.0000   XZ=              0.0000   YZ=             -0.0000

 Normal termination of Gaussian 16 at Wed Oct  7 13:07:20 2020.
