 Gaussian 16, Revision A.03,
 Gaussian 16:  ES64L-G16RevA.03 25-Dec-2016

 ----------------------------------------------------------------------
 #P Opt(MaxCyc=100) TPSSTPSS/6-31G* 5D 7F Integral=UltraFineGrid SCF=(N
 oSymm,XQC,MaxCyc=120) EmpiricalDispersion=GD3BJ IOp(1/33=1)
 ----------------------------------------------------------------------

 TstMul:  Mul=     1
 TstMul:  ICh=     0
 TstMul:  Mul=     1
 Symbolic Z-matrix:
 Charge =  0 Multiplicity = 1

 SCF Done:  E(RTPSS-TPSS) =  -343.144931805     A.U. after   10 cycles
 SCF Done:  E(RTPSS-TPSS) =  -343.145081263     A.U. after    7 cycles
 SCF Done:  E(RTPSS-TPSS) =  -343.145083679     A.U. after    6 cycles
 Optimization completed.
    -- Stationary point found.

                         Standard orientation:
 ---------------------------------------------------------------------
 Center     Atomic      Atomic             Coordinates (Angstroms)
 Number     Number       Type             X           Y           Z
 ---------------------------------------------------------------------
      1         15           0        0.000000    0.000000    0.129146
      2          1           0        0.000000    1.193483   -0.645731
      3          1           0        1.033587   -0.596742   -0.645731
      4          1           0       -1.033587   -0.596742   -0.645731
 ---------------------------------------------------------------------

 The electronic state is 1-A1.
 Alpha  occ. eigenvalues --  -76.58603  -6.36614  -4.54444  -4.54444  -4.53933
 Alpha  occ. eigenvalues --   -0.60044  -0.35620  -0.35620  -0.24680
 Alpha virt. eigenvalues --    0.01080   0.01080   0.10424   0.27203   0.27203
 Alpha virt. eigenvalues --    0.29181   0.37575   0.62862   0.62862   0.65110
 Alpha virt. eigenvalues --    0.66002   0.66002   0.94409   1.15522   1.15522

 Mulliken charges:
               1
     1  P   -0.101247
     2  H    0.033749
     3  H    0.033749
     4  H    0.033749
 Sum of Mulliken charges =  -0.00000

 Dipole moment (field-independent basis, Debye):
    X=             -0.0000    Y=             -0.0000    Z=             -1.0005  Tot=              1.0005
 Quadrupole moment (field-independent basis, Debye-Ang):
   XX=            -14.5844   YY=            -14.5844   ZZ=            -16.9672
   XY=              0.0000   XZ=              0.0000   YZ=             -0.0000

 1\1\GINC-NODE51\FOpt\RTPSSTPSS\6-31G(d)\H3P1\RPEVERATI\07-Oct-2020\0\\
 #P Opt(MaxCyc=100) TPSSTPSS/6-31G* 5D 7F Integral=UltraFineGrid SCF=(N
 oSymm,XQC,MaxCyc=120) EmpiricalDispersion=GD3BJ IOp(1/33=1)\\TS search
  on BH76.\\0,1\P,0.,0.,0.5811660031\H,0.5967415201,1.0335866318,-0.193
 7117422\H,0.5967415201,-1.0335866318,-0.1937117422\H,-1.1934830402,0.,
 -0.1937117422\\Version=ES64L-G16RevA.03\State=1-A1\HF=-343.1450837\RMS
 D=7.865e-09\RMSF=6.343e-06\Dipole=0.,0.,-0.3936219\Quadrupole=0.590514
 8,0.5905148,-1.1810295,0.,0.,0.\PG=C03V [C3(P1),3SGV(H1)]\\@

 Normal termination of Gaussian 16 at Wed Oct  7 13:07:49 2020.
