 Gaussian 16, Revision A.03,
 Gaussian 16:  ES64L-G16RevA.03 25-Dec-2016

 ----------------------------------------------------------------------
 #P TPSSTPSS/6-31G* 5D 7F Integral=UltraFineGrid SCF=(NoSymm,XQC,MaxCyc
 =120) EmpiricalDispersion=GD3BJ IOp(1/33=1) Stable=Opt
 ----------------------------------------------------------------------

 TstMul:  Mul=     3
 TstMul:  ICh=     0
 TstMul:  Mul=     3
 Symbolic Z-matrix:
 Charge =  0 Multiplicity = 3

                         Standard orientation:
 ---------------------------------------------------------------------
 Center     Atomic      Atomic             Coordinates (Angstroms)
 Number     Number       Type             X           Y           Z
 ---------------------------------------------------------------------
      1          8           0        0.000000    0.000000    0.000000
 ---------------------------------------------------------------------

 SCF Done:  E(UTPSS-TPSS) =  -75.0685753447     A.U. after    9 cycles

 Unable to determine electronic state:  partially filled degenerate orbitals.
 Alpha  occ. eigenvalues --  -19.03715  -0.93132  -0.38732  -0.38732  -0.30554
 Alpha virt. eigenvalues --    0.76391   0.76391   0.81195   0.88415   1.63251
 Alpha virt. eigenvalues --    1.63251   1.68244   1.68244   1.70104
  Beta  occ. eigenvalues --  -18.98443  -0.78698  -0.26756
  Beta virt. eigenvalues --   -0.19430  -0.19430   0.85184   0.89379   0.89379
  Beta virt. eigenvalues --    0.98040   1.75735   1.75735   1.77061   1.77981
  Beta virt. eigenvalues --    1.77981

 Mulliken charges and spin densities:
               1          2
     1  O   -0.000000   2.000000
 Sum of Mulliken charges =  -0.00000   2.00000

 Dipole moment (field-independent basis, Debye):
    X=              0.0000    Y=             -0.0000    Z=              0.0000  Tot=              0.0000
 Quadrupole moment (field-independent basis, Debye-Ang):
   XX=             -5.6669   YY=             -4.5423   ZZ=             -4.5423
   XY=             -0.0000   XZ=              0.0000   YZ=             -0.0000

 Normal termination of Gaussian 16 at Wed Oct  7 13:06:57 2020.
