 Gaussian 16, Revision A.03,

 ----------------------------------------------------------------------
 #P Opt(TS,MaxCyc=50,NoEigenTest,MaxStep=10,AddRedundant) TPSSTPSS/6-31
 G* 5D 7F Integral=UltraFineGrid SCF=(NoSymm,XQC,MaxCyc=120) EmpiricalD
 ispersion=GD3BJ IOp(1/33=1)
 ----------------------------------------------------------------------

 TstMul:  Mul=     2
 TstMul:  ICh=     0
 TstMul:  Mul=     2
 Symbolic Z-matrix:
 Charge =  0 Multiplicity = 2

 SCF Done:  E(UTPSS-TPSS) =  -76.9006516911     A.U. after   14 cycles
 SCF Done:  E(UTPSS-TPSS) =  -76.9008449493     A.U. after   15 cycles
 SCF Done:  E(UTPSS-TPSS) =  -76.9011182297     A.U. after   13 cycles
 SCF Done:  E(UTPSS-TPSS) =  -76.9011245465     A.U. after   11 cycles
 SCF Done:  E(UTPSS-TPSS) =  -76.9011264594     A.U. after   11 cycles
 SCF Done:  E(UTPSS-TPSS) =  -76.9011351815     A.U. after   14 cycles
 SCF Done:  E(UTPSS-TPSS) =  -76.9011392927     A.U. after   11 cycles
 SCF Done:  E(UTPSS-TPSS) =  -76.9011414093     A.U. after   10 cycles
 Optimization completed.
    -- Stationary point found.
 Normal termination of Gaussian 16 at Wed Oct  7 13:10:16 2020.
 Gaussian 16:  ES64L-G16RevA.03 25-Dec-2016

 ----------------------------------------------------------------------
 #P Freq TPSSTPSS/6-31G* 5D 7F Integral=UltraFineGrid SCF=(NoSymm,XQC,M
 axCyc=120) EmpiricalDispersion=GD3BJ IOp(1/33=1) Geom=Check Guess=Read
 ----------------------------------------------------------------------

 TstMul:  Mul=     2
 TstMul:  ICh=     0
 TstMul:  Mul=     2
 Structure from the checkpoint file:  "MN_79_RKT02_BH76_TPSSDBJ_631Gs.chk"
 Charge =  0 Multiplicity = 2

                         Standard orientation:
 ---------------------------------------------------------------------
 Center     Atomic      Atomic             Coordinates (Angstroms)
 Number     Number       Type             X           Y           Z
 ---------------------------------------------------------------------
      1          8           0       -0.297160   -0.112724    0.000015
      2          1           0       -0.481849    0.857731   -0.000026
      3          1           0        1.018209   -0.078047   -0.000234
      4          1           0        1.840918    0.122107    0.000142
 ---------------------------------------------------------------------

 SCF Done:  E(UTPSS-TPSS) =  -76.9011414093     A.U. after    1 cycles

 The electronic state is 2-A.
 Alpha  occ. eigenvalues --  -18.93925  -0.92817  -0.47910  -0.39145  -0.27769
 Alpha  occ. eigenvalues --   -0.25780
 Alpha virt. eigenvalues --    0.06341   0.16561   0.63349   0.75903   0.80412
 Alpha virt. eigenvalues --    0.83979   0.98176   1.03365   1.39016   1.66852
 Alpha virt. eigenvalues --    1.70807   1.71940   1.98735   2.38581
  Beta  occ. eigenvalues --  -18.92099  -0.88694  -0.44508  -0.36327  -0.24365
  Beta virt. eigenvalues --   -0.17680   0.07256   0.19718   0.66779   0.77267
  Beta virt. eigenvalues --    0.85241   0.87152   1.02909   1.07555   1.42773
  Beta virt. eigenvalues --    1.71485   1.72123   1.76017   2.04307   2.41502

 Mulliken charges and spin densities:
               1          2
     1  O   -0.542988   0.698292
     2  H    0.395258  -0.017891
     3  H    0.143098  -0.105138
     4  H    0.004632   0.424736
 Sum of Mulliken charges =  -0.00000   1.00000

 Dipole moment (field-independent basis, Debye):
    X=              0.3852    Y=              1.6379    Z=             -0.0002  Tot=              1.6826
 Quadrupole moment (field-independent basis, Debye-Ang):
   XX=             -6.7675   YY=             -6.5680   ZZ=             -8.4863
   XY=             -0.8101   XZ=              0.0000   YZ=             -0.0000

  Exact polarizability:  21.908   0.497   7.024   0.003   0.001   2.597
 Approx polarizability:  35.214   2.602  10.083   0.003   0.001   2.943

 ******    1 imaginary frequencies (negative Signs) ******

                      1                      2                      3
                      A                      A                      A
 Frequencies --   -855.3951               512.1125               682.5586
 Red. masses --      1.1048                 1.0188                 1.0190
 Frc consts  --      0.4763                 0.1574                 0.2797
 IR Inten    --     69.4696                21.1227                26.3182

                      4                      5                      6
                      A                      A                      A
 Frequencies --   1167.5462              2287.6307              3563.6504
 Red. masses --      1.0620                 1.0251                 1.0664
 Frc consts  --      0.8529                 3.1607                 7.9794
 IR Inten    --    124.5890                68.7396                 5.3455

 - Thermochemistry -
 -------------------
 Temperature   298.150 Kelvin.  Pressure   1.00000 Atm.
 Atom     1 has atomic number  8 and mass  15.99491

 Molecular mass:    19.01839 amu.
 Principal axes and moments of inertia in atomic units:
                           1         2         3
     Eigenvalues --     3.28155  20.78187  24.06343
           X            0.99950  -0.03162   0.00000
           Y            0.03162   0.99950   0.00001
           Z           -0.00000  -0.00001   1.00000
 This molecule is an asymmetric top.
 Rotational symmetry number  1.
 Rotational temperatures (Kelvin)     26.39418     4.16776     3.59940
 Rotational constants (GHZ):         549.96542    86.84209    74.99935
    1 imaginary frequencies ignored.
 Zero-point vibrational energy      49127.6 (Joules/Mol)
                                   11.74179 (Kcal/Mol)
 Warning -- explicit consideration of   1 degrees of freedom as
           vibrations may cause significant error
 Vibrational temperatures:    736.82   982.05  1679.84  3291.39  5127.30
          (Kelvin)

 Zero-point correction=                           0.018712 (Hartree/Particle)
 Thermal correction to Energy=                    0.021899
 Thermal correction to Enthalpy=                  0.022843
 Thermal correction to Gibbs Free Energy=        -0.002011
 Sum of electronic and zero-point Energies=            -76.882430
 Sum of electronic and thermal Energies=               -76.879243
 Sum of electronic and thermal Enthalpies=             -76.878299
 Sum of electronic and thermal Free Energies=          -76.903153

                     E (Thermal)             CV                S
                      KCal/Mol        Cal/Mol-Kelvin    Cal/Mol-Kelvin
 Total                   13.742              8.279             52.310
 Electronic               0.000              0.000              1.377
 Translational            0.889              2.981             34.771
 Rotational               0.889              2.981             15.159
 Vibrational             11.964              2.317              1.004
 Vibration     1          0.867              1.223              0.629

 Optimization completed.
    -- Stationary point found.
 Normal termination of Gaussian 16 at Wed Oct  7 13:10:52 2020.
