 Gaussian 16, Revision A.03,

 ----------------------------------------------------------------------
 #P Opt(TS,MaxCyc=50,NoEigenTest,MaxStep=10,AddRedundant) TPSSTPSS/6-31
 G* 5D 7F Integral=UltraFineGrid SCF=(NoSymm,XQC,MaxCyc=120) EmpiricalD
 ispersion=GD3BJ IOp(1/33=1)
 ----------------------------------------------------------------------

 TstMul:  Mul=     2
 TstMul:  ICh=     0
 TstMul:  Mul=     2
 Symbolic Z-matrix:
 Charge =  0 Multiplicity = 2

 SCF Done:  E(UTPSS-TPSS) =  -41.0120620538     A.U. after   13 cycles
 SCF Done:  E(UTPSS-TPSS) =  -41.0122722453     A.U. after   12 cycles
 SCF Done:  E(UTPSS-TPSS) =  -41.0123608300     A.U. after   10 cycles
 SCF Done:  E(UTPSS-TPSS) =  -41.0121533228     A.U. after   12 cycles
 SCF Done:  E(UTPSS-TPSS) =  -41.0121535207     A.U. after   10 cycles
 SCF Done:  E(UTPSS-TPSS) =  -41.0121546799     A.U. after    8 cycles
 Optimization completed.
    -- Stationary point found.
 Normal termination of Gaussian 16 at Wed Oct  7 13:08:19 2020.
 Gaussian 16:  ES64L-G16RevA.03 25-Dec-2016

 ----------------------------------------------------------------------
 #P Freq TPSSTPSS/6-31G* 5D 7F Integral=UltraFineGrid SCF=(NoSymm,XQC,M
 axCyc=120) EmpiricalDispersion=GD3BJ IOp(1/33=1) Geom=Check Guess=Read
 ----------------------------------------------------------------------

 TstMul:  Mul=     2
 TstMul:  ICh=     0
 TstMul:  Mul=     2
 Structure from the checkpoint file:  "MN_80_RKT03_BH76_TPSSDBJ_631Gs.chk"
 Charge =  0 Multiplicity = 2

                         Standard orientation:
 ---------------------------------------------------------------------
 Center     Atomic      Atomic             Coordinates (Angstroms)
 Number     Number       Type             X           Y           Z
 ---------------------------------------------------------------------
      1          6           0        0.000000    0.274205    0.000000
      2          1           0        1.062567    0.521079    0.000000
      3          1           0       -0.532236    0.517845    0.920594
      4          1           0       -0.532236    0.517845   -0.920594
      5          1           0        0.000777   -1.152774    0.000000
      6          1           0        0.001127   -2.049226    0.000000
 ---------------------------------------------------------------------

 SCF Done:  E(UTPSS-TPSS) =  -41.0121546799     A.U. after    1 cycles

 The electronic state is 2-A'.
 Alpha  occ. eigenvalues --  -10.00630  -0.64860  -0.40662  -0.37519  -0.37513
 Alpha  occ. eigenvalues --   -0.18338
 Alpha virt. eigenvalues --    0.10009   0.15342   0.15345   0.17829   0.51220
 Alpha virt. eigenvalues --    0.51223   0.53519   0.68747   0.87387   0.87395
 Alpha virt. eigenvalues --    0.90599   0.98960   1.18515   1.60093   1.60094

  Beta  occ. eigenvalues --   -9.99460  -0.62423  -0.37291  -0.36939  -0.36932
  Beta virt. eigenvalues --   -0.08881   0.11304   0.16402   0.16404   0.21300
  Beta virt. eigenvalues --    0.52005   0.52007   0.58957   0.74973   0.90070
  Beta virt. eigenvalues --    0.90080   0.95820   1.05830   1.24055   1.66254

 Mulliken charges and spin densities:
               1          2
     1  C   -0.537535   0.729058
     2  H    0.184626  -0.023311
     3  H    0.184626  -0.023311
     4  H    0.184626  -0.023311
     5  H   -0.008140  -0.163418
     6  H   -0.008203   0.504294
 Sum of Mulliken charges =   0.00000   1.00000

 Dipole moment (field-independent basis, Debye):
    X=             -0.0011    Y=              0.7841    Z=             -0.0000  Tot=              0.7841
 Quadrupole moment (field-independent basis, Debye-Ang):
   XX=             -9.2169   YY=            -11.2323   ZZ=             -9.2182
   XY=              0.0036   XZ=             -0.0000   YZ=             -0.0000

  Exact polarizability:  12.454   0.000  28.637  -0.000  -0.000  12.455
 Approx polarizability:  15.892   0.003  39.066   0.000   0.000  15.892

 ******    1 imaginary frequencies (negative Signs) ******

                      1                      2                      3
                     A'                     A'                     A"
 Frequencies --  -1088.8456               568.2777               568.9310
 Red. masses --      1.1735                 1.0461                 1.0461
 Frc consts  --      0.8197                 0.1990                 0.1995
 IR Inten    --     12.5081                 1.1164                 1.1250

                      4                      5                      6
                     A'                     A'                     A"
 Frequencies --   1080.5332              1192.5898              1192.6494
 Red. masses --      1.0744                 1.0473                 1.0474
 Frc consts  --      0.7391                 0.8776                 0.8778
 IR Inten    --      5.7714                 0.7187                 0.7316

                      7                      8                      9
                     A"                     A'                     A'
 Frequencies --   1461.5057              1461.6971              1896.3292
 Red. masses --      1.0758                 1.0759                 1.0711
 Frc consts  --      1.3539                 1.3544                 2.2694
 IR Inten    --      2.5035                 2.4960                44.3711

                     10                     11                     12
                     A'                     A"                     A'
 Frequencies --   3073.9982              3215.8686              3216.4236
 Red. masses --      1.0167                 1.1120                 1.1121
 Frc consts  --      5.6602                 6.7759                 6.7785
 IR Inten    --      0.6094                15.9528                15.9070

 - Thermochemistry -
 -------------------
 Temperature   298.150 Kelvin.  Pressure   1.00000 Atm.
 Atom     1 has atomic number  6 and mass  12.00000

 Molecular mass:    17.03913 amu.
 Principal axes and moments of inertia in atomic units:
                           1         2         3
     Eigenvalues --    12.20275  31.56741  31.56963
           X           -0.00014   1.00000   0.00000
           Y            1.00000   0.00014   0.00000
           Z            0.00000   0.00000   1.00000
 This molecule is an asymmetric top.
 Rotational symmetry number  1.
 Rotational temperatures (Kelvin)      7.09790     2.74378     2.74358
 Rotational constants (GHZ):         147.89625    57.17102    57.16701
    1 imaginary frequencies ignored.
 Zero-point vibrational energy     113219.4 (Joules/Mol)
                                   27.06008 (Kcal/Mol)
 Warning -- explicit consideration of   2 degrees of freedom as
           vibrations may cause significant error
 Vibrational temperatures:    817.62   818.56  1554.65  1715.87  1715.96
          (Kelvin)           2102.78  2103.06  2728.39  4422.80  4626.92
                             4627.72

 Zero-point correction=                           0.043123 (Hartree/Particle)
 Thermal correction to Energy=                    0.046386
 Thermal correction to Enthalpy=                  0.047330
 Thermal correction to Gibbs Free Energy=         0.021594
 Sum of electronic and zero-point Energies=            -40.969032
 Sum of electronic and thermal Energies=               -40.965769
 Sum of electronic and thermal Enthalpies=             -40.964825
 Sum of electronic and thermal Free Energies=          -40.990561

                     E (Thermal)             CV                S
                      KCal/Mol        Cal/Mol-Kelvin    Cal/Mol-Kelvin
 Total                   29.107              9.066             54.166
 Electronic               0.000              0.000              1.377
 Translational            0.889              2.981             34.443
 Rotational               0.889              2.981             17.149
 Vibrational             27.330              3.104              1.196
 Vibration     1          0.924              1.100              0.508
 Vibration     2          0.925              1.098              0.506

                           ! Non-Optimized Parameters !
 Normal termination of Gaussian 16 at Wed Oct  7 13:08:44 2020.
