 Gaussian 16, Revision A.03,

 ----------------------------------------------------------------------
 #P Opt(TS,MaxCyc=50,NoEigenTest,MaxStep=10,AddRedundant) TPSSTPSS/6-31
 G* 5D 7F Integral=UltraFineGrid SCF=(NoSymm,XQC,MaxCyc=120) EmpiricalD
 ispersion=GD3BJ IOp(1/33=1)
 ----------------------------------------------------------------------

 TstMul:  Mul=     2
 TstMul:  ICh=     0
 TstMul:  Mul=     2
 Symbolic Z-matrix:
 Charge =  0 Multiplicity = 2

 SCF Done:  E(UTPSS-TPSS) =  -343.650690985     A.U. after   14 cycles
 SCF Done:  E(UTPSS-TPSS) =  -343.650899152     A.U. after   12 cycles
 SCF Done:  E(UTPSS-TPSS) =  -343.651305742     A.U. after   13 cycles
 SCF Done:  E(UTPSS-TPSS) =  -343.650916178     A.U. after   13 cycles
 SCF Done:  E(UTPSS-TPSS) =  -343.650470544     A.U. after   13 cycles
 SCF Done:  E(UTPSS-TPSS) =  -343.649980662     A.U. after   12 cycles
 SCF Done:  E(UTPSS-TPSS) =  -343.649551257     A.U. after   13 cycles
 SCF Done:  E(UTPSS-TPSS) =  -343.649178664     A.U. after   13 cycles
 SCF Done:  E(UTPSS-TPSS) =  -343.648845549     A.U. after   13 cycles
 SCF Done:  E(UTPSS-TPSS) =  -343.648539969     A.U. after   13 cycles
 SCF Done:  E(UTPSS-TPSS) =  -343.646715800     A.U. after   12 cycles
 SCF Done:  E(UTPSS-TPSS) =  -343.646691002     A.U. after   12 cycles
 SCF Done:  E(UTPSS-TPSS) =  -343.646681638     A.U. after   11 cycles
 SCF Done:  E(UTPSS-TPSS) =  -343.646685621     A.U. after    9 cycles
 SCF Done:  E(UTPSS-TPSS) =  -343.646684492     A.U. after   11 cycles
 SCF Done:  E(UTPSS-TPSS) =  -343.646687682     A.U. after   10 cycles
 SCF Done:  E(UTPSS-TPSS) =  -343.646687753     A.U. after    8 cycles
 SCF Done:  E(UTPSS-TPSS) =  -343.646687693     A.U. after    8 cycles
 SCF Done:  E(UTPSS-TPSS) =  -343.646687730     A.U. after    8 cycles
 Optimization completed.
    -- Stationary point found.
 Normal termination of Gaussian 16 at Wed Oct  7 13:17:29 2020.
 Gaussian 16:  ES64L-G16RevA.03 25-Dec-2016

 ----------------------------------------------------------------------
 #P Freq TPSSTPSS/6-31G* 5D 7F Integral=UltraFineGrid SCF=(NoSymm,XQC,M
 axCyc=120) EmpiricalDispersion=GD3BJ IOp(1/33=1) Geom=Check Guess=Read
 ----------------------------------------------------------------------

 TstMul:  Mul=     2
 TstMul:  ICh=     0
 TstMul:  Mul=     2
 Structure from the checkpoint file:  "MN_88_RKT12_BH76_TPSSDBJ_631Gs.chk"
 Charge =  0 Multiplicity = 2

                         Standard orientation:
 ---------------------------------------------------------------------
 Center     Atomic      Atomic             Coordinates (Angstroms)
 Number     Number       Type             X           Y           Z
 ---------------------------------------------------------------------
      1         15           0        0.264730    0.000001   -0.044098
      2          1           0       -0.272673    1.038283    0.764160
      3          1           0       -0.272682   -1.038353    0.764062
      4          1           0       -0.839954    0.000051   -0.944790
      5          1           0       -2.585640   -0.000003    0.078031
 ---------------------------------------------------------------------

 SCF Done:  E(UTPSS-TPSS) =  -343.646687730     A.U. after    1 cycles

 The electronic state is 2-A.
 Alpha  occ. eigenvalues --  -76.59614  -6.37613  -4.55429  -4.55418  -4.55006
 Alpha  occ. eigenvalues --   -0.61006  -0.36789  -0.36483  -0.28907  -0.23247
 Alpha virt. eigenvalues --    0.00414   0.00475   0.09624   0.26502   0.26557
 Alpha virt. eigenvalues --    0.30709   0.39695   0.61564   0.61751   0.62617
 Alpha virt. eigenvalues --    0.65272   0.65661   0.79051   0.94166   1.15032

  Beta  occ. eigenvalues --  -76.59570  -6.37573  -4.55397  -4.55391  -4.54891
  Beta  occ. eigenvalues --   -0.60732  -0.36453  -0.36391  -0.25741
  Beta virt. eigenvalues --   -0.13965   0.00582   0.00691   0.09896   0.26584
  Beta virt. eigenvalues --    0.26655   0.31242   0.40295   0.62001   0.62139
  Beta virt. eigenvalues --    0.63505   0.65407   0.66078   0.85535   0.95129

 Mulliken charges and spin densities:
               1          2
     1  P   -0.083098   0.083109
     2  H    0.047798   0.000144
     3  H    0.047798   0.000144
     4  H    0.047458  -0.007433
     5  H   -0.059956   0.924037
 Sum of Mulliken charges =  -0.00000   1.00000

 Dipole moment (field-independent basis, Debye):
    X=             -0.1507    Y=             -0.0000    Z=              0.2735  Tot=              0.3123
 Quadrupole moment (field-independent basis, Debye-Ang):
   XX=            -20.0638   YY=            -15.7312   ZZ=            -15.9646
   XY=             -0.0000   XZ=              0.8321   YZ=              0.0000

  Exact polarizability:  34.763   0.000  21.654  -0.161  -0.000  21.566
 Approx polarizability:  68.833   0.000  35.157  -0.260  -0.000  34.794

 ******    1 imaginary frequencies (negative Signs) ******

                      1                      2                      3
                      A                      A                      A
 Frequencies --   -164.9488               177.6763               393.7711
 Red. masses --      1.0113                 1.0113                 1.0372
 Frc consts  --      0.0162                 0.0188                 0.0948
 IR Inten    --     13.7688                12.3781                11.1625

                      4                      5                      6
                      A                      A                      A
 Frequencies --   1006.4046              1165.0673              1165.3032
 Red. masses --      1.0754                 1.0258                 1.0266
 Frc consts  --      0.6417                 0.8204                 0.8213
 IR Inten    --      4.5765                12.2656                13.7181

                      7                      8                      9
                      A                      A                      A
 Frequencies --   2385.7599              2422.5393              2431.3953
 Red. masses --      1.0353                 1.0356                 1.0410
 Frc consts  --      3.4720                 3.5809                 3.6260
 IR Inten    --     63.9328                64.4442                97.1542

 - Thermochemistry -
 -------------------
 Temperature   298.150 Kelvin.  Pressure   1.00000 Atm.
 Atom     1 has atomic number 15 and mass  30.97376

 Molecular mass:    35.00506 amu.
 Principal axes and moments of inertia in atomic units:
                           1         2         3
     Eigenvalues --    15.35747  40.69221  40.85517
           X            0.99990  -0.00000   0.01418
           Y            0.00000   1.00000   0.00001
           Z           -0.01418  -0.00001   0.99990
 This molecule is an asymmetric top.
 Rotational symmetry number  1.
 Rotational temperatures (Kelvin)      5.63986     2.12851     2.12002
 Rotational constants (GHZ):         117.51556    44.35103    44.17412
    1 imaginary frequencies ignored.
 Zero-point vibrational energy      66679.4 (Joules/Mol)
                                   15.93675 (Kcal/Mol)
 Warning -- explicit consideration of   2 degrees of freedom as
           vibrations may cause significant error
 Vibrational temperatures:    255.64   566.55  1447.99  1676.27  1676.61
          (Kelvin)           3432.58  3485.49  3498.24

 Zero-point correction=                           0.025397 (Hartree/Particle)
 Thermal correction to Energy=                    0.029216
 Thermal correction to Enthalpy=                  0.030160
 Thermal correction to Gibbs Free Energy=         0.001948
 Sum of electronic and zero-point Energies=           -343.621291
 Sum of electronic and thermal Energies=              -343.617472
 Sum of electronic and thermal Enthalpies=            -343.616527
 Sum of electronic and thermal Free Energies=         -343.644740

                     E (Thermal)             CV                S
                      KCal/Mol        Cal/Mol-Kelvin    Cal/Mol-Kelvin
 Total                   18.333             10.150             59.378
 Electronic               0.000              0.000              1.377
 Translational            0.889              2.981             36.589
 Rotational               0.889              2.981             17.886
 Vibrational             16.556              4.188              3.526
 Vibration     1          0.628              1.870              2.353
 Vibration     2          0.761              1.483              0.986

 Optimization completed.
    -- Stationary point found.
 Normal termination of Gaussian 16 at Wed Oct  7 13:18:09 2020.
