 Gaussian 16, Revision A.03,

 ----------------------------------------------------------------------
 #P Opt(TS,MaxCyc=50,NoEigenTest,MaxStep=10,AddRedundant) TPSSTPSS/6-31
 G* 5D 7F Integral=UltraFineGrid SCF=(NoSymm,XQC,MaxCyc=120) EmpiricalD
 ispersion=GD3BJ IOp(1/33=1)
 ----------------------------------------------------------------------

 TstMul:  Mul=     3
 TstMul:  ICh=     0
 TstMul:  Mul=     3
 Symbolic Z-matrix:
 Charge =  0 Multiplicity = 3

 SCF Done:  E(UTPSS-TPSS) =  -115.578910095     A.U. after   14 cycles
 SCF Done:  E(UTPSS-TPSS) =  -115.579692793     A.U. after   13 cycles
 SCF Done:  E(UTPSS-TPSS) =  -115.580253889     A.U. after   12 cycles
 SCF Done:  E(UTPSS-TPSS) =  -115.579280835     A.U. after   12 cycles
 SCF Done:  E(UTPSS-TPSS) =  -115.578402191     A.U. after   12 cycles
 SCF Done:  E(UTPSS-TPSS) =  -115.577872323     A.U. after   12 cycles
 SCF Done:  E(UTPSS-TPSS) =  -115.577700789     A.U. after   13 cycles
 SCF Done:  E(UTPSS-TPSS) =  -115.577702843     A.U. after   10 cycles
 SCF Done:  E(UTPSS-TPSS) =  -115.577703074     A.U. after    8 cycles
 Optimization completed.
    -- Stationary point found.
 Normal termination of Gaussian 16 at Wed Oct  7 13:09:40 2020.
 Gaussian 16:  ES64L-G16RevA.03 25-Dec-2016

 ----------------------------------------------------------------------
 #P Freq TPSSTPSS/6-31G* 5D 7F Integral=UltraFineGrid SCF=(NoSymm,XQC,M
 axCyc=120) EmpiricalDispersion=GD3BJ IOp(1/33=1) Geom=Check Guess=Read
 ----------------------------------------------------------------------

 TstMul:  Mul=     3
 TstMul:  ICh=     0
 TstMul:  Mul=     3
 Structure from the checkpoint file:  "MN_87_RKT11_BH76_TPSSDBJ_631Gs.chk"
 Charge =  0 Multiplicity = 3

                         Standard orientation:
 ---------------------------------------------------------------------
 Center     Atomic      Atomic             Coordinates (Angstroms)
 Number     Number       Type             X           Y           Z
 ---------------------------------------------------------------------
      1          6           0        0.000434   -1.187620   -0.000000
      2          1           0       -1.071330   -1.392489    0.000000
      3          1           0        0.527094   -1.424167    0.925126
      4          1           0        0.527094   -1.424167   -0.925126
      5          1           0        0.011069    0.264096   -0.000000
      6          8           0        0.000434    1.387806    0.000000
 ---------------------------------------------------------------------

 SCF Done:  E(UTPSS-TPSS) =  -115.577703074     A.U. after    1 cycles

 The electronic state is 3-A'.
 Alpha  occ. eigenvalues --  -18.95491 -10.02736  -0.90180  -0.66536  -0.41779
 Alpha  occ. eigenvalues --   -0.39637  -0.39602  -0.33297  -0.25408  -0.23013
 Alpha virt. eigenvalues --    0.08344   0.13891   0.13988   0.21382   0.48787
 Alpha virt. eigenvalues --    0.49196   0.50935   0.68677   0.82036   0.85103
 Alpha virt. eigenvalues --    0.85700   0.85779   0.86910   0.92102   1.11676

  Beta  occ. eigenvalues --  -18.91958 -10.01538  -0.81535  -0.63679  -0.38978
  Beta  occ. eigenvalues --   -0.38956  -0.36699  -0.22727
  Beta virt. eigenvalues --   -0.16769  -0.13893   0.09763   0.15011   0.15083
  Beta virt. eigenvalues --    0.24731   0.50204   0.50210   0.56640   0.70679
  Beta virt. eigenvalues --    0.88476   0.88494   0.89204   0.89564   0.92969

 Mulliken charges and spin densities:
               1          2
     1  C   -0.634252   0.768890
     2  H    0.200759  -0.023925
     3  H    0.201446  -0.024895
     4  H    0.201446  -0.024895
     5  H    0.405433  -0.060850
     6  O   -0.374831   1.365675
 Sum of Mulliken charges =  -0.00000   2.00000

 Dipole moment (field-independent basis, Debye):
    X=              0.0012    Y=             -2.1928    Z=             -0.0000  Tot=              2.1928
 Quadrupole moment (field-independent basis, Debye-Ang):
   XX=            -12.3204   YY=            -15.4248   ZZ=            -13.4567
   XY=             -0.0023   XZ=             -0.0000   YZ=              0.0000

  Exact polarizability:  14.505  -0.081  30.060  -0.000  -0.000  14.266
 Approx polarizability:  19.027  -0.119  46.452   0.000   0.000  18.220

 ******    1 imaginary frequencies (negative Signs) ******

                      1                      2                      3
                     A'                     A"                     A'
 Frequencies --   -859.6758               237.5350               392.8412
 Red. masses --      1.3907                 1.0580                 1.0678
 Frc consts  --      0.6056                 0.0352                 0.0971
 IR Inten    --     99.5945                 7.6373                 3.7102

                      4                      5                      6
                     A'                     A"                     A'
 Frequencies --    656.7857               852.1130              1064.4352
 Red. masses --      2.1247                 1.0629                 1.0545
 Frc consts  --      0.5400                 0.4547                 0.7039
 IR Inten    --      0.2794                44.2716                48.5037

                      7                      8                      9
                     A'                     A"                     A'
 Frequencies --   1252.8327              1439.2546              1451.5912
 Red. masses --      1.3114                 1.0847                 1.0850
 Frc consts  --      1.2127                 1.3238                 1.3471
 IR Inten    --     21.3179                 3.3688                 2.9716

                     10                     11                     12
                     A'                     A'                     A"
 Frequencies --   3074.6460              3220.3624              3223.9332
 Red. masses --      1.0155                 1.1123                 1.1119
 Frc consts  --      5.6560                 6.7963                 6.8093
 IR Inten    --      0.0348                 7.8152                 6.9446

 - Thermochemistry -
 -------------------
 Temperature   298.150 Kelvin.  Pressure   1.00000 Atm.
 Atom     1 has atomic number  6 and mass  12.00000

 Molecular mass:    32.02621 amu.
 Principal axes and moments of inertia in atomic units:
                           1         2         3
     Eigenvalues --    12.29151 196.68285 196.71232
           X           -0.00008   0.00000   1.00000
           Y            1.00000   0.00000   0.00008
           Z            0.00000   1.00000   0.00000
 This molecule is an asymmetric top.
 Rotational symmetry number  1.
 Rotational temperatures (Kelvin)      7.04665     0.44037     0.44031
 Rotational constants (GHZ):         146.82827     9.17589     9.17452
    1 imaginary frequencies ignored.
 Zero-point vibrational energy     100883.1 (Joules/Mol)
                                   24.11163 (Kcal/Mol)
 Warning -- explicit consideration of   2 degrees of freedom as
           vibrations may cause significant error
 Vibrational temperatures:    341.76   565.21   944.97  1226.00  1531.48
          (Kelvin)           1802.55  2070.77  2088.52  4423.73  4633.38
                             4638.52

 Zero-point correction=                           0.038424 (Hartree/Particle)
 Thermal correction to Energy=                    0.042328
 Thermal correction to Enthalpy=                  0.043272
 Thermal correction to Gibbs Free Energy=         0.013446
 Sum of electronic and zero-point Energies=           -115.539279
 Sum of electronic and thermal Energies=              -115.535375
 Sum of electronic and thermal Enthalpies=            -115.534431
 Sum of electronic and thermal Free Energies=         -115.564257

                     E (Thermal)             CV                S
                      KCal/Mol        Cal/Mol-Kelvin    Cal/Mol-Kelvin
 Total                   26.561             11.379             62.775
 Electronic               0.000              0.000              2.183
 Translational            0.889              2.981             36.324
 Rotational               0.889              2.981             20.792
 Vibrational             24.784              5.418              3.476
 Vibration     1          0.656              1.783              1.821
 Vibration     2          0.760              1.485              0.989

 Optimization completed.
    -- Stationary point found.
 Normal termination of Gaussian 16 at Wed Oct  7 13:10:08 2020.
