 Gaussian 16, Revision A.03,

 ----------------------------------------------------------------------
 #P Opt(TS,MaxCyc=50,NoEigenTest,MaxStep=10,AddRedundant) TPSSTPSS/6-31
 G* 5D 7F Integral=UltraFineGrid SCF=(NoSymm,XQC,MaxCyc=120) EmpiricalD
 ispersion=GD3BJ IOp(1/33=1)
 ----------------------------------------------------------------------

 TstMul:  Mul=     2
 TstMul:  ICh=     0
 TstMul:  Mul=     2
 Symbolic Z-matrix:
 Charge =  0 Multiplicity = 2

 SCF Done:  E(UTPSS-TPSS) =  -100.901372681     A.U. after   15 cycles
 SCF Done:  E(UTPSS-TPSS) =  -100.901326062     A.U. after   11 cycles
 SCF Done:  E(UTPSS-TPSS) =  -100.901305796     A.U. after   11 cycles
 SCF Done:  E(UTPSS-TPSS) =  -100.901324045     A.U. after   12 cycles
 SCF Done:  E(UTPSS-TPSS) =  -100.901698439     A.U. after   14 cycles
 SCF Done:  E(UTPSS-TPSS) =  -100.901387567     A.U. after   13 cycles
 SCF Done:  E(UTPSS-TPSS) =  -100.901083188     A.U. after   14 cycles
 SCF Done:  E(UTPSS-TPSS) =  -100.900764213     A.U. after   14 cycles
 SCF Done:  E(UTPSS-TPSS) =  -100.900551937     A.U. after   14 cycles
 SCF Done:  E(UTPSS-TPSS) =  -100.900290965     A.U. after   14 cycles
 SCF Done:  E(UTPSS-TPSS) =  -100.899648494     A.U. after   16 cycles
 SCF Done:  E(UTPSS-TPSS) =  -100.899559400     A.U. after   16 cycles
 SCF Done:  E(UTPSS-TPSS) =  -100.899377250     A.U. after   14 cycles
 SCF Done:  E(UTPSS-TPSS) =  -100.899300584     A.U. after   16 cycles
 SCF Done:  E(UTPSS-TPSS) =  -100.899185424     A.U. after   13 cycles
 SCF Done:  E(UTPSS-TPSS) =  -100.899135842     A.U. after   13 cycles
 SCF Done:  E(UTPSS-TPSS) =  -100.899088913     A.U. after   14 cycles
 SCF Done:  E(UTPSS-TPSS) =  -100.899081320     A.U. after   13 cycles
 SCF Done:  E(UTPSS-TPSS) =  -100.899081582     A.U. after   10 cycles
 Optimization completed.
    -- Stationary point found.
 Normal termination of Gaussian 16 at Wed Oct  7 13:11:16 2020.
 Gaussian 16:  ES64L-G16RevA.03 25-Dec-2016

 ----------------------------------------------------------------------
 #P Freq TPSSTPSS/6-31G* 5D 7F Integral=UltraFineGrid SCF=(NoSymm,XQC,M
 axCyc=120) EmpiricalDispersion=GD3BJ IOp(1/33=1) Geom=Check Guess=Read
 ----------------------------------------------------------------------

 TstMul:  Mul=     2
 TstMul:  ICh=     0
 TstMul:  Mul=     2
 Structure from the checkpoint file:  "MN_86_RKT10_BH76_TPSSDBJ_631Gs.chk"
 Charge =  0 Multiplicity = 2

                         Standard orientation:
 ---------------------------------------------------------------------
 Center     Atomic      Atomic             Coordinates (Angstroms)
 Number     Number       Type             X           Y           Z
 ---------------------------------------------------------------------
      1          1           0        0.380337   -1.442660    0.000000
      2          9           0        0.000000    0.320766    0.000000
      3          1           0       -0.380337   -1.444238    0.000000
 ---------------------------------------------------------------------

 SCF Done:  E(UTPSS-TPSS) =  -100.899081582     A.U. after    1 cycles

 The electronic state is 2-A'.
 Alpha  occ. eigenvalues --  -24.45010  -1.07842  -0.48732  -0.35898  -0.34010
 Alpha  occ. eigenvalues --   -0.33618
 Alpha virt. eigenvalues --    0.06673   0.56967   1.09082   1.12528   1.12836
 Alpha virt. eigenvalues --    1.18885   1.34459   1.77176   1.77185   1.79432
 Alpha virt. eigenvalues --    1.81647   1.81652
  Beta  occ. eigenvalues --  -24.42280  -1.01215  -0.43612  -0.31732  -0.31349
  Beta virt. eigenvalues --   -0.23720   0.07915   0.58704   1.11876   1.14701
  Beta virt. eigenvalues --    1.20999   1.21914   1.38950   1.82035   1.82347
  Beta virt. eigenvalues --    1.82351   1.84246   1.84309

 Mulliken charges and spin densities:
               1          2
     1  H    0.060261   0.073132
     2  F   -0.120322   0.853051
     3  H    0.060061   0.073817
 Sum of Mulliken charges =  -0.00000   1.00000

 Dipole moment (field-independent basis, Debye):
    X=              0.0002    Y=             -0.9674    Z=              0.0000  Tot=              0.9674
 Quadrupole moment (field-independent basis, Debye-Ang):
   XX=             -6.2299   YY=             -4.7672   ZZ=             -6.6543
   XY=              0.0005   XZ=              0.0000   YZ=              0.0000

  Exact polarizability:   7.260   0.010  12.656   0.000   0.000   1.554
 Approx polarizability:   9.546   0.015  19.745   0.000   0.000   1.830

 ******    1 imaginary frequencies (negative Signs) ******

                      1                      2                      3
                     A'                     A'                     A'
 Frequencies --   -360.7556               494.4257              4124.4063
 Red. masses --      1.0123                 1.1084                 1.0079
 Frc consts  --      0.0776                 0.1596                10.1016
 IR Inten    --      0.4338                35.3633               115.8606

 - Thermochemistry -
 -------------------
 Temperature   298.150 Kelvin.  Pressure   1.00000 Atm.
 Atom     1 has atomic number  1 and mass   1.00783

 Molecular mass:    21.01405 amu.
 Principal axes and moments of inertia in atomic units:
                           1         2         3
     Eigenvalues --     1.04124  20.25458  21.29582
           X            0.00011   1.00000   0.00000
           Y            1.00000  -0.00011   0.00000
           Z            0.00000   0.00000   1.00000
 This molecule is an asymmetric top.
 Rotational symmetry number  1.
 Rotational temperatures (Kelvin)     83.18356     4.27626     4.06718
 Rotational constants (GHZ):        1733.26412    89.10285    84.74625
    1 imaginary frequencies ignored.
 Zero-point vibrational energy      27626.8 (Joules/Mol)
                                    6.60295 (Kcal/Mol)
 Warning -- explicit consideration of   1 degrees of freedom as
           vibrations may cause significant error
 Vibrational temperatures:    711.37  5934.10
          (Kelvin)

 Zero-point correction=                           0.010522 (Hartree/Particle)
 Thermal correction to Energy=                    0.013583
 Thermal correction to Enthalpy=                  0.014527
 Thermal correction to Gibbs Free Energy=        -0.009699
 Sum of electronic and zero-point Energies=           -100.888559
 Sum of electronic and thermal Energies=              -100.885498
 Sum of electronic and thermal Enthalpies=            -100.884554
 Sum of electronic and thermal Free Energies=         -100.908781

                     E (Thermal)             CV                S
                      KCal/Mol        Cal/Mol-Kelvin    Cal/Mol-Kelvin
 Total                    8.524              7.224             50.989
 Electronic               0.000              0.000              1.377
 Translational            0.889              2.981             35.068
 Rotational               0.889              2.981             13.871
 Vibrational              6.746              1.262              0.672
 Vibration     1          0.850              1.262              0.672

 Optimization completed.
    -- Stationary point found.
 Normal termination of Gaussian 16 at Wed Oct  7 13:11:38 2020.
