 Gaussian 16, Revision A.03,

 ----------------------------------------------------------------------
 #P Opt(TS,MaxCyc=50,NoEigenTest,MaxStep=10,AddRedundant) TPSSTPSS/6-31
 G* 5D 7F Integral=UltraFineGrid SCF=(NoSymm,XQC,MaxCyc=120) EmpiricalD
 ispersion=GD3BJ IOp(1/33=1)
 ----------------------------------------------------------------------

 TstMul:  Mul=     2
 TstMul:  ICh=     0
 TstMul:  Mul=     2
 Symbolic Z-matrix:
 Charge =  0 Multiplicity = 2

 SCF Done:  E(UTPSS-TPSS) =  -116.249156225     A.U. after   14 cycles
 SCF Done:  E(UTPSS-TPSS) =  -116.249173508     A.U. after   11 cycles
 SCF Done:  E(UTPSS-TPSS) =  -116.249191199     A.U. after   11 cycles
 SCF Done:  E(UTPSS-TPSS) =  -116.249186327     A.U. after   13 cycles
 SCF Done:  E(UTPSS-TPSS) =  -116.249425445     A.U. after   13 cycles
 SCF Done:  E(UTPSS-TPSS) =  -116.249503501     A.U. after   12 cycles
 SCF Done:  E(UTPSS-TPSS) =  -116.249505063     A.U. after    9 cycles
 Optimization completed.
    -- Stationary point found.
 Normal termination of Gaussian 16 at Wed Oct  7 13:09:08 2020.
 Gaussian 16:  ES64L-G16RevA.03 25-Dec-2016

 ----------------------------------------------------------------------
 #P Freq TPSSTPSS/6-31G* 5D 7F Integral=UltraFineGrid SCF=(NoSymm,XQC,M
 axCyc=120) EmpiricalDispersion=GD3BJ IOp(1/33=1) Geom=Check Guess=Read
 ----------------------------------------------------------------------

 TstMul:  Mul=     2
 TstMul:  ICh=     0
 TstMul:  Mul=     2
 Structure from the checkpoint file:  "MN_81_RKT04_BH76_TPSSDBJ_631Gs.chk"
 Charge =  0 Multiplicity = 2

                         Standard orientation:
 ---------------------------------------------------------------------
 Center     Atomic      Atomic             Coordinates (Angstroms)
 Number     Number       Type             X           Y           Z
 ---------------------------------------------------------------------
      1          6           0       -1.220891    0.009817    0.000203
      2          8           0        1.292254   -0.110569    0.000109
      3          1           0        0.058254   -0.145074    0.011995
      4          1           0       -1.538166   -0.224336    1.019112
      5          1           0       -1.411689    1.046407   -0.288207
      6          1           0       -1.558786   -0.714788   -0.744683
      7          1           0        1.437699    0.863436   -0.000302
 ---------------------------------------------------------------------

 SCF Done:  E(UTPSS-TPSS) =  -116.249505063     A.U. after    1 cycles

 The electronic state is 2-A.
 Alpha  occ. eigenvalues --  -18.90582 -10.01174  -0.90623  -0.66043  -0.43799
 Alpha  occ. eigenvalues --   -0.38277  -0.38152  -0.35529  -0.23369  -0.22566
 Alpha virt. eigenvalues --    0.06985   0.10763   0.14390   0.14654   0.26020
 Alpha virt. eigenvalues --    0.49802   0.49990   0.52223   0.74447   0.78885
 Alpha virt. eigenvalues --    0.86134   0.86271   0.88035   0.88702   0.95039

  Beta  occ. eigenvalues --  -18.89078 -10.00255  -0.87356  -0.64001  -0.41593
  Beta  occ. eigenvalues --   -0.37696  -0.37622  -0.32744  -0.22244
  Beta virt. eigenvalues --   -0.14726   0.07715   0.11701   0.15237   0.15511
  Beta virt. eigenvalues --    0.27703   0.50504   0.50655   0.56353   0.75290
  Beta virt. eigenvalues --    0.80583   0.88044   0.88111   0.89845   0.90538

 Mulliken charges and spin densities:
               1          2
     1  C   -0.660494   0.560610
     2  O   -0.644874   0.556040
     3  H    0.359557  -0.062381
     4  H    0.192228  -0.013284
     5  H    0.180780  -0.016946
     6  H    0.194979  -0.012303
     7  H    0.377824  -0.011736
 Sum of Mulliken charges =  -0.00000   1.00000

 Dipole moment (field-independent basis, Debye):
    X=             -1.4305    Y=              1.5053    Z=              0.0021  Tot=              2.0766
 Quadrupole moment (field-independent basis, Debye-Ang):
   XX=            -14.6194   YY=            -12.5449   ZZ=            -14.3842
   XY=              2.5810   XZ=             -0.0046   YZ=              0.0143

  Exact polarizability:  34.631   1.232  18.380  -0.046  -0.007  14.694
 Approx polarizability:  54.812  -0.282  25.518  -0.120  -0.014  18.912

 ******    2 imaginary frequencies (negative Signs) ******

                      1                      2                      3
                      A                      A                      A
 Frequencies --  -1289.5669               -35.9358               315.9915
 Red. masses --      1.0717                 1.0509                 1.0654
 Frc consts  --      1.0501                 0.0008                 0.0627
 IR Inten    --    319.2006                79.5916                 7.5908

                      4                      5                      6
                      A                      A                      A
 Frequencies --    382.2228               589.8783               892.2353
 Red. masses --      1.1305                 3.4202                 1.1657
 Frc consts  --      0.0973                 0.7012                 0.5467
 IR Inten    --      9.9000                21.6580                82.2009

                      7                      8                      9
                      A                      A                      A
 Frequencies --   1076.6423              1238.9753              1456.5848
 Red. masses --      1.0878                 1.1610                 1.1050
 Frc consts  --      0.7429                 1.0500                 1.3813
 IR Inten    --     44.1993                 0.0230                28.3612

                     10                     11                     12
                      A                      A                      A
 Frequencies --   1468.4516              1500.5681              3062.1583
 Red. masses --      1.0690                 1.0251                 1.0205
 Frc consts  --      1.3581                 1.3600                 5.6379
 IR Inten    --      1.8872                54.2099                 1.7890

                     13                     14                     15
                      A                      A                      A
 Frequencies --   3188.9145              3193.5464              3588.9826
 Red. masses --      1.1085                 1.1091                 1.0662
 Frc consts  --      6.6415                 6.6644                 8.0913
 IR Inten    --     14.8538                12.2607                 7.7521

 - Thermochemistry -
 -------------------
 Temperature   298.150 Kelvin.  Pressure   1.00000 Atm.
 Atom     1 has atomic number  6 and mass  12.00000

 Molecular mass:    33.03404 amu.
 Principal axes and moments of inertia in atomic units:
                           1         2         3
     Eigenvalues --    15.29268 196.30466 199.53094
           X            0.99975   0.02231   0.00001
           Y           -0.02231   0.99975   0.00005
           Z           -0.00001  -0.00005   1.00000
 This molecule is an asymmetric top.
 Rotational symmetry number  1.
 Rotational temperatures (Kelvin)      5.66375     0.44122     0.43409
 Rotational constants (GHZ):         118.01339     9.19357     9.04492
    2 imaginary frequencies ignored.
 Zero-point vibrational energy     131321.0 (Joules/Mol)
                                   31.38647 (Kcal/Mol)
 Warning -- explicit consideration of   3 degrees of freedom as
           vibrations may cause significant error
 Vibrational temperatures:    454.64   549.93   848.70  1283.73  1549.05
          (Kelvin)           1782.61  2095.70  2112.77  2158.98  4405.76
                             4588.14  4594.80  5163.75

 Zero-point correction=                           0.050018 (Hartree/Particle)
 Thermal correction to Energy=                    0.053857
 Thermal correction to Enthalpy=                  0.054801
 Thermal correction to Gibbs Free Energy=         0.025376
 Sum of electronic and zero-point Energies=           -116.199488
 Sum of electronic and thermal Energies=              -116.195648
 Sum of electronic and thermal Enthalpies=            -116.194704
 Sum of electronic and thermal Free Energies=         -116.224129

                     E (Thermal)             CV                S
                      KCal/Mol        Cal/Mol-Kelvin    Cal/Mol-Kelvin
 Total                   33.796             11.404             61.930
 Electronic               0.000              0.000              1.377
 Translational            0.889              2.981             36.416
 Rotational               0.889              2.981             21.021
 Vibrational             32.018              5.442              3.116
 Vibration     1          0.703              1.643              1.331
 Vibration     2          0.752              1.508              1.030
 Vibration     3          0.947              1.053              0.467

                           ! Non-Optimized Parameters !
 Normal termination of Gaussian 16 at Wed Oct  7 13:09:45 2020.
