 Gaussian 16, Revision A.03,

 ----------------------------------------------------------------------
 #P Opt(TS,MaxCyc=50,NoEigenTest,MaxStep=10,AddRedundant) TPSSTPSS/6-31
 G* 5D 7F Integral=UltraFineGrid SCF=(NoSymm,XQC,MaxCyc=120) EmpiricalD
 ispersion=GD3BJ IOp(1/33=1)
 ----------------------------------------------------------------------

 TstMul:  Mul=     3
 TstMul:  ICh=     0
 TstMul:  Mul=     3
 Symbolic Z-matrix:
 Charge =  0 Multiplicity = 3

 SCF Done:  E(UTPSS-TPSS) =  -76.2300801615     A.U. after   13 cycles
 SCF Done:  E(UTPSS-TPSS) =  -76.2301147432     A.U. after   10 cycles
 SCF Done:  E(UTPSS-TPSS) =  -76.2300995498     A.U. after   10 cycles
 SCF Done:  E(UTPSS-TPSS) =  -76.2294526876     A.U. after   12 cycles
 SCF Done:  E(UTPSS-TPSS) =  -76.2291891450     A.U. after   11 cycles
 SCF Done:  E(UTPSS-TPSS) =  -76.2291717505     A.U. after   12 cycles
 SCF Done:  E(UTPSS-TPSS) =  -76.2292387267     A.U. after   11 cycles
 SCF Done:  E(UTPSS-TPSS) =  -76.2292594733     A.U. after    9 cycles
 SCF Done:  E(UTPSS-TPSS) =  -76.2292566668     A.U. after    9 cycles
 SCF Done:  E(UTPSS-TPSS) =  -76.2292524474     A.U. after    9 cycles
 SCF Done:  E(UTPSS-TPSS) =  -76.2292524061     A.U. after    8 cycles
 Optimization completed.
    -- Stationary point found.
 Normal termination of Gaussian 16 at Wed Oct  7 13:09:29 2020.
 Gaussian 16:  ES64L-G16RevA.03 25-Dec-2016

 ----------------------------------------------------------------------
 #P Freq TPSSTPSS/6-31G* 5D 7F Integral=UltraFineGrid SCF=(NoSymm,XQC,M
 axCyc=120) EmpiricalDispersion=GD3BJ IOp(1/33=1) Geom=Check Guess=Read
 ----------------------------------------------------------------------

 TstMul:  Mul=     3
 TstMul:  ICh=     0
 TstMul:  Mul=     3
 Structure from the checkpoint file:  "MN_89_RKT14_BH76_TPSSDBJ_631Gs.chk"
 Charge =  0 Multiplicity = 3

                         Standard orientation:
 ---------------------------------------------------------------------
 Center     Atomic      Atomic             Coordinates (Angstroms)
 Number     Number       Type             X           Y           Z
 ---------------------------------------------------------------------
      1          8           0        0.000000    0.000000    0.327057
      2          1           0        0.000000    0.000000   -0.775764
      3          1           0        0.000000    0.000000   -1.840689
 ---------------------------------------------------------------------

 SCF Done:  E(UTPSS-TPSS) =  -76.2292524061     A.U. after    1 cycles

 Unable to determine electronic state:  partially filled degenerate orbitals.
 Alpha  occ. eigenvalues --  -18.98604  -0.93327  -0.47310  -0.36087  -0.29605
 Alpha  occ. eigenvalues --   -0.28073
 Alpha virt. eigenvalues --    0.15027   0.65048   0.72778   0.77620   0.82530
 Alpha virt. eigenvalues --    0.89104   1.33868   1.64111   1.69219   1.70242
 Alpha virt. eigenvalues --    1.70331   2.21753
  Beta  occ. eigenvalues --  -18.95032  -0.84535  -0.40993  -0.25394
  Beta virt. eigenvalues --   -0.19315  -0.17064   0.19560   0.68983   0.84623
  Beta virt. eigenvalues --    0.85060   0.88849   0.94798   1.40998   1.72817
  Beta virt. eigenvalues --    1.73824   1.77198   1.78622   2.28924

 Mulliken charges and spin densities:
               1          2
     1  O   -0.298928   1.378120
     2  H    0.282170  -0.090295
     3  H    0.016757   0.712175
 Sum of Mulliken charges =  -0.00000   2.00000

 Dipole moment (field-independent basis, Debye):
    X=              0.0000    Y=             -0.0000    Z=             -1.2500  Tot=              1.2500
 Quadrupole moment (field-independent basis, Debye-Ang):
   XX=             -7.7124   YY=             -6.5647   ZZ=             -6.3756
   XY=             -0.0000   XZ=              0.0000   YZ=             -0.0000

  Exact polarizability:   2.349   0.000   2.655  -0.000  -0.000  19.326
 Approx polarizability:   2.616   0.000   3.485  -0.000  -0.000  31.183

 ******    1 imaginary frequencies (negative Signs) ******

                      1                      2                      3
                     SG                     PI                     PI
 Frequencies --   -768.5543               396.3832               847.2657
 Red. masses --      1.0080                 1.0192                 1.0192
 Frc consts  --      0.3508                 0.0944                 0.4311
 IR Inten    --    124.8445                39.6640                31.9213

                      4
                     SG
 Frequencies --   1578.6067
 Red. masses --      1.1256
 Frc consts  --      1.6527
 IR Inten    --      0.3099

 - Thermochemistry -
 -------------------
 Temperature   298.150 Kelvin.  Pressure   1.00000 Atm.
 Atom     1 has atomic number  8 and mass  15.99491

 Molecular mass:    18.01056 amu.
 Principal axes and moments of inertia in atomic units:
                           1         2         3
     Eigenvalues --     0.00000  19.13513  19.13513
           X            0.00000   0.00000   1.00000
           Y            0.00000   1.00000   0.00000
           Z            1.00000   0.00000   0.00000
 This molecule is a prolate symmetric top.
 Rotational symmetry number  1.
 Rotational temperature (Kelvin)      4.52644
 Rotational constant (GHZ):          94.315600
    1 imaginary frequencies ignored.
 Zero-point vibrational energy      16880.8 (Joules/Mol)
                                    4.03462 (Kcal/Mol)
 Warning -- explicit consideration of   1 degrees of freedom as
           vibrations may cause significant error
 Vibrational temperatures:    570.31  1219.03  2271.26
          (Kelvin)

 Zero-point correction=                           0.006430 (Hartree/Particle)
 Thermal correction to Energy=                    0.009172
 Thermal correction to Enthalpy=                  0.010116
 Thermal correction to Gibbs Free Energy=        -0.012812
 Sum of electronic and zero-point Energies=            -76.222823
 Sum of electronic and thermal Energies=               -76.220080
 Sum of electronic and thermal Enthalpies=             -76.219136
 Sum of electronic and thermal Free Energies=          -76.242064

                     E (Thermal)             CV                S
                      KCal/Mol        Cal/Mol-Kelvin    Cal/Mol-Kelvin
 Total                    5.756              7.079             48.257
 Electronic               0.000              0.000              2.183
 Translational            0.889              2.981             34.608
 Rotational               0.592              1.987             10.309
 Vibrational              4.274              2.111              1.157
 Vibration     1          0.763              1.478              0.976

 Optimization completed.
    -- Stationary point found.
 Normal termination of Gaussian 16 at Wed Oct  7 13:09:48 2020.
