 Gaussian 16, Revision A.03,

 ----------------------------------------------------------------------
 #P Opt(TS,MaxCyc=50,NoEigenTest,MaxStep=10,AddRedundant) TPSSTPSS/6-31
 G* 5D 7F Integral=UltraFineGrid SCF=(NoSymm,XQC,MaxCyc=120) EmpiricalD
 ispersion=GD3BJ IOp(1/33=1)
 ----------------------------------------------------------------------

 TstMul:  Mul=     2
 TstMul:  ICh=     0
 TstMul:  Mul=     2
 Symbolic Z-matrix:
 Charge =  0 Multiplicity = 2

 SCF Done:  E(UTPSS-TPSS) =  -155.575000125     A.U. after   15 cycles
 SCF Done:  E(UTPSS-TPSS) =  -155.575026930     A.U. after   11 cycles
 SCF Done:  E(UTPSS-TPSS) =  -155.575019720     A.U. after   11 cycles
 SCF Done:  E(UTPSS-TPSS) =  -155.575374195     A.U. after   13 cycles
 SCF Done:  E(UTPSS-TPSS) =  -155.575712422     A.U. after   13 cycles
 SCF Done:  E(UTPSS-TPSS) =  -155.575810477     A.U. after   13 cycles
 SCF Done:  E(UTPSS-TPSS) =  -155.575818075     A.U. after   13 cycles
 SCF Done:  E(UTPSS-TPSS) =  -155.575813266     A.U. after   13 cycles
 SCF Done:  E(UTPSS-TPSS) =  -155.575833053     A.U. after   13 cycles
 SCF Done:  E(UTPSS-TPSS) =  -155.575847287     A.U. after   13 cycles
 SCF Done:  E(UTPSS-TPSS) =  -155.575850712     A.U. after   12 cycles
 SCF Done:  E(UTPSS-TPSS) =  -155.575851277     A.U. after    9 cycles
 SCF Done:  E(UTPSS-TPSS) =  -155.575851541     A.U. after    9 cycles
 SCF Done:  E(UTPSS-TPSS) =  -155.575851582     A.U. after    9 cycles
 SCF Done:  E(UTPSS-TPSS) =  -155.575851584     A.U. after    9 cycles
 Optimization completed.
    -- Stationary point found.
 Normal termination of Gaussian 16 at Wed Oct  7 13:12:43 2020.
 Gaussian 16:  ES64L-G16RevA.03 25-Dec-2016

 ----------------------------------------------------------------------
 #P Freq TPSSTPSS/6-31G* 5D 7F Integral=UltraFineGrid SCF=(NoSymm,XQC,M
 axCyc=120) EmpiricalDispersion=GD3BJ IOp(1/33=1) Geom=Check Guess=Read
 ----------------------------------------------------------------------

 TstMul:  Mul=     2
 TstMul:  ICh=     0
 TstMul:  Mul=     2
 Structure from the checkpoint file:  "MN_85_RKT09_BH76_TPSSDBJ_631Gs.chk"
 Charge =  0 Multiplicity = 2

                         Standard orientation:
 ---------------------------------------------------------------------
 Center     Atomic      Atomic             Coordinates (Angstroms)
 Number     Number       Type             X           Y           Z
 ---------------------------------------------------------------------
      1          6           0        1.444706   -0.464461    0.018746
      2          6           0        0.482198    0.708289   -0.014654
      3          8           0       -1.866839   -0.260699   -0.099936
      4          1           0        1.236930   -1.127247    0.868535
      5          1           0        1.381693   -1.057805   -0.902021
      6          1           0        2.482902   -0.107345    0.118170
      7          1           0        0.457515    1.298555    0.909254
      8          1           0        0.585262    1.360139   -0.890320
      9          1           0       -0.655976    0.245219   -0.143297
     10          1           0       -2.115037    0.011108    0.814614
 ---------------------------------------------------------------------

 SCF Done:  E(UTPSS-TPSS) =  -155.575851584     A.U. after    1 cycles

 The electronic state is 2-A.
 Alpha  occ. eigenvalues --  -18.90343 -10.01031  -9.99602  -0.89710  -0.71128
 Alpha  occ. eigenvalues --   -0.57978  -0.43386  -0.41062  -0.37527  -0.34874
 Alpha  occ. eigenvalues --   -0.33747  -0.32262  -0.22886  -0.21928
 Alpha virt. eigenvalues --    0.06961   0.10237   0.12827   0.13186   0.15107
 Alpha virt. eigenvalues --    0.17002   0.20609   0.26938   0.47901   0.51263
 Alpha virt. eigenvalues --    0.52979   0.58080   0.61071   0.63248   0.78192

  Beta  occ. eigenvalues --  -18.88700 -10.00261  -9.99618  -0.86115  -0.70214
  Beta  occ. eigenvalues --   -0.56958  -0.41452  -0.40652  -0.36583  -0.34174
  Beta  occ. eigenvalues --   -0.32136  -0.31197  -0.21632
  Beta virt. eigenvalues --   -0.14385   0.07572   0.10665   0.13403   0.13615
  Beta virt. eigenvalues --    0.15403   0.17410   0.21318   0.28488   0.48341
  Beta virt. eigenvalues --    0.51565   0.53873   0.60409   0.61574   0.64062

 Mulliken charges and spin densities:
               1          2
     1  C   -0.452119  -0.016470
     2  C   -0.486617   0.449448
     3  O   -0.620221   0.618668
     4  H    0.166954   0.004218
     5  H    0.173615   0.003099
     6  H    0.164348   0.029982
     7  H    0.167298  -0.011004
     8  H    0.180763  -0.005839
     9  H    0.329802  -0.057884
    10  H    0.376177  -0.014218
 Sum of Mulliken charges =  -0.00000   1.00000

 Dipole moment (field-independent basis, Debye):
    X=              1.3936    Y=              0.8752    Z=              1.3825  Tot=              2.1493
 Quadrupole moment (field-independent basis, Debye-Ang):
   XX=            -21.6713   YY=            -20.8816   ZZ=            -19.1161
   XY=             -1.1038   XZ=             -3.4101   YZ=              0.0585

  Exact polarizability:  49.524   4.049  27.767  -1.694   0.610  27.708
 Approx polarizability:  77.262  11.922  39.517  -0.467   1.906  40.250

 ******    1 imaginary frequencies (negative Signs) ******

                      1                      2                      3
                      A                      A                      A
 Frequencies --   -684.3434                60.6595               114.0823
 Red. masses --      1.3023                 1.0668                 2.8484
 Frc consts  --      0.3593                 0.0023                 0.0218
 IR Inten    --    328.1284                86.4172                 9.3165

                      4                      5                      6
                      A                      A                      A
 Frequencies --    176.0736               399.9755               721.5565
 Red. masses --      1.1069                 1.0925                 1.7735
 Frc consts  --      0.0202                 0.1030                 0.5440
 IR Inten    --      4.1054                 6.0725                60.9897

                      7                      8                      9
                      A                      A                      A
 Frequencies --    784.8862               834.0216               945.8505
 Red. masses --      1.1767                 1.0920                 1.2348
 Frc consts  --      0.4271                 0.4475                 0.6509
 IR Inten    --     36.4372                47.7172               214.9748

                     10                     11                     12
                      A                      A                      A
 Frequencies --   1019.7676              1121.5657              1236.7635
 Red. masses --      2.6920                 1.3687                 1.3937
 Frc consts  --      1.6494                 1.0144                 1.2560
 IR Inten    --      4.2174                13.6546                 0.9708

                     13                     14                     15
                      A                      A                      A
 Frequencies --   1288.9905              1421.4543              1458.8314
 Red. masses --      1.1971                 1.2026                 1.0320
 Frc consts  --      1.1719                 1.4316                 1.2940
 IR Inten    --      4.6364                 1.6418                28.5238

                     16                     17                     18
                      A                      A                      A
 Frequencies --   1492.3663              1511.9129              1523.0846
 Red. masses --      1.1207                 1.0422                 1.0517
 Frc consts  --      1.4705                 1.4037                 1.4374
 IR Inten    --      4.9526                 7.0154                 3.3117

                     19                     20                     21
                      A                      A                      A
 Frequencies --   3001.3715              3055.2854              3072.7924
 Red. masses --      1.0450                 1.0565                 1.0851
 Frc consts  --      5.5464                 5.8108                 6.0366
 IR Inten    --     17.0143                11.5176                34.4548

                     22                     23                     24
                      A                      A                      A
 Frequencies --   3097.8264              3129.6243              3576.4433
 Red. masses --      1.1027                 1.1077                 1.0665
 Frc consts  --      6.2347                 6.3921                 8.0371
 IR Inten    --      7.2818                43.7042                 8.3469

 - Thermochemistry -
 -------------------
 Temperature   298.150 Kelvin.  Pressure   1.00000 Atm.
 Atom     1 has atomic number  6 and mass  12.00000

 Molecular mass:    47.04969 amu.
 Principal axes and moments of inertia in atomic units:
                           1         2         3
     Eigenvalues --    70.47631 366.50465 408.09530
           X            0.99962  -0.02247  -0.01626
           Y            0.02240   0.99974  -0.00452
           Z            0.01635   0.00415   0.99986
 This molecule is an asymmetric top.
 Rotational symmetry number  1.
 Rotational temperatures (Kelvin)      1.22898     0.23632     0.21224
 Rotational constants (GHZ):          25.60777     4.92420     4.42235
    1 imaginary frequencies ignored.
 Zero-point vibrational energy     209616.8 (Joules/Mol)
                                   50.09961 (Kcal/Mol)
 Warning -- explicit consideration of   4 degrees of freedom as
           vibrations may cause significant error
 Vibrational temperatures:     87.28   164.14   253.33   575.48  1038.16
          (Kelvin)           1129.28  1199.97  1360.87  1467.22  1613.68
                             1779.43  1854.57  2045.16  2098.93  2147.18
                             2175.31  2191.38  4318.30  4395.87  4421.06
                             4457.08  4502.83  5145.70

 Zero-point correction=                           0.079839 (Hartree/Particle)
 Thermal correction to Energy=                    0.085512
 Thermal correction to Enthalpy=                  0.086457
 Thermal correction to Gibbs Free Energy=         0.050938
 Sum of electronic and zero-point Energies=           -155.496013
 Sum of electronic and thermal Energies=              -155.490339
 Sum of electronic and thermal Enthalpies=            -155.489395
 Sum of electronic and thermal Free Energies=         -155.524914

                     E (Thermal)             CV                S
                      KCal/Mol        Cal/Mol-Kelvin    Cal/Mol-Kelvin
 Total                   53.660             17.073             74.756
 Electronic               0.000              0.000              1.377
 Translational            0.889              2.981             37.471
 Rotational               0.889              2.981             23.870
 Vibrational             51.882             11.111             12.037
 Vibration     1          0.597              1.973              4.436
 Vibration     2          0.607              1.938              3.198
 Vibration     3          0.628              1.872              2.370
 Vibration     4          0.766              1.470              0.963

                           ! Non-Optimized Parameters !
 Normal termination of Gaussian 16 at Wed Oct  7 13:13:56 2020.
