 Gaussian 16, Revision A.03,

 ----------------------------------------------------------------------
 #P Opt(TS,MaxCyc=50,NoEigenTest,MaxStep=10,AddRedundant) TPSSTPSS/6-31
 G* 5D 7F Integral=UltraFineGrid SCF=(NoSymm,XQC,MaxCyc=120) EmpiricalD
 ispersion=GD3BJ IOp(1/33=1)
 ----------------------------------------------------------------------

 TstMul:  Mul=     2
 TstMul:  ICh=     0
 TstMul:  Mul=     2
 Symbolic Z-matrix:
 Charge =  0 Multiplicity = 2

 SCF Done:  E(UTPSS-TPSS) =  -1.67192003669     A.U. after    9 cycles
 SCF Done:  E(UTPSS-TPSS) =  -1.67193585648     A.U. after    7 cycles
 SCF Done:  E(UTPSS-TPSS) =  -1.67193669453     A.U. after    6 cycles
 Optimization completed.
    -- Stationary point found.

 1\1\GINC-NODE62\FTS\UTPSSTPSS\6-31G(d)\H3(2)\RPEVERATI\07-Oct-2020\0\\
 #P Opt(TS,MaxCyc=50,NoEigenTest,MaxStep=10,AddRedundant) TPSSTPSS/6-31
 G* 5D 7F Integral=UltraFineGrid SCF=(NoSymm,XQC,MaxCyc=120) EmpiricalD
 ispersion=GD3BJ IOp(1/33=1)\\TS search on BH76.\\0,2\H,0.,0.,0.\H,0.,0
 .,0.9347305017\H,0.,0.,-0.9347305017\\Version=ES64L-G16RevA.03\State=2
 -SGU\HF=-1.6719367\S2=0.761086\S2-1=0.\S2A=0.75\RMSD=5.677e-09\RMSF=2.
 519e-06\Dipole=0.,0.,0.\Quadrupole=-0.002457,-0.002457,0.004914,0.,0.,
 0.\PG=D*H [O(H1),C*(H1.H1)]\\@

 Normal termination of Gaussian 16 at Wed Oct  7 13:07:57 2020.
 Gaussian 16:  ES64L-G16RevA.03 25-Dec-2016

 ----------------------------------------------------------------------
 #P Freq TPSSTPSS/6-31G* 5D 7F Integral=UltraFineGrid SCF=(NoSymm,XQC,M
 axCyc=120) EmpiricalDispersion=GD3BJ IOp(1/33=1) Geom=Check Guess=Read
 ----------------------------------------------------------------------

 TstMul:  Mul=     2
 TstMul:  ICh=     0
 TstMul:  Mul=     2
 Structure from the checkpoint file:  "MN_82_RKT06_BH76_TPSSDBJ_631Gs.chk"
 Charge =  0 Multiplicity = 2

                         Standard orientation:
 ---------------------------------------------------------------------
 Center     Atomic      Atomic             Coordinates (Angstroms)
 Number     Number       Type             X           Y           Z
 ---------------------------------------------------------------------
      1          1           0        0.000000    0.000000    0.000000
      2          1           0        0.000000    0.000000    0.934731
      3          1           0        0.000000    0.000000   -0.934731
 ---------------------------------------------------------------------

 SCF Done:  E(UTPSS-TPSS) =  -1.67193669453     A.U. after    1 cycles

 The electronic state is 2-SGU.
 Alpha  occ. eigenvalues --   -0.47171  -0.23158
 Alpha virt. eigenvalues --    0.12995   0.66318   0.74236   1.00588
  Beta  occ. eigenvalues --   -0.42503
  Beta virt. eigenvalues --   -0.09600   0.18796   0.74813   0.95559   1.26298

 Mulliken charges and spin densities:
               1          2
     1  H   -0.108878  -0.204704
     2  H    0.054439   0.602352
     3  H    0.054439   0.602352
 Sum of Mulliken charges =  -0.00000   1.00000

 Dipole moment (field-independent basis, Debye):
    X=              0.0000    Y=              0.0000    Z=              0.0000  Tot=              0.0000
 Quadrupole moment (field-independent basis, Debye-Ang):
   XX=             -3.2852   YY=             -3.2852   ZZ=             -3.2752
   XY=              0.0000   XZ=             -0.0000   YZ=              0.0000

  Exact polarizability:   0.000   0.000   0.000  -0.000   0.000  19.007
 Approx polarizability:   0.000  -0.000  -0.000  -0.000  -0.000  25.288

 ******    1 imaginary frequencies (negative Signs) ******

                      1                      2                      3
                     SGU                    PIU                    PIU
 Frequencies --  -1543.5226              1096.3351              1096.3351
 Red. masses --      1.0078                 1.0078                 1.0078
 Frc consts  --      1.4147                 0.7137                 0.7137
 IR Inten    --     49.3138                 9.5348                 9.5348

                      4
                     SGG
 Frequencies --   2086.0623
 Red. masses --      1.0078
 Frc consts  --      2.5840
 IR Inten    --      0.0000

 - Thermochemistry -
 -------------------
 Temperature   298.150 Kelvin.  Pressure   1.00000 Atm.
 Atom     1 has atomic number  1 and mass   1.00783

 Molecular mass:     3.02348 amu.
 Principal axes and moments of inertia in atomic units:
                           1         2         3
     Eigenvalues --     0.00000   6.28906   6.28906
           X           -0.00000   1.00000   0.00000
           Y            0.00000   0.00000   1.00000
           Z            1.00000   0.00000   0.00000
 This molecule is a prolate symmetric top.
 Rotational symmetry number  2.
 Rotational temperature (Kelvin)     13.77216
 Rotational constant (GHZ):         286.965199
    1 imaginary frequencies ignored.
 Zero-point vibrational energy      25592.5 (Joules/Mol)
                                    6.11675 (Kcal/Mol)
 Vibrational temperatures:   1577.38  1577.38  3001.38
          (Kelvin)

 Zero-point correction=                           0.009748 (Hartree/Particle)
 Thermal correction to Energy=                    0.012159
 Thermal correction to Enthalpy=                  0.013103
 Thermal correction to Gibbs Free Energy=        -0.004721
 Sum of electronic and zero-point Energies=             -1.662189
 Sum of electronic and thermal Energies=                -1.659778
 Sum of electronic and thermal Enthalpies=              -1.658833
 Sum of electronic and thermal Free Energies=           -1.676658

                     E (Thermal)             CV                S
                      KCal/Mol        Cal/Mol-Kelvin    Cal/Mol-Kelvin
 Total                    7.630              5.543             37.514
 Electronic               0.000              0.000              1.377
 Translational            0.889              2.981             29.289
 Rotational               0.592              1.987              6.720
 Vibrational              6.149              0.575              0.128

 Optimization completed.
    -- Stationary point found.
 Normal termination of Gaussian 16 at Wed Oct  7 13:08:22 2020.
