 Gaussian 16, Revision A.03,

 ----------------------------------------------------------------------
 #P Opt(TS,MaxCyc=50,NoEigenTest,MaxStep=10,AddRedundant) TPSSTPSS/6-31
 G* 5D 7F Integral=UltraFineGrid SCF=(NoSymm,XQC,MaxCyc=120) EmpiricalD
 ispersion=GD3BJ IOp(1/33=1)
 ----------------------------------------------------------------------

 TstMul:  Mul=     2
 TstMul:  ICh=     0
 TstMul:  Mul=     2
 Symbolic Z-matrix:
 Charge =  0 Multiplicity = 2

 SCF Done:  E(UTPSS-TPSS) =  -132.291014167     A.U. after   17 cycles
 SCF Done:  E(UTPSS-TPSS) =  -132.291051071     A.U. after   12 cycles
 SCF Done:  E(UTPSS-TPSS) =  -132.291060001     A.U. after   11 cycles
 SCF Done:  E(UTPSS-TPSS) =  -132.291884079     A.U. after   15 cycles
 SCF Done:  E(UTPSS-TPSS) =  -132.292257518     A.U. after   14 cycles
 SCF Done:  E(UTPSS-TPSS) =  -132.292291942     A.U. after   11 cycles
 SCF Done:  E(UTPSS-TPSS) =  -132.292313198     A.U. after   13 cycles
 SCF Done:  E(UTPSS-TPSS) =  -132.292318595     A.U. after   11 cycles
 SCF Done:  E(UTPSS-TPSS) =  -132.292321516     A.U. after   10 cycles
 SCF Done:  E(UTPSS-TPSS) =  -132.292325411     A.U. after   10 cycles
 SCF Done:  E(UTPSS-TPSS) =  -132.292329737     A.U. after   10 cycles
 SCF Done:  E(UTPSS-TPSS) =  -132.292331421     A.U. after   10 cycles
 SCF Done:  E(UTPSS-TPSS) =  -132.292331652     A.U. after    9 cycles
 Optimization completed.
    -- Stationary point found.
 Normal termination of Gaussian 16 at Wed Oct  7 13:10:41 2020.
 Gaussian 16:  ES64L-G16RevA.03 25-Dec-2016

 ----------------------------------------------------------------------
 #P Freq TPSSTPSS/6-31G* 5D 7F Integral=UltraFineGrid SCF=(NoSymm,XQC,M
 axCyc=120) EmpiricalDispersion=GD3BJ IOp(1/33=1) Geom=Check Guess=Read
 ----------------------------------------------------------------------

 TstMul:  Mul=     2
 TstMul:  ICh=     0
 TstMul:  Mul=     2
 Structure from the checkpoint file:  "MN_83_RKT07_BH76_TPSSDBJ_631Gs.chk"
 Charge =  0 Multiplicity = 2

                         Standard orientation:
 ---------------------------------------------------------------------
 Center     Atomic      Atomic             Coordinates (Angstroms)
 Number     Number       Type             X           Y           Z
 ---------------------------------------------------------------------
      1          7           0       -1.159406   -0.010285   -0.115638
      2          8           0        1.177190   -0.107149    0.017445
      3          1           0       -1.348172   -0.714833    0.610839
      4          1           0       -1.343811    0.899163    0.330753
      5          1           0        0.011425   -0.104666   -0.394768
      6          1           0        1.378876    0.849520    0.123077
 ---------------------------------------------------------------------

 SCF Done:  E(UTPSS-TPSS) =  -132.292331652     A.U. after    1 cycles

 The electronic state is 2-A.
 Alpha  occ. eigenvalues --  -18.89704 -14.14144  -0.90475  -0.80630  -0.46259
 Alpha  occ. eigenvalues --   -0.44175  -0.36023  -0.29025  -0.23733  -0.23219
 Alpha virt. eigenvalues --    0.04524   0.09619   0.12531   0.25446   0.59684
 Alpha virt. eigenvalues --    0.62410   0.67154   0.77648   0.79951   0.80459
 Alpha virt. eigenvalues --    0.84212   0.91711   0.94450   1.06386   1.21405

  Beta  occ. eigenvalues --  -18.88439 -14.12898  -0.87806  -0.77944  -0.44860
  Beta  occ. eigenvalues --   -0.43383  -0.34676  -0.25075  -0.22373
  Beta virt. eigenvalues --   -0.15584   0.05343   0.10283   0.13041   0.26346
  Beta virt. eigenvalues --    0.61831   0.63131   0.70728   0.78897   0.81195
  Beta virt. eigenvalues --    0.82405   0.85523   0.93185   0.96819   1.08234

 Mulliken charges and spin densities:
               1          2
     1  N   -0.774054   0.610216
     2  O   -0.684845   0.478394
     3  H    0.330348  -0.018823
     4  H    0.315615  -0.019265
     5  H    0.436387  -0.039472
     6  H    0.376548  -0.011051
 Sum of Mulliken charges =   0.00000   1.00000

 Dipole moment (field-independent basis, Debye):
    X=             -1.2279    Y=              1.7697    Z=              1.3708  Tot=              2.5532
 Quadrupole moment (field-independent basis, Debye-Ang):
   XX=            -13.9425   YY=            -10.7395   ZZ=            -14.0344
   XY=              2.0013   XZ=             -2.2936   YZ=              0.0101

  Exact polarizability:  42.050   1.144  15.542   0.091   0.131  10.094
 Approx polarizability: 103.596  -2.131  22.189   5.620   0.085  13.692

 ******    1 imaginary frequencies (negative Signs) ******

                      1                      2                      3
                      A                      A                      A
 Frequencies --  -1251.8202               254.6652               413.1861
 Red. masses --      1.0371                 1.0628                 2.0334
 Frc consts  --      0.9575                 0.0406                 0.2045
 IR Inten    --     88.4440                76.7549                29.1536

                      4                      5                      6
                      A                      A                      A
 Frequencies --    514.6094               793.5551               880.1431
 Red. masses --      1.0337                 1.7212                 1.1497
 Frc consts  --      0.1613                 0.6386                 0.5247
 IR Inten    --     35.2995               151.9276                87.7082

                      7                      8                      9
                      A                      A                      A
 Frequencies --   1430.9089              1631.7022              1683.4116
 Red. masses --      1.1214                 1.0668                 1.0342
 Frc consts  --      1.3528                 1.6735                 1.7268
 IR Inten    --    141.0542                43.0747                11.5317

                     10                     11                     12
                      A                      A                      A
 Frequencies --   3369.5338              3468.5817              3602.0449
 Red. masses --      1.0497                 1.0902                 1.0661
 Frc consts  --      7.0217                 7.7280                 8.1496
 IR Inten    --      2.7107                 0.2597                14.1848

 - Thermochemistry -
 -------------------
 Temperature   298.150 Kelvin.  Pressure   1.00000 Atm.
 Atom     1 has atomic number  7 and mass  14.00307

 Molecular mass:    34.02929 amu.
 Principal axes and moments of inertia in atomic units:
                           1         2         3
     Eigenvalues --    10.78840 169.13897 174.14002
           X            0.99950   0.01997  -0.02445
           Y           -0.01992   0.99980   0.00210
           Z            0.02449  -0.00161   0.99970
 This molecule is an asymmetric top.
 Rotational symmetry number  1.
 Rotational temperatures (Kelvin)      8.02843     0.51209     0.49738
 Rotational constants (GHZ):         167.28534    10.67017    10.36374
    1 imaginary frequencies ignored.
 Zero-point vibrational energy     107917.2 (Joules/Mol)
                                   25.79282 (Kcal/Mol)
 Warning -- explicit consideration of   3 degrees of freedom as
           vibrations may cause significant error
 Vibrational temperatures:    366.41   594.48   740.41  1141.75  1266.33
          (Kelvin)           2058.76  2347.66  2422.05  4848.01  4990.52
                             5182.54

 Zero-point correction=                           0.041103 (Hartree/Particle)
 Thermal correction to Energy=                    0.045076
 Thermal correction to Enthalpy=                  0.046021
 Thermal correction to Gibbs Free Energy=         0.016609
 Sum of electronic and zero-point Energies=           -132.251228
 Sum of electronic and thermal Energies=              -132.247255
 Sum of electronic and thermal Enthalpies=            -132.246311
 Sum of electronic and thermal Free Energies=         -132.275722

                     E (Thermal)             CV                S
                      KCal/Mol        Cal/Mol-Kelvin    Cal/Mol-Kelvin
 Total                   28.286             11.746             61.901
 Electronic               0.000              0.000              1.377
 Translational            0.889              2.981             36.505
 Rotational               0.889              2.981             20.391
 Vibrational             26.508              5.784              3.628
 Vibration     1          0.665              1.755              1.698
 Vibration     2          0.777              1.442              0.915
 Vibration     3          0.870              1.218              0.623

 Optimization completed.
    -- Stationary point found.
 Normal termination of Gaussian 16 at Wed Oct  7 13:11:15 2020.
