 Gaussian 16, Revision A.03,

 ----------------------------------------------------------------------
 #P Opt(TS,MaxCyc=50,NoEigenTest,MaxStep=10,AddRedundant) TPSSTPSS/6-31
 G* 5D 7F Integral=UltraFineGrid SCF=(NoSymm,XQC,MaxCyc=120) EmpiricalD
 ispersion=GD3BJ IOp(1/33=1)
 ----------------------------------------------------------------------

 TstMul:  Mul=     3
 TstMul:  ICh=     0
 TstMul:  Mul=     3
 Symbolic Z-matrix:
 Charge =  0 Multiplicity = 3

 SCF Done:  E(UTPSS-TPSS) =  -135.049668773     A.U. after   15 cycles
 SCF Done:  E(UTPSS-TPSS) =  -135.050026076     A.U. after   11 cycles
 SCF Done:  E(UTPSS-TPSS) =  -135.051039536     A.U. after   15 cycles
 SCF Done:  E(UTPSS-TPSS) =  -135.051529662     A.U. after   13 cycles
 SCF Done:  E(UTPSS-TPSS) =  -135.051976446     A.U. after   13 cycles
 SCF Done:  E(UTPSS-TPSS) =  -135.052473326     A.U. after   13 cycles
 SCF Done:  E(UTPSS-TPSS) =  -135.052362318     A.U. after   15 cycles
 SCF Done:  E(UTPSS-TPSS) =  -135.053184471     A.U. after   14 cycles
 SCF Done:  E(UTPSS-TPSS) =  -135.052293073     A.U. after   15 cycles
 SCF Done:  E(UTPSS-TPSS) =  -135.051805666     A.U. after   16 cycles
 SCF Done:  E(UTPSS-TPSS) =  -135.050994544     A.U. after   12 cycles
 SCF Done:  E(UTPSS-TPSS) =  -135.050984378     A.U. after   14 cycles
 SCF Done:  E(UTPSS-TPSS) =  -135.050988129     A.U. after   12 cycles
 SCF Done:  E(UTPSS-TPSS) =  -135.050990135     A.U. after   12 cycles
 SCF Done:  E(UTPSS-TPSS) =  -135.050991838     A.U. after   12 cycles
 SCF Done:  E(UTPSS-TPSS) =  -135.050993668     A.U. after   12 cycles
 SCF Done:  E(UTPSS-TPSS) =  -135.050994093     A.U. after    9 cycles
 SCF Done:  E(UTPSS-TPSS) =  -135.050994140     A.U. after    8 cycles
 SCF Done:  E(UTPSS-TPSS) =  -135.050994150     A.U. after    8 cycles
 Optimization completed.
    -- Stationary point found.
 Normal termination of Gaussian 16 at Wed Oct  7 13:20:39 2020.
 Gaussian 16:  ES64L-G16RevA.03 25-Dec-2016

 ----------------------------------------------------------------------
 #P Freq TPSSTPSS/6-31G* 5D 7F Integral=UltraFineGrid SCF=(NoSymm,XQC,M
 axCyc=120) EmpiricalDispersion=GD3BJ IOp(1/33=1) Geom=Check Guess=Read
 ----------------------------------------------------------------------

 TstMul:  Mul=     3
 TstMul:  ICh=     0
 TstMul:  Mul=     3
 Structure from the checkpoint file:  "MN_93_RKT19_BH76_TPSSDBJ_631Gs.chk"
 Charge =  0 Multiplicity = 3

                         Standard orientation:
 ---------------------------------------------------------------------
 Center     Atomic      Atomic             Coordinates (Angstroms)
 Number     Number       Type             X           Y           Z
 ---------------------------------------------------------------------
      1          6           0       -1.431816   -0.440969   -0.000008
      2          6           0       -0.450544    0.708146    0.000002
      3          7           0        1.977186   -0.371173    0.000014
      4          1           0       -1.308256   -1.073071   -0.889423
      5          1           0       -1.307441   -1.073776    0.888802
      6          1           0       -2.473024   -0.073248    0.000645
      7          1           0       -0.417045    1.314104   -0.911260
      8          1           0       -0.417286    1.314249    0.911172
      9          1           0        0.853666    0.065990    0.000010
     10          1           0        2.523250    0.520899   -0.000007
 ---------------------------------------------------------------------

 SCF Done:  E(UTPSS-TPSS) =  -135.050994150     A.U. after    1 cycles

 The electronic state is 3-A.
 Alpha  occ. eigenvalues --  -14.14399 -10.00604  -9.99307  -0.77281  -0.70061
 Alpha  occ. eigenvalues --   -0.56784  -0.41743  -0.40738  -0.36154  -0.34258
 Alpha  occ. eigenvalues --   -0.32017  -0.29460  -0.25904  -0.17730
 Alpha virt. eigenvalues --    0.08022   0.10427   0.12767   0.13242   0.15242
 Alpha virt. eigenvalues --    0.17798   0.21558   0.25569   0.47158   0.50855
 Alpha virt. eigenvalues --    0.53351   0.56318   0.58895   0.63378   0.68187

  Beta  occ. eigenvalues --  -14.11462  -9.99507  -9.99350  -0.71152  -0.68268
  Beta  occ. eigenvalues --   -0.55369  -0.40330  -0.39650  -0.34962  -0.33759
  Beta  occ. eigenvalues --   -0.31769  -0.25442
  Beta virt. eigenvalues --   -0.11175  -0.09562   0.09197   0.11488   0.13697
  Beta virt. eigenvalues --    0.13903   0.15604   0.18456   0.22588   0.28313
  Beta virt. eigenvalues --    0.47951   0.51985   0.54086   0.60097   0.62480

 Mulliken charges and spin densities:
               1          2
     1  C   -0.450565  -0.037691
     2  C   -0.447863   0.674146
     3  N   -0.516189   1.482586
     4  H    0.168544   0.006244
     5  H    0.168558   0.006286
     6  H    0.164008   0.041779
     7  H    0.169202  -0.019980
     8  H    0.169194  -0.019982
     9  H    0.291029  -0.095651
    10  H    0.284083  -0.037738
 Sum of Mulliken charges =  -0.00000   2.00000

 Dipole moment (field-independent basis, Debye):
    X=             -0.8531    Y=              1.6250    Z=             -0.0000  Tot=              1.8353
 Quadrupole moment (field-independent basis, Debye-Ang):
   XX=            -21.3645   YY=            -21.7535   ZZ=            -20.5399
   XY=              3.9028   XZ=             -0.0003   YZ=              0.0001

  Exact polarizability:  55.042  -3.093  32.380  -0.002  -0.000  26.027
 Approx polarizability:  80.018 -10.660  47.949  -0.004  -0.000  36.636

 ******    1 imaginary frequencies (negative Signs) ******

                      1                      2                      3
                      A                      A                      A
 Frequencies --  -1265.5101                53.9735               136.7612
 Red. masses --      1.1297                 1.0820                 2.8386
 Frc consts  --      1.0660                 0.0019                 0.0313
 IR Inten    --    300.0282                70.6973                 4.7733

                      4                      5                      6
                      A                      A                      A
 Frequencies --    159.8027               455.4615               478.8850
 Red. masses --      1.1001                 1.0667                 1.9475
 Frc consts  --      0.0166                 0.1304                 0.2631
 IR Inten    --      0.9408                 3.3253                 8.6023

                      7                      8                      9
                      A                      A                      A
 Frequencies --    716.6298               821.5412               910.6001
 Red. masses --      1.4372                 1.0486                 1.1545
 Frc consts  --      0.4349                 0.4170                 0.5641
 IR Inten    --     10.5995                 7.0425                34.8743

                     10                     11                     12
                      A                      A                      A
 Frequencies --   1048.2200              1143.8378              1176.8663
 Red. masses --      3.1705                 1.0913                 1.4828
 Frc consts  --      2.0525                 0.8412                 1.2100
 IR Inten    --      1.1775                25.9348                 5.3786

                     13                     14                     15
                      A                      A                      A
 Frequencies --   1233.4183              1421.1888              1482.2373
 Red. masses --      1.3459                 1.1976                 1.0937
 Frc consts  --      1.2063                 1.4251                 1.4157
 IR Inten    --      3.7028                 4.0644                16.5454

                     16                     17                     18
                      A                      A                      A
 Frequencies --   1497.2248              1514.7023              1518.1093
 Red. masses --      1.0960                 1.0377                 1.0513
 Frc consts  --      1.4476                 1.4027                 1.4276
 IR Inten    --     53.0963                 4.4914                 8.6006

                     19                     20                     21
                      A                      A                      A
 Frequencies --   2980.4107              3055.2194              3070.3808
 Red. masses --      1.0507                 1.0787                 1.0544
 Frc consts  --      5.4987                 5.9327                 5.8568
 IR Inten    --     30.8530                13.4730                32.9130

                     22                     23                     24
                      A                      A                      A
 Frequencies --   3090.7227              3149.0019              3233.0960
 Red. masses --      1.1022                 1.1120                 1.0724
 Frc consts  --      6.2036                 6.4968                 6.6045
 IR Inten    --     17.0715                40.2336                30.4100

 - Thermochemistry -
 -------------------
 Temperature   298.150 Kelvin.  Pressure   1.00000 Atm.
 Atom     1 has atomic number  6 and mass  12.00000

 Molecular mass:    45.05785 amu.
 Principal axes and moments of inertia in atomic units:
                           1         2         3
     Eigenvalues --    69.59887 364.74713 411.01239
           X            0.99926   0.03856  -0.00000
           Y           -0.03856   0.99926  -0.00000
           Z            0.00000   0.00000   1.00000
 This molecule is an asymmetric top.
 Rotational symmetry number  1.
 Rotational temperatures (Kelvin)      1.24447     0.23746     0.21073
 Rotational constants (GHZ):          25.93061     4.94792     4.39097
    1 imaginary frequencies ignored.
 Zero-point vibrational energy     205448.4 (Joules/Mol)
                                   49.10335 (Kcal/Mol)
 Warning -- explicit consideration of   5 degrees of freedom as
           vibrations may cause significant error
 Vibrational temperatures:     77.66   196.77   229.92   655.31   689.01
          (Kelvin)           1031.07  1182.01  1310.15  1508.15  1645.73
                             1693.25  1774.61  2044.77  2132.61  2154.17
                             2179.32  2184.22  4288.15  4395.78  4417.59
                             4446.86  4530.71  4651.70

 Zero-point correction=                           0.078251 (Hartree/Particle)
 Thermal correction to Energy=                    0.084044
 Thermal correction to Enthalpy=                  0.084988
 Thermal correction to Gibbs Free Energy=         0.048959
 Sum of electronic and zero-point Energies=           -134.972743
 Sum of electronic and thermal Energies=              -134.966950
 Sum of electronic and thermal Enthalpies=            -134.966006
 Sum of electronic and thermal Free Energies=         -135.002035

                     E (Thermal)             CV                S
                      KCal/Mol        Cal/Mol-Kelvin    Cal/Mol-Kelvin
 Total                   52.738             17.663             75.829
 Electronic               0.000              0.000              2.183
 Translational            0.889              2.981             37.342
 Rotational               0.889              2.981             23.860
 Vibrational             50.961             11.702             12.444
 Vibration     1          0.596              1.976              4.666
 Vibration     2          0.614              1.917              2.849
 Vibration     3          0.622              1.892              2.552
 Vibration     4          0.814              1.349              0.779
 Vibration     5          0.835              1.297              0.713

 Optimization completed.
    -- Stationary point found.
 Normal termination of Gaussian 16 at Wed Oct  7 13:21:44 2020.
