 Gaussian 16, Revision A.03,

 ----------------------------------------------------------------------
 #P Opt(TS,MaxCyc=50,NoEigenTest,MaxStep=10,AddRedundant) TPSSTPSS/6-31
 G* 5D 7F Integral=UltraFineGrid SCF=(NoSymm,XQC,MaxCyc=120) EmpiricalD
 ispersion=GD3BJ IOp(1/33=1)
 ----------------------------------------------------------------------

 TstMul:  Mul=     2
 TstMul:  ICh=     0
 TstMul:  Mul=     2
 Symbolic Z-matrix:
 Charge =  0 Multiplicity = 2

 SCF Done:  E(UTPSS-TPSS) =  -96.3870672952     A.U. after   14 cycles
 SCF Done:  E(UTPSS-TPSS) =  -96.3871915837     A.U. after   12 cycles
 SCF Done:  E(UTPSS-TPSS) =  -96.3878824182     A.U. after   13 cycles
 SCF Done:  E(UTPSS-TPSS) =  -96.3879699755     A.U. after   12 cycles
 SCF Done:  E(UTPSS-TPSS) =  -96.3881148463     A.U. after   12 cycles
 SCF Done:  E(UTPSS-TPSS) =  -96.3878986791     A.U. after   14 cycles
 SCF Done:  E(UTPSS-TPSS) =  -96.3877591657     A.U. after   14 cycles
 SCF Done:  E(UTPSS-TPSS) =  -96.3879077578     A.U. after   12 cycles
 SCF Done:  E(UTPSS-TPSS) =  -96.3875973175     A.U. after   13 cycles
 SCF Done:  E(UTPSS-TPSS) =  -96.3875915184     A.U. after   12 cycles
 SCF Done:  E(UTPSS-TPSS) =  -96.3875938180     A.U. after    9 cycles
 SCF Done:  E(UTPSS-TPSS) =  -96.3875946721     A.U. after    9 cycles
 Optimization completed.
    -- Stationary point found.
 Normal termination of Gaussian 16 at Wed Oct  7 13:11:55 2020.
 Gaussian 16:  ES64L-G16RevA.03 25-Dec-2016

 ----------------------------------------------------------------------
 #P Freq TPSSTPSS/6-31G* 5D 7F Integral=UltraFineGrid SCF=(NoSymm,XQC,M
 axCyc=120) EmpiricalDispersion=GD3BJ IOp(1/33=1) Geom=Check Guess=Read
 ----------------------------------------------------------------------

 TstMul:  Mul=     2
 TstMul:  ICh=     0
 TstMul:  Mul=     2
 Structure from the checkpoint file:  "MN_95_RKT21_BH76_TPSSDBJ_631Gs.chk"
 Charge =  0 Multiplicity = 2

                         Standard orientation:
 ---------------------------------------------------------------------
 Center     Atomic      Atomic             Coordinates (Angstroms)
 Number     Number       Type             X           Y           Z
 ---------------------------------------------------------------------
      1          6           0       -1.274593    0.000275    0.013648
      2          7           0        1.324692    0.000340   -0.139833
      3          1           0       -1.668053    0.444853   -0.903998
      4          1           0       -1.460927    0.602705    0.905759
      5          1           0       -1.539471   -1.052824    0.136407
      6          1           0        0.076073    0.004393   -0.213618
      7          1           0        1.486670    0.807466    0.487825
      8          1           0        1.480419   -0.810623    0.484565
 ---------------------------------------------------------------------

 SCF Done:  E(UTPSS-TPSS) =  -96.3875946721     A.U. after    1 cycles

 The electronic state is 2-A.
 Alpha  occ. eigenvalues --  -14.11170  -9.99555  -0.78670  -0.63921  -0.41058
 Alpha  occ. eigenvalues --   -0.39863  -0.36709  -0.36618  -0.24961  -0.18407
 Alpha virt. eigenvalues --    0.06904   0.11639   0.13435   0.15571   0.16088
 Alpha virt. eigenvalues --    0.26465   0.49281   0.50077   0.53632   0.68332
 Alpha virt. eigenvalues --    0.70824   0.71209   0.85638   0.86187   0.87562

  Beta  occ. eigenvalues --  -14.09978  -9.98579  -0.76145  -0.61917  -0.40495
  Beta  occ. eigenvalues --   -0.37639  -0.36137  -0.36052  -0.22889
  Beta virt. eigenvalues --   -0.10879   0.07747   0.12653   0.14001   0.16477
  Beta virt. eigenvalues --    0.16924   0.27986   0.49884   0.50987   0.58063
  Beta virt. eigenvalues --    0.70669   0.71341   0.73812   0.87139   0.88107

 Mulliken charges and spin densities:
               1          2
     1  C   -0.652495   0.596863
     2  N   -0.763597   0.557430
     3  H    0.184349  -0.013774
     4  H    0.171295  -0.019710
     5  H    0.176248  -0.017649
     6  H    0.296983  -0.075744
     7  H    0.293593  -0.013667
     8  H    0.293624  -0.013749
 Sum of Mulliken charges =  -0.00000   1.00000

 Dipole moment (field-independent basis, Debye):
    X=             -0.6103    Y=             -0.0025    Z=              1.6813  Tot=              1.7886
 Quadrupole moment (field-independent basis, Debye-Ang):
   XX=            -16.2067   YY=            -13.6483   ZZ=            -15.4693
   XY=             -0.0059   XZ=              3.0442   YZ=             -0.0164

  Exact polarizability:  43.540   0.010  21.907   0.680  -0.013  19.459
 Approx polarizability:  67.536   0.010  30.103  -1.241  -0.011  26.679

 ******    1 imaginary frequencies (negative Signs) ******

                      1                      2                      3
                      A                      A                      A
 Frequencies --  -1592.6957                 3.2254               381.6219
 Red. masses --      1.0743                 1.0273                 1.2244
 Frc consts  --      1.6057                 0.0000                 0.1051
 IR Inten    --    236.8300                34.9706                 8.0467

                      4                      5                      6
                      A                      A                      A
 Frequencies --    403.7364               552.7772               800.1458
 Red. masses --      1.0251                 2.3833                 1.1076
 Frc consts  --      0.0985                 0.4291                 0.4178
 IR Inten    --      2.7130                 3.4269                 6.3104

                      7                      8                      9
                      A                      A                      A
 Frequencies --    862.3593              1159.2181              1394.5704
 Red. masses --      1.2479                 1.1804                 1.1127
 Frc consts  --      0.5468                 0.9346                 1.2750
 IR Inten    --     91.2852                19.0800               146.3457

                     10                     11                     12
                      A                      A                      A
 Frequencies --   1463.2895              1473.0063              1551.4173
 Red. masses --      1.0918                 1.0598                 1.0346
 Frc consts  --      1.3773                 1.3549                 1.4671
 IR Inten    --      6.8683                 8.8085                10.3682

                     13                     14                     15
                      A                      A                      A
 Frequencies --   1641.6879              3058.3928              3187.0673
 Red. masses --      1.0620                 1.0198                 1.1093
 Frc consts  --      1.6864                 5.6200                 6.6387
 IR Inten    --     18.3360                 3.8962                18.0831

                     16                     17                     18
                      A                      A                      A
 Frequencies --   3188.0791              3292.7016              3391.8948
 Red. masses --      1.1094                 1.0494                 1.0880
 Frc consts  --      6.6434                 6.7035                 7.3753
 IR Inten    --     19.3893                10.7570                 8.6046

 - Thermochemistry -
 -------------------
 Temperature   298.150 Kelvin.  Pressure   1.00000 Atm.
 Atom     1 has atomic number  6 and mass  12.00000

 Molecular mass:    32.05002 amu.
 Principal axes and moments of inertia in atomic units:
                           1         2         3
     Eigenvalues --    19.32317 207.88950 210.00720
           X            0.99968  -0.00002   0.02521
           Y            0.00002   1.00000   0.00030
           Z           -0.02521  -0.00030   0.99968
 This molecule is an asymmetric top.
 Rotational symmetry number  1.
 Rotational temperatures (Kelvin)      4.48239     0.41663     0.41243
 Rotational constants (GHZ):          93.39778     8.68125     8.59371
    1 imaginary frequencies ignored.
 Zero-point vibrational energy     166312.0 (Joules/Mol)
                                   39.74952 (Kcal/Mol)
 Warning -- explicit consideration of   4 degrees of freedom as
           vibrations may cause significant error
 Vibrational temperatures:      4.64   549.07   580.89   795.32  1151.23
          (Kelvin)           1240.74  1667.86  2006.48  2105.35  2119.33
                             2232.14  2362.02  4400.35  4585.48  4586.93
                             4737.46  4880.18

 Zero-point correction=                           0.063345 (Hartree/Particle)
 Thermal correction to Energy=                    0.068121
 Thermal correction to Enthalpy=                  0.069066
 Thermal correction to Gibbs Free Energy=         0.034702
 Sum of electronic and zero-point Energies=            -96.324250
 Sum of electronic and thermal Energies=               -96.319473
 Sum of electronic and thermal Enthalpies=             -96.318529
 Sum of electronic and thermal Free Energies=          -96.352892

                     E (Thermal)             CV                S
                      KCal/Mol        Cal/Mol-Kelvin    Cal/Mol-Kelvin
 Total                   42.747             13.874             72.324
 Electronic               0.000              0.000              1.377
 Translational            0.889              2.981             36.326
 Rotational               0.889              2.981             21.361
 Vibrational             40.969              7.913             13.259
 Vibration     1          0.592              1.987             10.259
 Vibration     2          0.751              1.509              1.033
 Vibration     3          0.769              1.462              0.949
 Vibration     4          0.908              1.134              0.538

                           ! Non-Optimized Parameters !
 Normal termination of Gaussian 16 at Wed Oct  7 13:12:38 2020.
