 Gaussian 16, Revision A.03,

 ----------------------------------------------------------------------
 #P Opt(TS,MaxCyc=50,NoEigenTest,MaxStep=10,AddRedundant) TPSSTPSS/6-31
 G* 5D 7F Integral=UltraFineGrid SCF=(NoSymm,XQC,MaxCyc=120) EmpiricalD
 ispersion=GD3BJ IOp(1/33=1)
 ----------------------------------------------------------------------

 TstMul:  Mul=     1
 TstMul:  ICh=     0
 TstMul:  Mul=     1
 Symbolic Z-matrix:
 Charge =  0 Multiplicity = 1

 SCF Done:  E(RTPSS-TPSS) =  -195.296144599     A.U. after   14 cycles
 SCF Done:  E(RTPSS-TPSS) =  -195.296902538     A.U. after   12 cycles
 SCF Done:  E(RTPSS-TPSS) =  -195.296880814     A.U. after    9 cycles
 SCF Done:  E(RTPSS-TPSS) =  -195.296799980     A.U. after   11 cycles
 SCF Done:  E(RTPSS-TPSS) =  -195.296745513     A.U. after    9 cycles
 SCF Done:  E(RTPSS-TPSS) =  -195.296654397     A.U. after   11 cycles
 SCF Done:  E(RTPSS-TPSS) =  -195.296539269     A.U. after   11 cycles
 SCF Done:  E(RTPSS-TPSS) =  -195.296727626     A.U. after   12 cycles
 SCF Done:  E(RTPSS-TPSS) =  -195.296938852     A.U. after   11 cycles
 SCF Done:  E(RTPSS-TPSS) =  -195.297059699     A.U. after   11 cycles
 SCF Done:  E(RTPSS-TPSS) =  -195.297061106     A.U. after   11 cycles
 SCF Done:  E(RTPSS-TPSS) =  -195.297065302     A.U. after    9 cycles
 SCF Done:  E(RTPSS-TPSS) =  -195.297067594     A.U. after    9 cycles
 SCF Done:  E(RTPSS-TPSS) =  -195.297068251     A.U. after    8 cycles
 Optimization completed.
    -- Stationary point found.
 Normal termination of Gaussian 16 at Wed Oct  7 13:14:19 2020.
 Gaussian 16:  ES64L-G16RevA.03 25-Dec-2016

 ----------------------------------------------------------------------
 #P Freq TPSSTPSS/6-31G* 5D 7F Integral=UltraFineGrid SCF=(NoSymm,XQC,M
 axCyc=120) EmpiricalDispersion=GD3BJ IOp(1/33=1) Geom=Check Guess=Read
 ----------------------------------------------------------------------

 TstMul:  Mul=     1
 TstMul:  ICh=     0
 TstMul:  Mul=     1
 Structure from the checkpoint file:  "MN_96_RKT22_BH76_TPSSDBJ_631Gs.chk"
 Charge =  0 Multiplicity = 1

                         Standard orientation:
 ---------------------------------------------------------------------
 Center     Atomic      Atomic             Coordinates (Angstroms)
 Number     Number       Type             X           Y           Z
 ---------------------------------------------------------------------
      1          6           0       -1.314627   -0.910314   -0.021868
      2          6           0       -1.216701    0.510258   -0.011349
      3          6           0        0.000175    1.188762    0.151048
      4          6           0        1.216972    0.509987   -0.011461
      5          6           0        1.314430   -0.910512   -0.021618
      6          1           0        2.186690   -1.337346   -0.526178
      7          1           0        1.066388   -1.460708    0.889291
      8          1           0        2.051772    1.096431   -0.402227
      9          1           0        0.000278    2.276971    0.088724
     10          1           0       -2.051538    1.096933   -0.401690
     11          1           0       -2.187555   -1.336320   -0.526005
     12          1           0       -0.000397   -1.204299   -0.519499
     13          1           0       -1.067139   -1.460745    0.889067
 ---------------------------------------------------------------------

 SCF Done:  E(RTPSS-TPSS) =  -195.297068251     A.U. after    1 cycles

 The electronic state is 1-A.
 Alpha  occ. eigenvalues --   -9.99836  -9.99836  -9.99279  -9.99279  -9.99204
 Alpha  occ. eigenvalues --   -0.75681  -0.67723  -0.63257  -0.53715  -0.48026
 Alpha  occ. eigenvalues --   -0.44643  -0.37893  -0.36688  -0.36531  -0.34397
 Alpha  occ. eigenvalues --   -0.31934  -0.30944  -0.22621  -0.18957
 Alpha virt. eigenvalues --   -0.04345   0.00778   0.08208   0.11267   0.12959
 Alpha virt. eigenvalues --    0.15720   0.16892   0.17019   0.19974   0.21852
 Alpha virt. eigenvalues --    0.25866   0.27392   0.33220   0.39557   0.49591

 Mulliken charges:
               1
     1  C   -0.492174
     2  C   -0.086383
     3  C   -0.143535
     4  C   -0.086358
     5  C   -0.492116
     6  H    0.153453
     7  H    0.189071
     8  H    0.151473
     9  H    0.138737
    10  H    0.151471
    11  H    0.153430
    12  H    0.173889
    13  H    0.189042
 Sum of Mulliken charges =  -0.00000

 Dipole moment (field-independent basis, Debye):
    X=             -0.0002    Y=              0.0064    Z=             -0.1363  Tot=              0.1364
 Quadrupole moment (field-independent basis, Debye-Ang):
   XX=            -30.0223   YY=            -29.8017   ZZ=            -33.5119
   XY=             -0.0003   XZ=             -0.0015   YZ=             -1.3680

  Exact polarizability:  74.801  -0.000  63.640  -0.002  -0.591  29.901
 Approx polarizability: 151.638  -0.004 127.043  -0.000   5.049  47.440

 ******    1 imaginary frequencies (negative Signs) ******

                      1                      2                      3
                      A                      A                      A
 Frequencies --  -1512.6444               265.3963               451.8242
 Red. masses --      1.1817                 2.1148                 2.4457
 Frc consts  --      1.5930                 0.0878                 0.2942
 IR Inten    --     17.6571                 0.1457                 0.6294

                      4                      5                      6
                      A                      A                      A
 Frequencies --    497.1775               549.4519               601.3432
 Red. masses --      2.3252                 3.6314                 1.3316
 Frc consts  --      0.3386                 0.6459                 0.2837
 IR Inten    --      3.6084                 3.7598                27.9649

                      7                      8                      9
                      A                      A                      A
 Frequencies --    729.2981               783.5291               800.8474
 Red. masses --      2.0042                 1.2446                 1.2591
 Frc consts  --      0.6281                 0.4502                 0.4758
 IR Inten    --      8.9167                 4.4134                43.9936

                     10                     11                     12
                      A                      A                      A
 Frequencies --    964.0629               968.1037               991.4702
 Red. masses --      1.3753                 1.3161                 1.5053
 Frc consts  --      0.7531                 0.7268                 0.8718
 IR Inten    --      5.8014                 1.5205                19.4741

                     13                     14                     15
                      A                      A                      A
 Frequencies --   1001.0665              1006.3413              1096.8763
 Red. masses --      2.1354                 1.3476                 1.3366
 Frc consts  --      1.2608                 0.8041                 0.9475
 IR Inten    --      2.8780                 0.3227                 2.9154

                     16                     17                     18
                      A                      A                      A
 Frequencies --   1128.4781              1182.9250              1253.2906
 Red. masses --      1.5919                 1.1968                 1.5265
 Frc consts  --      1.1944                 0.9867                 1.4127
 IR Inten    --      1.6369                 6.6148                 6.6520

                     19                     20                     21
                      A                      A                      A
 Frequencies --   1270.1929              1403.0160              1437.2644
 Red. masses --      1.2414                 1.0908                 1.4226
 Frc consts  --      1.1801                 1.2651                 1.7314
 IR Inten    --     10.1705                 7.3292                 2.7715

                     22                     23                     24
                      A                      A                      A
 Frequencies --   1463.9647              1524.9326              1538.1390
 Red. masses --      1.0775                 1.8016                 1.7830
 Frc consts  --      1.3606                 2.4684                 2.4853
 IR Inten    --      3.4990                 0.4537                 0.9059

                     25                     26                     27
                      A                      A                      A
 Frequencies --   1541.0558              1593.3789              3076.4617
 Red. masses --      2.4807                 1.4344                 1.0560
 Frc consts  --      3.4710                 2.1457                 5.8888
 IR Inten    --      5.7547                 3.9399                35.5797

                     28                     29                     30
                      A                      A                      A
 Frequencies --   3077.7968              3115.5569              3119.6917
 Red. masses --      1.0561                 1.0873                 1.0925
 Frc consts  --      5.8945                 6.2182                 6.2645
 IR Inten    --     16.5543                 0.5994                10.2365

                     31                     32                     33
                      A                      A                      A
 Frequencies --   3137.9196              3142.0194              3157.3670
 Red. masses --      1.1099                 1.1070                 1.0943
 Frc consts  --      6.4389                 6.4392                 6.4272
 IR Inten    --     39.1167                21.9397                34.6991

 - Thermochemistry -
 -------------------
 Temperature   298.150 Kelvin.  Pressure   1.00000 Atm.
 Atom     1 has atomic number  6 and mass  12.00000

 Molecular mass:    68.06260 amu.
 Principal axes and moments of inertia in atomic units:
                           1         2         3
     Eigenvalues --   225.23791 358.69179 562.39183
           X            1.00000   0.00001  -0.00001
           Y           -0.00001   0.99977  -0.02136
           Z            0.00001   0.02136   0.99977
 This molecule is an asymmetric top.
 Rotational symmetry number  1.
 Rotational temperatures (Kelvin)      0.38454     0.24147     0.15401
 Rotational constants (GHZ):           8.01260     5.03145     3.20905
    1 imaginary frequencies ignored.
 Zero-point vibrational energy     286327.6 (Joules/Mol)
                                   68.43394 (Kcal/Mol)
 Warning -- explicit consideration of   5 degrees of freedom as
           vibrations may cause significant error
 Vibrational temperatures:    381.85   650.07   715.33   790.54   865.20
          (Kelvin)           1049.30  1127.32  1152.24  1387.07  1392.89
                             1426.50  1440.31  1447.90  1578.16  1623.63
                             1701.97  1803.21  1827.52  2018.63  2067.90
                             2106.32  2194.04  2213.04  2217.24  2292.52
                             4426.34  4428.26  4482.59  4488.54  4514.77
                             4520.67  4542.75

 Zero-point correction=                           0.109056 (Hartree/Particle)
 Thermal correction to Energy=                    0.113777
 Thermal correction to Enthalpy=                  0.114721
 Thermal correction to Gibbs Free Energy=         0.081710
 Sum of electronic and zero-point Energies=           -195.188012
 Sum of electronic and thermal Energies=              -195.183292
 Sum of electronic and thermal Enthalpies=            -195.182347
 Sum of electronic and thermal Free Energies=         -195.215358

                     E (Thermal)             CV                S
                      KCal/Mol        Cal/Mol-Kelvin    Cal/Mol-Kelvin
 Total                   71.396             18.175             69.476
 Electronic               0.000              0.000              0.000
 Translational            0.889              2.981             38.571
 Rotational               0.889              2.981             25.322
 Vibrational             69.618             12.214              5.583
 Vibration     1          0.671              1.736              1.626
 Vibration     2          0.810              1.357              0.790
 Vibration     3          0.853              1.256              0.665
 Vibration     4          0.905              1.141              0.545
 Vibration     5          0.960              1.029              0.447

 Optimization completed.
    -- Stationary point found.

 1\1\GINC-NODE59\Freq\RTPSSTPSS\6-31G(d)\C5H8\RPEVERATI\07-Oct-2020\0\\
 #P Freq TPSSTPSS/6-31G* 5D 7F Integral=UltraFineGrid SCF=(NoSymm,XQC,M
 axCyc=120) EmpiricalDispersion=GD3BJ IOp(1/33=1) Geom=Check Guess=Read
 \\TS search on BH76.\\0,1\C,-1.3143430711,-0.9095417833,-0.0233815004\
 C,-1.2167750005,0.5110441392,-0.011438083\C,-0.0000958066,1.1896914219
 ,0.1518330656\C,1.2168978173,0.5113824143,-0.0111484114\C,1.3147136466
 ,-0.9090811202,-0.0226977105\H,2.1871640442,-1.3351961637,-0.527536559
 8\H,1.0666589174,-1.4602422792,0.887624349\H,2.0516148101,1.098422498,

 Normal termination of Gaussian 16 at Wed Oct  7 13:15:46 2020.
