 Gaussian 16, Revision A.03,

 ----------------------------------------------------------------------
 #P Opt(TS,MaxCyc=50,NoEigenTest,MaxStep=10,AddRedundant) TPSSTPSS/6-31
 G* 5D 7F Integral=UltraFineGrid SCF=(NoSymm,XQC,MaxCyc=120) EmpiricalD
 ispersion=GD3BJ IOp(1/33=1)
 ----------------------------------------------------------------------

 TstMul:  Mul=     2
 TstMul:  ICh=     0
 TstMul:  Mul=     2
 Symbolic Z-matrix:
 Charge =  0 Multiplicity = 2

 SCF Done:  E(UTPSS-TPSS) =  -399.893102715     A.U. after   14 cycles
 SCF Done:  E(UTPSS-TPSS) =  -399.893368314     A.U. after   12 cycles
 SCF Done:  E(UTPSS-TPSS) =  -399.893863730     A.U. after   12 cycles
 SCF Done:  E(UTPSS-TPSS) =  -399.894463756     A.U. after   12 cycles
 SCF Done:  E(UTPSS-TPSS) =  -399.893716297     A.U. after   12 cycles
 SCF Done:  E(UTPSS-TPSS) =  -399.892966467     A.U. after   12 cycles
 SCF Done:  E(UTPSS-TPSS) =  -399.892347346     A.U. after   13 cycles
 SCF Done:  E(UTPSS-TPSS) =  -399.891836429     A.U. after   12 cycles
 SCF Done:  E(UTPSS-TPSS) =  -399.891402946     A.U. after   12 cycles
 SCF Done:  E(UTPSS-TPSS) =  -399.891021177     A.U. after   12 cycles
 SCF Done:  E(UTPSS-TPSS) =  -399.886762377     A.U. after   11 cycles
 SCF Done:  E(UTPSS-TPSS) =  -399.886686316     A.U. after   11 cycles
 SCF Done:  E(UTPSS-TPSS) =  -399.886657389     A.U. after   11 cycles
 SCF Done:  E(UTPSS-TPSS) =  -399.886704451     A.U. after   12 cycles
 SCF Done:  E(UTPSS-TPSS) =  -399.886760722     A.U. after   12 cycles
 SCF Done:  E(UTPSS-TPSS) =  -399.886757460     A.U. after   12 cycles
 SCF Done:  E(UTPSS-TPSS) =  -399.886739156     A.U. after   12 cycles
 SCF Done:  E(UTPSS-TPSS) =  -399.886738354     A.U. after    9 cycles
 SCF Done:  E(UTPSS-TPSS) =  -399.886738498     A.U. after    8 cycles
 Optimization completed.
    -- Stationary point found.
 Normal termination of Gaussian 16 at Wed Oct  7 13:17:03 2020.
 Gaussian 16:  ES64L-G16RevA.03 25-Dec-2016

 ----------------------------------------------------------------------
 #P Freq TPSSTPSS/6-31G* 5D 7F Integral=UltraFineGrid SCF=(NoSymm,XQC,M
 axCyc=120) EmpiricalDispersion=GD3BJ IOp(1/33=1) Geom=Check Guess=Read
 ----------------------------------------------------------------------

 TstMul:  Mul=     2
 TstMul:  ICh=     0
 TstMul:  Mul=     2
 Structure from the checkpoint file:  "MN_90_RKT16_BH76_TPSSDBJ_631Gs.chk"
 Charge =  0 Multiplicity = 2

                         Standard orientation:
 ---------------------------------------------------------------------
 Center     Atomic      Atomic             Coordinates (Angstroms)
 Number     Number       Type             X           Y           Z
 ---------------------------------------------------------------------
      1          1           0        0.977115   -0.676956    0.000000
      2         16           0        0.000000    0.256721    0.000000
      3          1           0       -0.976602   -0.677607    0.000000
      4          1           0       -0.000514   -2.752967    0.000000
 ---------------------------------------------------------------------

 SCF Done:  E(UTPSS-TPSS) =  -399.886738498     A.U. after    1 cycles

 The electronic state is 2-A'.
 Alpha  occ. eigenvalues --  -88.36163  -7.74826  -5.72985  -5.72666  -5.71731
 Alpha  occ. eigenvalues --   -0.69927  -0.42121  -0.34970  -0.28337  -0.23261
 Alpha virt. eigenvalues --   -0.00907   0.04110   0.30202   0.32397   0.33974
 Alpha virt. eigenvalues --    0.35033   0.64998   0.66359   0.71539   0.72153
 Alpha virt. eigenvalues --    0.72496   0.77706   1.01883   1.17529
  Beta  occ. eigenvalues --  -88.36133  -7.74799  -5.72969  -5.72580  -5.71716
  Beta  occ. eigenvalues --   -0.69741  -0.42053  -0.34085  -0.23214
  Beta virt. eigenvalues --   -0.20621  -0.00845   0.04246   0.30253   0.32471
  Beta virt. eigenvalues --    0.34275   0.35054   0.65171   0.67464   0.71592
  Beta virt. eigenvalues --    0.72465   0.73144   0.79926   1.02053   1.17692

 Mulliken charges and spin densities:
               1          2
     1  H    0.124304  -0.002989
     2  S   -0.225889   0.044523
     3  H    0.124280  -0.003004
     4  H   -0.022695   0.961470
 Sum of Mulliken charges =   0.00000   1.00000

 Dipole moment (field-independent basis, Debye):
    X=              0.0006    Y=             -1.1029    Z=              0.0000  Tot=              1.1029
 Quadrupole moment (field-independent basis, Debye-Ang):
   XX=            -13.4172   YY=            -15.9936   ZZ=            -17.8230
   XY=              0.0003   XZ=              0.0000   YZ=              0.0000

  Exact polarizability:  17.656   0.002  25.081   0.000  -0.000  11.226
 Approx polarizability:  29.009   0.004  42.741   0.000   0.000  15.041

 ******    2 imaginary frequencies (negative Signs) ******

                      1                      2                      3
                     A"                     A'                     A'
 Frequencies --   -427.1291              -198.6545               287.1372
 Red. masses --      1.0323                 1.0100                 1.0353
 Frc consts  --      0.1110                 0.0235                 0.0503
 IR Inten    --     72.2501                23.6149                10.7554

                      4                      5                      6
                     A'                     A'                     A'
 Frequencies --   1229.8620              2659.1791              2676.8337
 Red. masses --      1.0399                 1.0351                 1.0401
 Frc consts  --      0.9267                 4.3123                 4.3912
 IR Inten    --      0.0714                17.8535                12.5227

 - Thermochemistry -
 -------------------
 Temperature   298.150 Kelvin.  Pressure   1.00000 Atm.
 Atom     1 has atomic number  1 and mass   1.00783

 Molecular mass:    34.99555 amu.
 Principal axes and moments of inertia in atomic units:
                           1         2         3
     Eigenvalues --     6.86872  36.41394  43.28266
           X            0.00021   1.00000   0.00000
           Y            1.00000  -0.00021   0.00000
           Z            0.00000   0.00000   1.00000
 This molecule is an asymmetric top.
 Rotational symmetry number  1.
 Rotational temperatures (Kelvin)     12.60990     2.37859     2.00112
 Rotational constants (GHZ):         262.74767    49.56183    41.69663
    2 imaginary frequencies ignored.
 Zero-point vibrational energy      40990.1 (Joules/Mol)
                                    9.79687 (Kcal/Mol)
 Warning -- explicit consideration of   1 degrees of freedom as
           vibrations may cause significant error
 Vibrational temperatures:    413.13  1769.50  3825.97  3851.37
          (Kelvin)

 Zero-point correction=                           0.015612 (Hartree/Particle)
 Thermal correction to Energy=                    0.018896
 Thermal correction to Enthalpy=                  0.019840
 Thermal correction to Gibbs Free Energy=        -0.007017
 Sum of electronic and zero-point Energies=           -399.871126
 Sum of electronic and thermal Energies=              -399.867842
 Sum of electronic and thermal Enthalpies=            -399.866898
 Sum of electronic and thermal Free Energies=         -399.893756

                     E (Thermal)             CV                S
                      KCal/Mol        Cal/Mol-Kelvin    Cal/Mol-Kelvin
 Total                   11.858              7.847             56.526
 Electronic               0.000              0.000              1.377
 Translational            0.889              2.981             36.588
 Rotational               0.889              2.981             17.033
 Vibrational             10.080              1.885              1.527
 Vibration     1          0.684              1.698              1.491

                           ! Non-Optimized Parameters !
 Normal termination of Gaussian 16 at Wed Oct  7 13:17:33 2020.
