 Gaussian 16, Revision A.03,

 ----------------------------------------------------------------------
 #P Opt(TS,MaxCyc=50,NoEigenTest,MaxStep=10,AddRedundant) TPSSTPSS/6-31
 G* 5D 7F Integral=UltraFineGrid SCF=(NoSymm,XQC,MaxCyc=120) EmpiricalD
 ispersion=GD3BJ IOp(1/33=1)
 ----------------------------------------------------------------------

 TstMul:  Mul=     2
 TstMul:  ICh=     0
 TstMul:  Mul=     2
 Symbolic Z-matrix:
 Charge =  0 Multiplicity = 2

 SCF Done:  E(UTPSS-TPSS) =  -135.712004791     A.U. after   15 cycles
 SCF Done:  E(UTPSS-TPSS) =  -135.712023945     A.U. after   10 cycles
 SCF Done:  E(UTPSS-TPSS) =  -135.712039794     A.U. after   11 cycles
 SCF Done:  E(UTPSS-TPSS) =  -135.712349052     A.U. after   13 cycles
 SCF Done:  E(UTPSS-TPSS) =  -135.712703883     A.U. after   13 cycles
 SCF Done:  E(UTPSS-TPSS) =  -135.712821817     A.U. after   11 cycles
 SCF Done:  E(UTPSS-TPSS) =  -135.712828197     A.U. after   10 cycles
 SCF Done:  E(UTPSS-TPSS) =  -135.712828447     A.U. after    8 cycles
 Optimization completed.
    -- Stationary point found.
 Normal termination of Gaussian 16 at Sun Oct 11 11:46:41 2020.
 Gaussian 16:  ES64L-G16RevA.03 25-Dec-2016

 ----------------------------------------------------------------------
 #P Freq TPSSTPSS/6-31G* 5D 7F Integral=UltraFineGrid SCF=(NoSymm,XQC,M
 axCyc=120) EmpiricalDispersion=GD3BJ IOp(1/33=1) Geom=Check Guess=Read
 ----------------------------------------------------------------------

 TstMul:  Mul=     2
 TstMul:  ICh=     0
 TstMul:  Mul=     2
 Structure from the checkpoint file:  "MN_94_RKT20_BH76_TPSSDBJ_631Gs.chk"
 Charge =  0 Multiplicity = 2

                         Standard orientation:
 ---------------------------------------------------------------------
 Center     Atomic      Atomic             Coordinates (Angstroms)
 Number     Number       Type             X           Y           Z
 ---------------------------------------------------------------------
      1          6           0       -1.524555   -0.432622    0.000031
      2          6           0       -0.502426    0.687713   -0.000069
      3          7           0        1.900398   -0.344613    0.000111
      4          1           0       -1.417059   -1.069582   -0.887919
      5          1           0       -1.417184   -1.069280    0.888218
      6          1           0       -2.552544   -0.031996   -0.000121
      7          1           0       -0.496359    1.306302   -0.904834
      8          1           0       -0.496282    1.306259    0.904734
      9          1           0        0.685763    0.073937    0.000128
     10          1           0        2.276179    0.182447   -0.808667
     11          1           0        2.276585    0.183658    0.807915
 ---------------------------------------------------------------------

 SCF Done:  E(UTPSS-TPSS) =  -135.712828447     A.U. after    1 cycles

 The electronic state is 2-A.
 Alpha  occ. eigenvalues --  -14.10617  -9.99771  -9.98775  -0.77956  -0.69657
 Alpha  occ. eigenvalues --   -0.56486  -0.40897  -0.40765  -0.39638  -0.34634
 Alpha  occ. eigenvalues --   -0.33302  -0.31337  -0.24316  -0.17344
 Alpha virt. eigenvalues --    0.07033   0.10759   0.13060   0.13550   0.14942
 Alpha virt. eigenvalues --    0.15802   0.18077   0.21650   0.27545   0.48111
 Alpha virt. eigenvalues --    0.51093   0.53830   0.57718   0.59176   0.63493

  Beta  occ. eigenvalues --  -14.09400  -9.98849  -9.98800  -0.75407  -0.68695
  Beta  occ. eigenvalues --   -0.55386  -0.40279  -0.39224  -0.39153  -0.33478
  Beta  occ. eigenvalues --   -0.32863  -0.31142  -0.22344
  Beta virt. eigenvalues --   -0.10197   0.07794   0.11188   0.13561   0.14341
  Beta virt. eigenvalues --    0.15292   0.16133   0.18644   0.22495   0.29041
  Beta virt. eigenvalues --    0.48785   0.51446   0.54479   0.59493   0.60872

 Mulliken charges and spin densities:
               1          2
     1  C   -0.446329  -0.024632
     2  C   -0.465707   0.542307
     3  N   -0.761718   0.575687
     4  H    0.165554   0.004296
     5  H    0.165561   0.004287
     6  H    0.159256   0.034612
     7  H    0.162027  -0.014962
     8  H    0.162033  -0.014957
     9  H    0.280003  -0.077896
    10  H    0.289660  -0.014371
    11  H    0.289658  -0.014371
 Sum of Mulliken charges =   0.00000   1.00000

 Dipole moment (field-independent basis, Debye):
    X=             -0.2833    Y=              1.7265    Z=             -0.0013  Tot=              1.7496
 Quadrupole moment (field-independent basis, Debye-Ang):
   XX=            -20.5626   YY=            -23.2414   ZZ=            -20.0668
   XY=              3.6758   XZ=             -0.0026   YZ=              0.0017

  Exact polarizability:  58.017  -4.308  31.424   0.001   0.002  31.598
 Approx polarizability:  85.071 -12.896  46.448   0.004   0.002  45.750

 ******    2 imaginary frequencies (negative Signs) ******

                      1                      2                      3
                      A                      A                      A
 Frequencies --  -1587.7639               -11.5677               147.2800
 Red. masses --      1.0790                 1.0832                 2.7106
 Frc consts  --      1.6027                 0.0001                 0.0346
 IR Inten    --    344.5906                49.2623                 5.0932

                      4                      5                      6
                      A                      A                      A
 Frequencies --    167.7347               432.2617               459.6251
 Red. masses --      1.0836                 1.0195                 2.4762
 Frc consts  --      0.0180                 0.1122                 0.3082
 IR Inten    --      0.2680                 1.6436                 1.3234

                      7                      8                      9
                      A                      A                      A
 Frequencies --    761.2632               765.5690               884.6050
 Red. masses --      1.1116                 1.3397                 1.0542
 Frc consts  --      0.3795                 0.4626                 0.4861
 IR Inten    --      5.9635                53.8066                 0.1605

                     10                     11                     12
                      A                      A                      A
 Frequencies --    934.1572              1042.2690              1191.5712
 Red. masses --      1.2293                 3.0955                 1.4001
 Frc consts  --      0.6320                 1.9812                 1.1713
 IR Inten    --     79.2302                 6.0402                16.7125

                     13                     14                     15
                      A                      A                      A
 Frequencies --   1236.5162              1366.2298              1421.9305
 Red. masses --      1.3893                 1.0876                 1.1936
 Frc consts  --      1.2515                 1.1961                 1.4219
 IR Inten    --      0.3920               109.1680                 0.2386

                     16                     17                     18
                      A                      A                      A
 Frequencies --   1489.0405              1514.9413              1520.5024
 Red. masses --      1.1292                 1.0358                 1.0509
 Frc consts  --      1.4752                 1.4006                 1.4315
 IR Inten    --      1.2037                 2.4893                 3.2099

                     19                     20                     21
                      A                      A                      A
 Frequencies --   1542.1486              1630.4485              2989.6797
 Red. masses --      1.0433                 1.0685                 1.0472
 Frc consts  --      1.4618                 1.6736                 5.5148
 IR Inten    --      9.4766                14.0623                32.1750

                     22                     23                     24
                      A                      A                      A
 Frequencies --   3054.7171              3063.9397              3089.4661
 Red. masses --      1.0654                 1.0727                 1.1022
 Frc consts  --      5.8574                 5.9333                 6.1985
 IR Inten    --      2.0771                50.5866                12.9292

                     25                     26                     27
                      A                      A                      A
 Frequencies --   3131.6165              3281.9214              3382.2773
 Red. masses --      1.1096                 1.0493                 1.0881
 Frc consts  --      6.4117                 6.6592                 7.3337
 IR Inten    --     48.1665                10.9167                10.6570

 - Thermochemistry -
 -------------------
 Temperature   298.150 Kelvin.  Pressure   1.00000 Atm.
 Atom     1 has atomic number  6 and mass  12.00000

 Molecular mass:    46.06567 amu.
 Principal axes and moments of inertia in atomic units:
                           1         2         3
     Eigenvalues --    70.93169 386.14346 424.53097
           X            0.99955   0.03014  -0.00001
           Y           -0.03014   0.99955   0.00005
           Z            0.00001  -0.00005   1.00000
 This molecule is an asymmetric top.
 Rotational symmetry number  1.
 Rotational temperatures (Kelvin)      1.22109     0.22431     0.20402
 Rotational constants (GHZ):          25.44337     4.67376     4.25114
    2 imaginary frequencies ignored.
 Zero-point vibrational energy     242254.0 (Joules/Mol)
                                   57.90010 (Kcal/Mol)
 Warning -- explicit consideration of   4 degrees of freedom as
           vibrations may cause significant error
 Vibrational temperatures:    211.90   241.33   621.93   661.30  1095.29
          (Kelvin)           1101.48  1272.75  1344.04  1499.59  1714.41
                             1779.07  1965.70  2045.84  2142.40  2179.66
                             2187.66  2218.81  2345.85  4301.48  4395.06
                             4408.33  4445.05  4505.70  4721.95  4866.34

 Zero-point correction=                           0.092270 (Hartree/Particle)
 Thermal correction to Energy=                    0.097282
 Thermal correction to Enthalpy=                  0.098226
 Thermal correction to Gibbs Free Energy=         0.064714
 Sum of electronic and zero-point Energies=           -135.620559
 Sum of electronic and thermal Energies=              -135.615546
 Sum of electronic and thermal Enthalpies=            -135.614602
 Sum of electronic and thermal Free Energies=         -135.648115

                     E (Thermal)             CV                S
                      KCal/Mol        Cal/Mol-Kelvin    Cal/Mol-Kelvin
 Total                   61.045             16.165             70.533
 Electronic               0.000              0.000              1.377
 Translational            0.889              2.981             37.408
 Rotational               0.889              2.981             23.968
 Vibrational             59.268             10.204              7.780
 Vibration     1          0.617              1.906              2.707
 Vibration     2          0.624              1.882              2.461
 Vibration     3          0.793              1.400              0.851
 Vibration     4          0.818              1.340              0.767

                           ! Non-Optimized Parameters !
 Normal termination of Gaussian 16 at Sun Oct 11 11:47:46 2020.
