 Gaussian 16, Revision A.03,

 ----------------------------------------------------------------------
 #P Opt(TS,MaxCyc=50,NoEigenTest,MaxStep=10,AddRedundant) TPSSTPSS/6-31
 G* 5D 7F Integral=UltraFineGrid SCF=(NoSymm,XQC,MaxCyc=120) EmpiricalD
 ispersion=GD3BJ IOp(1/33=1)
 ----------------------------------------------------------------------

 TstMul:  Mul=     3
 TstMul:  ICh=     0
 TstMul:  Mul=     3
 Symbolic Z-matrix:
 Charge =  0 Multiplicity = 3

 SCF Done:  E(UTPSS-TPSS) =  -535.870727648     A.U. after   19 cycles
 SCF Done:  E(UTPSS-TPSS) =  -535.870467870     A.U. after   12 cycles
 SCF Done:  E(UTPSS-TPSS) =  -535.871916099     A.U. after   14 cycles
 SCF Done:  E(UTPSS-TPSS) =  -535.870688854     A.U. after   15 cycles
 SCF Done:  E(UTPSS-TPSS) =  -535.869619446     A.U. after   15 cycles
 SCF Done:  E(UTPSS-TPSS) =  -535.868917162     A.U. after   16 cycles
 SCF Done:  E(UTPSS-TPSS) =  -535.868601864     A.U. after   17 cycles
 SCF Done:  E(UTPSS-TPSS) =  -535.868589475     A.U. after   15 cycles
 SCF Done:  E(UTPSS-TPSS) =  -535.868669457     A.U. after   17 cycles
 SCF Done:  E(UTPSS-TPSS) =  -535.868710324     A.U. after   16 cycles
 SCF Done:  E(UTPSS-TPSS) =  -535.868742559     A.U. after   17 cycles
 SCF Done:  E(UTPSS-TPSS) =  -535.868757038     A.U. after   14 cycles
 SCF Done:  E(UTPSS-TPSS) =  -535.868757132     A.U. after   10 cycles
 Optimization completed.
    -- Stationary point found.
 Normal termination of Gaussian 16 at Wed Oct  7 13:12:19 2020.
 Gaussian 16:  ES64L-G16RevA.03 25-Dec-2016

 ----------------------------------------------------------------------
 #P Freq TPSSTPSS/6-31G* 5D 7F Integral=UltraFineGrid SCF=(NoSymm,XQC,M
 axCyc=120) EmpiricalDispersion=GD3BJ IOp(1/33=1) Geom=Check Guess=Read
 ----------------------------------------------------------------------

 TstMul:  Mul=     3
 TstMul:  ICh=     0
 TstMul:  Mul=     3
 Structure from the checkpoint file:  "MN_91_RKT17_BH76_TPSSDBJ_631Gs.chk"
 Charge =  0 Multiplicity = 3

                         Standard orientation:
 ---------------------------------------------------------------------
 Center     Atomic      Atomic             Coordinates (Angstroms)
 Number     Number       Type             X           Y           Z
 ---------------------------------------------------------------------
      1         17           0        0.020150   -0.846860    0.000000
      2          1           0       -0.503752    0.446291    0.000000
      3          8           0        0.020150    1.743791    0.000000
 ---------------------------------------------------------------------

 SCF Done:  E(UTPSS-TPSS) =  -535.868757132     A.U. after    1 cycles

 The electronic state is 3-A".
 Alpha  occ. eigenvalues -- -101.00045 -19.06439  -9.25525  -7.03584  -7.02635
 Alpha  occ. eigenvalues --   -7.02518  -0.97326  -0.78526  -0.48207  -0.41577
 Alpha  occ. eigenvalues --   -0.37881  -0.32875  -0.30313  -0.30147
 Alpha virt. eigenvalues --    0.03859   0.36259   0.41363   0.41386   0.42292
 Alpha virt. eigenvalues --    0.59939   0.73022   0.76449   0.79946   0.80523
 Alpha virt. eigenvalues --    0.80854   0.81830   0.89013   1.01849   1.18164

  Beta  occ. eigenvalues -- -100.99840 -19.01798  -9.25354  -7.03200  -7.02425
  Beta  occ. eigenvalues --   -7.02347  -0.86034  -0.76638  -0.44921  -0.30571
  Beta  occ. eigenvalues --   -0.30007  -0.29794
  Beta virt. eigenvalues --   -0.23599  -0.23513   0.05134   0.36936   0.41762
  Beta virt. eigenvalues --    0.42082   0.43906   0.62785   0.78331   0.78554
  Beta virt. eigenvalues --    0.81599   0.81622   0.85422   0.87954   0.96124

 Mulliken charges and spin densities:
               1          2
     1  Cl  -0.213437   0.277906
     2  H    0.298779  -0.031265
     3  O   -0.085342   1.753359
 Sum of Mulliken charges =  -0.00000   2.00000

 Dipole moment (field-independent basis, Debye):
    X=             -0.6957    Y=              0.9756    Z=              0.0000  Tot=              1.1982
 Quadrupole moment (field-independent basis, Debye-Ang):
   XX=            -18.7216   YY=            -18.3273   ZZ=            -18.4223
   XY=             -0.7798   XZ=              0.0000   YZ=              0.0000

  Exact polarizability:   9.509  -0.833  47.708   0.000   0.000   8.408
 Approx polarizability:  12.998  -1.629 147.923   0.000   0.000  11.254

 ******    1 imaginary frequencies (negative Signs) ******

                      1                      2                      3
                     A'                     A'                     A'
 Frequencies --   -700.2052               271.0200              1544.8389
 Red. masses --      1.2264                 3.8383                 1.0900
 Frc consts  --      0.3543                 0.1661                 1.5326
 IR Inten    --      1.9205                29.1263                35.7155

 - Thermochemistry -
 -------------------
 Temperature   298.150 Kelvin.  Pressure   1.00000 Atm.
 Atom     1 has atomic number 17 and mass  34.96885

 Molecular mass:    51.97159 amu.
 Principal axes and moments of inertia in atomic units:
                           1         2         3
     Eigenvalues --     0.96568 263.85381 264.81949
           X           -0.00338   0.99999   0.00000
           Y            0.99999   0.00338   0.00000
           Z            0.00000   0.00000   1.00000
 This molecule is an asymmetric top.
 Rotational symmetry number  1.
 Rotational temperatures (Kelvin)     89.69218     0.32826     0.32707
 Rotational constants (GHZ):        1868.88163     6.83993     6.81499
    1 imaginary frequencies ignored.
 Zero-point vibrational energy      10861.2 (Joules/Mol)
                                    2.59590 (Kcal/Mol)
 Warning -- explicit consideration of   1 degrees of freedom as
           vibrations may cause significant error
 Vibrational temperatures:    389.94  2222.68
          (Kelvin)

 Zero-point correction=                           0.004137 (Hartree/Particle)
 Thermal correction to Energy=                    0.007431
 Thermal correction to Enthalpy=                  0.008375
 Thermal correction to Gibbs Free Energy=        -0.020323
 Sum of electronic and zero-point Energies=           -535.864620
 Sum of electronic and thermal Energies=              -535.861326
 Sum of electronic and thermal Enthalpies=            -535.860382
 Sum of electronic and thermal Free Energies=         -535.889080

                     E (Thermal)             CV                S
                      KCal/Mol        Cal/Mol-Kelvin    Cal/Mol-Kelvin
 Total                    4.663              7.752             60.401
 Electronic               0.000              0.000              2.183
 Translational            0.889              2.981             37.767
 Rotational               0.889              2.981             18.851
 Vibrational              2.886              1.791              1.599
 Vibration     1          0.675              1.727              1.590

 Optimization completed.
    -- Stationary point found.
 Normal termination of Gaussian 16 at Wed Oct  7 13:12:51 2020.
