 Gaussian 16, Revision A.03,

 ----------------------------------------------------------------------
 #P Opt(TS,MaxCyc=50,NoEigenTest,MaxStep=10,AddRedundant) TPSSTPSS/6-31
 G* 5D 7F Integral=UltraFineGrid SCF=(NoSymm,XQC,MaxCyc=120) EmpiricalD
 ispersion=GD3BJ IOp(1/33=1)
 ----------------------------------------------------------------------

 TstMul:  Mul=     3
 TstMul:  ICh=     0
 TstMul:  Mul=     3
 Symbolic Z-matrix:
 Charge =  0 Multiplicity = 3

 SCF Done:  E(UTPSS-TPSS) =  -95.7249573583     A.U. after   14 cycles
 SCF Done:  E(UTPSS-TPSS) =  -95.7251660878     A.U. after   13 cycles
 SCF Done:  E(UTPSS-TPSS) =  -95.7258608874     A.U. after   13 cycles
 SCF Done:  E(UTPSS-TPSS) =  -95.7253115796     A.U. after   13 cycles
 SCF Done:  E(UTPSS-TPSS) =  -95.7249407417     A.U. after   13 cycles
 SCF Done:  E(UTPSS-TPSS) =  -95.7247937113     A.U. after   13 cycles
 SCF Done:  E(UTPSS-TPSS) =  -95.7246565795     A.U. after   13 cycles
 SCF Done:  E(UTPSS-TPSS) =  -95.7246102546     A.U. after   13 cycles
 SCF Done:  E(UTPSS-TPSS) =  -95.7246111001     A.U. after    9 cycles
 SCF Done:  E(UTPSS-TPSS) =  -95.7246113275     A.U. after    9 cycles
 SCF Done:  E(UTPSS-TPSS) =  -95.7246149213     A.U. after   12 cycles
 SCF Done:  E(UTPSS-TPSS) =  -95.7246227904     A.U. after   14 cycles
 SCF Done:  E(UTPSS-TPSS) =  -95.7246545698     A.U. after   12 cycles
 SCF Done:  E(UTPSS-TPSS) =  -95.7246620020     A.U. after   12 cycles
 SCF Done:  E(UTPSS-TPSS) =  -95.7246620132     A.U. after   10 cycles
 SCF Done:  E(UTPSS-TPSS) =  -95.7246663641     A.U. after   13 cycles
 SCF Done:  E(UTPSS-TPSS) =  -95.7246684162     A.U. after    9 cycles
 SCF Done:  E(UTPSS-TPSS) =  -95.7246681168     A.U. after   13 cycles
 SCF Done:  E(UTPSS-TPSS) =  -95.7246690954     A.U. after   12 cycles
 Optimization completed.
    -- Stationary point found.
 Normal termination of Gaussian 16 at Wed Oct  7 13:16:55 2020.
 Gaussian 16:  ES64L-G16RevA.03 25-Dec-2016

 ----------------------------------------------------------------------
 #P Freq TPSSTPSS/6-31G* 5D 7F Integral=UltraFineGrid SCF=(NoSymm,XQC,M
 axCyc=120) EmpiricalDispersion=GD3BJ IOp(1/33=1) Geom=Check Guess=Read
 ----------------------------------------------------------------------

 TstMul:  Mul=     3
 TstMul:  ICh=     0
 TstMul:  Mul=     3
 Structure from the checkpoint file:  "MN_92_RKT18_BH76_TPSSDBJ_631Gs.chk"
 Charge =  0 Multiplicity = 3

                         Standard orientation:
 ---------------------------------------------------------------------
 Center     Atomic      Atomic             Coordinates (Angstroms)
 Number     Number       Type             X           Y           Z
 ---------------------------------------------------------------------
      1          6           0       -1.239773   -0.012695    0.000014
      2          7           0        1.430621    0.128850    0.000048
      3          1           0       -1.434280   -0.569520    0.917753
      4          1           0       -1.434434   -0.554486   -0.926672
      5          1           0       -1.560048    1.030009    0.008473
      6          1           0        0.264929    0.172290    0.000096
      7          1           0        1.588129   -0.904073   -0.000073
 ---------------------------------------------------------------------

 SCF Done:  E(UTPSS-TPSS) =  -95.7246690954     A.U. after    1 cycles

 The electronic state is 3-A.
 Alpha  occ. eigenvalues --  -14.14880 -10.00719  -0.78068  -0.64304  -0.41427
 Alpha  occ. eigenvalues --   -0.37846  -0.37716  -0.30197  -0.26456  -0.19257
 Alpha virt. eigenvalues --    0.07798   0.10806   0.15058   0.15219   0.24254
 Alpha virt. eigenvalues --    0.49180   0.49255   0.52596   0.65898   0.67232
 Alpha virt. eigenvalues --    0.69619   0.80331   0.86646   0.87148   0.87312

  Beta  occ. eigenvalues --  -14.12021  -9.99535  -0.71537  -0.61615  -0.39156
  Beta  occ. eigenvalues --   -0.37215  -0.37024  -0.25977
  Beta virt. eigenvalues --   -0.11781  -0.10491   0.09378   0.12429   0.16153
  Beta virt. eigenvalues --    0.16315   0.27146   0.50479   0.51215   0.58058
  Beta virt. eigenvalues --    0.71024   0.72199   0.75232   0.84014   0.89876

 Mulliken charges and spin densities:
               1          2
     1  C   -0.626125   0.763831
     2  N   -0.522411   1.441009
     3  H    0.182081  -0.025887
     4  H    0.182181  -0.025849
     5  H    0.190537  -0.024516
     6  H    0.306681  -0.091102
     7  H    0.287056  -0.037486
 Sum of Mulliken charges =   0.00000   2.00000

 Dipole moment (field-independent basis, Debye):
    X=             -1.1913    Y=             -1.4051    Z=             -0.0003  Tot=              1.8421
 Quadrupole moment (field-independent basis, Debye-Ang):
   XX=            -16.6683   YY=            -13.7846   ZZ=            -14.1508
   XY=             -2.7712   XZ=             -0.0008   YZ=              0.0002

  Exact polarizability:  40.425  -0.847  20.719  -0.002   0.000  16.228
 Approx polarizability:  62.128   1.041  28.504  -0.003   0.000  21.134

 ******    1 imaginary frequencies (negative Signs) ******

                      1                      2                      3
                      A                      A                      A
 Frequencies --   -903.3035                62.4617               350.7976
 Red. masses --      1.3426                 1.0506                 1.0580
 Frc consts  --      0.6455                 0.0024                 0.0767
 IR Inten    --    201.8492                58.9361                12.0233

                      4                      5                      6
                      A                      A                      A
 Frequencies --    401.3000               610.5507               780.0758
 Red. masses --      1.0766                 1.6916                 1.2460
 Frc consts  --      0.1022                 0.3715                 0.4467
 IR Inten    --      5.1286                12.8851                15.4113

                      7                      8                      9
                      A                      A                      A
 Frequencies --   1065.4529              1186.3838              1452.8192
 Red. masses --      1.0566                 1.3332                 1.0895
 Frc consts  --      0.7067                 1.1056                 1.3549
 IR Inten    --     48.0249                 3.8092                 5.4541

                     10                     11                     12
                      A                      A                      A
 Frequencies --   1455.3221              1544.1097              3072.1146
 Red. masses --      1.0842                 1.0494                 1.0158
 Frc consts  --      1.3530                 1.4742                 5.6487
 IR Inten    --      2.6509               144.1475                 0.4030

                     13                     14                     15
                      A                      A                      A
 Frequencies --   3215.0529              3217.5765              3246.7268
 Red. masses --      1.1122                 1.1122                 1.0720
 Frc consts  --      6.7736                 6.7840                 6.6580
 IR Inten    --     16.0177                10.2148                27.9911

 - Thermochemistry -
 -------------------
 Temperature   298.150 Kelvin.  Pressure   1.00000 Atm.
 Atom     1 has atomic number  6 and mass  12.00000

 Molecular mass:    31.04220 amu.
 Principal axes and moments of inertia in atomic units:
                           1         2         3
     Eigenvalues --    15.90828 206.59272 210.25672
           X            0.99970  -0.02448  -0.00001
           Y            0.02448   0.99970  -0.00002
           Z            0.00001   0.00002   1.00000
 This molecule is an asymmetric top.
 Rotational symmetry number  1.
 Rotational temperatures (Kelvin)      5.44458     0.41925     0.41194
 Rotational constants (GHZ):         113.44668     8.73574     8.58351
    1 imaginary frequencies ignored.
 Zero-point vibrational energy     129560.0 (Joules/Mol)
                                   30.96559 (Kcal/Mol)
 Warning -- explicit consideration of   4 degrees of freedom as
           vibrations may cause significant error
 Vibrational temperatures:     89.87   504.72   577.38   878.45  1122.36
          (Kelvin)           1532.95  1706.94  2090.28  2093.88  2221.63
                             4420.09  4625.74  4629.37  4671.32

 Zero-point correction=                           0.049347 (Hartree/Particle)
 Thermal correction to Energy=                    0.053958
 Thermal correction to Enthalpy=                  0.054902
 Thermal correction to Gibbs Free Energy=         0.023123
 Sum of electronic and zero-point Energies=            -95.675322
 Sum of electronic and thermal Energies=               -95.670711
 Sum of electronic and thermal Enthalpies=             -95.669767
 Sum of electronic and thermal Free Energies=          -95.701546

                     E (Thermal)             CV                S
                      KCal/Mol        Cal/Mol-Kelvin    Cal/Mol-Kelvin
 Total                   33.859             13.434             66.885
 Electronic               0.000              0.000              2.183
 Translational            0.889              2.981             36.231
 Rotational               0.889              2.981             21.163
 Vibrational             32.082              7.472              7.308
 Vibration     1          0.597              1.972              4.378
 Vibration     2          0.728              1.574              1.163
 Vibration     3          0.767              1.467              0.958
 Vibration     4          0.970              1.009              0.432

                           ! Non-Optimized Parameters !
 Normal termination of Gaussian 16 at Wed Oct  7 13:17:48 2020.
