 Gaussian 16, Revision A.03,
 Gaussian 16:  ES64L-G16RevA.03 25-Dec-2016

 ----------------------------------------------------------------------
 #P Opt(MaxCyc=100) M062X/6-31G* 5D 7F Integral=UltraFineGrid SCF=(NoSy
 mm,XQC,MaxCyc=120) IOp(1/33=1)
 ----------------------------------------------------------------------

 TstMul:  Mul=     2
 TstMul:  ICh=     0
 TstMul:  Mul=     2
 Symbolic Z-matrix:
 Charge =  0 Multiplicity = 2

 SCF Done:  E(UM062X) =  -118.391157956     A.U. after   15 cycles
 SCF Done:  E(UM062X) =  -118.391256749     A.U. after   13 cycles
 SCF Done:  E(UM062X) =  -118.391267787     A.U. after   10 cycles
 SCF Done:  E(UM062X) =  -118.391268920     A.U. after    9 cycles
 Optimization completed.
    -- Stationary point found.

                         Standard orientation:
 ---------------------------------------------------------------------
 Center     Atomic      Atomic             Coordinates (Angstroms)
 Number     Number       Type             X           Y           Z
 ---------------------------------------------------------------------
      1          6           0        1.203124   -0.289250    0.000060
      2          6           0       -0.066519    0.581874   -0.000060
      3          6           0       -1.315885   -0.232515   -0.000016
      4          1           0        1.228980   -0.933588    0.884034
      5          1           0        1.229013   -0.933779   -0.883773
      6          1           0        2.106544    0.328795    0.000008
      7          1           0       -0.045582    1.236263   -0.879637
      8          1           0       -0.045640    1.236451    0.879374
      9          1           0       -1.699002   -0.647090    0.925242
     10          1           0       -1.698630   -0.647710   -0.925152
 ---------------------------------------------------------------------

 The electronic state is 2-A.
 Alpha  occ. eigenvalues --  -10.53760 -10.53574 -10.52588  -0.87749  -0.76079
 Alpha  occ. eigenvalues --   -0.66055  -0.53413  -0.49436  -0.45721  -0.44025
 Alpha  occ. eigenvalues --   -0.40808  -0.39085  -0.25026
 Alpha virt. eigenvalues --    0.14980   0.19075   0.19103   0.20777   0.22778
 Alpha virt. eigenvalues --    0.22823   0.26791   0.27620   0.31813   0.56319
 Alpha virt. eigenvalues --    0.58233   0.58549   0.60336   0.64305   0.65245

  Beta  occ. eigenvalues --  -10.53642 -10.53026 -10.52483  -0.86548  -0.73842
  Beta  occ. eigenvalues --   -0.64397  -0.52719  -0.48689  -0.45071  -0.42466
  Beta  occ. eigenvalues --   -0.40134  -0.38876
  Beta virt. eigenvalues --    0.01841   0.15265   0.19410   0.20266   0.20803
  Beta virt. eigenvalues --    0.22909   0.23137   0.27400   0.28006   0.33069
  Beta virt. eigenvalues --    0.56756   0.58496   0.60046   0.62632   0.65546

 Mulliken charges and spin densities:
               1          2
     1  C   -0.473984   0.047276
     2  C   -0.319828  -0.076270
     3  C   -0.315752   1.116325
     4  H    0.159057  -0.001423
     5  H    0.159055  -0.001423
     6  H    0.158733   0.011969
     7  H    0.160476   0.009253
     8  H    0.160473   0.009232
     9  H    0.155888  -0.057470
    10  H    0.155882  -0.057469
 Sum of Mulliken charges =  -0.00000   1.00000

 Dipole moment (field-independent basis, Debye):
    X=              0.2209    Y=             -0.0626    Z=              0.0001  Tot=              0.2296
 Quadrupole moment (field-independent basis, Debye-Ang):
   XX=            -21.6971   YY=            -21.1267   ZZ=            -19.9667
   XY=              0.8266   XZ=             -0.0005   YZ=              0.0004

 1\1\GINC-NODE53\FOpt\UM062X\6-31G(d)\C3H7(2)\RPEVERATI\07-Oct-2020\0\\
 #P Opt(MaxCyc=100) M062X/6-31G* 5D 7F Integral=UltraFineGrid SCF=(NoSy
 mm,XQC,MaxCyc=120) IOp(1/33=1)\\TS search on BH76.\\0,2\C,1.1985274485
 ,-0.2873603343,0.0000583404\C,-0.0684076664,0.5876974899,-0.0000623011
 \C,-1.3202937904,-0.2228132693,-0.0000183893\H,1.2223854223,-0.9317753
 294,0.8840314114\H,1.2224173678,-0.931966346,-0.8837753255\H,2.1038603
 888,0.3278800115,0.0000059783\H,-0.0454410408,1.2420177266,-0.87963906
 83\H,-0.045498785,1.2422059796,0.8793716125\H,-1.7046939265,-0.6361984

 Normal termination of Gaussian 16 at Wed Oct  7 13:28:45 2020.
