 Gaussian 16, Revision A.03,
 Gaussian 16:  ES64L-G16RevA.03 25-Dec-2016

 ----------------------------------------------------------------------
 #P Opt(MaxCyc=100) M062X/6-31G* 5D 7F Integral=UltraFineGrid SCF=(NoSy
 mm,XQC,MaxCyc=120) IOp(1/33=1)
 ----------------------------------------------------------------------

 TstMul:  Mul=     2
 TstMul:  ICh=     0
 TstMul:  Mul=     2
 Symbolic Z-matrix:
 Charge =  0 Multiplicity = 2

 SCF Done:  E(UM062X) =  -79.0994731977     A.U. after   14 cycles
 SCF Done:  E(UM062X) =  -79.0995504567     A.U. after   13 cycles
 SCF Done:  E(UM062X) =  -79.0995582760     A.U. after   10 cycles
 SCF Done:  E(UM062X) =  -79.0995589303     A.U. after    9 cycles
 Optimization completed.
    -- Stationary point found.

                         Standard orientation:
 ---------------------------------------------------------------------
 Center     Atomic      Atomic             Coordinates (Angstroms)
 Number     Number       Type             X           Y           Z
 ---------------------------------------------------------------------
      1          6           0       -0.014726   -0.693640   -0.000000
      2          6           0       -0.014726    0.795102    0.000000
      3          1           0        1.005954   -1.108105   -0.000000
      4          1           0       -0.516642   -1.096068    0.885568
      5          1           0       -0.516642   -1.096068   -0.885568
      6          1           0        0.102020    1.345734   -0.925027
      7          1           0        0.102020    1.345734    0.925027
 ---------------------------------------------------------------------

 The electronic state is 2-A'.
 Alpha  occ. eigenvalues --  -10.53814 -10.52974  -0.84720  -0.68852  -0.51750
 Alpha  occ. eigenvalues --   -0.47619  -0.44938  -0.41524  -0.24905
 Alpha virt. eigenvalues --    0.16434   0.19359   0.19692   0.22781   0.26700
 Alpha virt. eigenvalues --    0.30358   0.56115   0.58435   0.60439   0.66524
 Alpha virt. eigenvalues --    0.67510   0.78537   0.84772   0.93949   0.94205

  Beta  occ. eigenvalues --  -10.53082 -10.53033  -0.82701  -0.65928  -0.50729
  Beta  occ. eigenvalues --   -0.45718  -0.43870  -0.41052
  Beta virt. eigenvalues --    0.02296   0.16522   0.20140   0.20278   0.23076
  Beta virt. eigenvalues --    0.27346   0.31635   0.56297   0.58591   0.64272
  Beta virt. eigenvalues --    0.68213   0.69803   0.78905   0.87468   0.94448

 Mulliken charges and spin densities:
               1          2
     1  C   -0.506876  -0.082110
     2  C   -0.318371   1.118299
     3  H    0.169623   0.055577
     4  H    0.169952   0.012210
     5  H    0.169952   0.012210
     6  H    0.157861  -0.058093
     7  H    0.157861  -0.058093
 Sum of Mulliken charges =  -0.00000   1.00000

 Dipole moment (field-independent basis, Debye):
    X=              0.1657    Y=             -0.1789    Z=              0.0000  Tot=              0.2439
 Quadrupole moment (field-independent basis, Debye-Ang):
   XX=            -14.9627   YY=            -14.0289   ZZ=            -13.4600
   XY=              0.2571   XZ=              0.0000   YZ=              0.0000

 1\1\GINC-NODE62\FOpt\UM062X\6-31G(d)\C2H5(2)\RPEVERATI\07-Oct-2020\0\\
 #P Opt(MaxCyc=100) M062X/6-31G* 5D 7F Integral=UltraFineGrid SCF=(NoSy
 mm,XQC,MaxCyc=120) IOp(1/33=1)\\TS search on BH76.\\0,2\C,-0.012827188
 3,-0.6925163685,0.\C,-0.0315829391,0.7961082254,0.\H,1.0129935608,-1.0
 940886862,0.\H,-0.5096330808,-1.1012353583,0.8855676236\H,-0.509633080
 8,-1.1012353583,-0.8855676236\H,0.0782162746,1.3481673667,-0.925027315
 2\H,0.0782162746,1.3481673667,0.9250273152\\Version=ES64L-G16RevA.03\S
 tate=2-A'\HF=-79.0995589\S2=0.754942\S2-1=0.\S2A=0.750018\RMSD=2.319e-

 Normal termination of Gaussian 16 at Wed Oct  7 13:28:32 2020.
