 Gaussian 16, Revision A.03,
 Gaussian 16:  ES64L-G16RevA.03 25-Dec-2016

 ----------------------------------------------------------------------
 #P Opt(MaxCyc=100) M062X/6-31G* 5D 7F Integral=UltraFineGrid SCF=(NoSy
 mm,XQC,MaxCyc=120) IOp(1/33=1)
 ----------------------------------------------------------------------

 TstMul:  Mul=     2
 TstMul:  ICh=     0
 TstMul:  Mul=     2
 Symbolic Z-matrix:
 Charge =  0 Multiplicity = 2

 SCF Done:  E(UM062X) =  -79.0994841349     A.U. after   14 cycles
 SCF Done:  E(UM062X) =  -79.0995511046     A.U. after   10 cycles
 SCF Done:  E(UM062X) =  -79.0995578931     A.U. after   10 cycles
 SCF Done:  E(UM062X) =  -79.0995586753     A.U. after    9 cycles
 Optimization completed.
    -- Stationary point found.

                         Standard orientation:
 ---------------------------------------------------------------------
 Center     Atomic      Atomic             Coordinates (Angstroms)
 Number     Number       Type             X           Y           Z
 ---------------------------------------------------------------------
      1          6           0        0.794560   -0.000001   -0.032917
      2          6           0       -0.693797    0.000131    0.001177
      3          1           0       -1.107317    0.890790   -0.482226
      4          1           0        1.347361   -0.925284    0.071072
      5          1           0       -1.084861   -0.010827    1.030982
      6          1           0       -1.107853   -0.880246   -0.500587
      7          1           0        1.348092    0.924787    0.071201
 ---------------------------------------------------------------------

 The electronic state is 2-A.
 Alpha  occ. eigenvalues --  -10.53814 -10.52974  -0.84720  -0.68852  -0.51750
 Alpha  occ. eigenvalues --   -0.47619  -0.44937  -0.41523  -0.24905
 Alpha virt. eigenvalues --    0.16434   0.19357   0.19693   0.22781   0.26700
 Alpha virt. eigenvalues --    0.30358   0.56115   0.58436   0.60439   0.66525
 Alpha virt. eigenvalues --    0.67510   0.78537   0.84771   0.93948   0.94205

  Beta  occ. eigenvalues --  -10.53082 -10.53034  -0.82701  -0.65928  -0.50729
  Beta  occ. eigenvalues --   -0.45718  -0.43870  -0.41052
  Beta virt. eigenvalues --    0.02296   0.16522   0.20133   0.20285   0.23077
  Beta virt. eigenvalues --    0.27346   0.31635   0.56297   0.58591   0.64273
  Beta virt. eigenvalues --    0.68214   0.69802   0.78906   0.87468   0.94448

 Mulliken charges and spin densities:
               1          2
     1  C   -0.318374   1.118302
     2  C   -0.506875  -0.082112
     3  H    0.169915   0.011784
     4  H    0.157792  -0.058085
     5  H    0.169625   0.055569
     6  H    0.169985   0.012645
     7  H    0.157932  -0.058102
 Sum of Mulliken charges =   0.00000   1.00000

 Dipole moment (field-independent basis, Debye):
    X=             -0.1751    Y=             -0.0002    Z=              0.1697  Tot=              0.2438
 Quadrupole moment (field-independent basis, Debye-Ang):
   XX=            -14.0175   YY=            -13.4600   ZZ=            -14.9740
   XY=              0.0008   XZ=              0.2353   YZ=              0.0002

 1\1\GINC-NODE51\FOpt\UM062X\6-31G(d)\C2H5(2)\RPEVERATI\07-Oct-2020\0\\
 #P Opt(MaxCyc=100) M062X/6-31G* 5D 7F Integral=UltraFineGrid SCF=(NoSy
 mm,XQC,MaxCyc=120) IOp(1/33=1)\\TS search on BH76.\\0,2\C,0.7954177116
 ,0.0000567192,-0.0428160234\C,-0.6927878234,0.0001293245,-0.0026189631
 \H,-1.1082834717,0.8915417486,-0.4829281609\H,1.3486376754,-0.92538529
 63,0.057458499\H,-1.0796256564,-0.0124407372,1.0287627193\H,-1.1088994
 187,-0.8794635634,-0.5040568706\H,1.3493738469,0.924682414,0.060477701
 4\\Version=ES64L-G16RevA.03\State=2-A\HF=-79.0995587\S2=0.754942\S2-1=

 Normal termination of Gaussian 16 at Wed Oct  7 13:28:21 2020.
