 Gaussian 16, Revision A.03,

 ----------------------------------------------------------------------
 #P Opt(TS,MaxCyc=50,NoEigenTest,MaxStep=10,AddRedundant) M062X/6-31G*
 5D 7F Integral=UltraFineGrid SCF=(NoSymm,XQC,MaxCyc=120) IOp(1/33=1)
 ----------------------------------------------------------------------

 TstMul:  Mul=     2
 TstMul:  ICh=     0
 TstMul:  Mul=     2
 Symbolic Z-matrix:
 Charge =  0 Multiplicity = 2

 SCF Done:  E(UM062X) =  -79.0284559368     A.U. after   18 cycles
 SCF Done:  E(UM062X) =  -79.0285243010     A.U. after   11 cycles
 SCF Done:  E(UM062X) =  -79.0285328550     A.U. after   11 cycles
 SCF Done:  E(UM062X) =  -79.0285271252     A.U. after   15 cycles
 SCF Done:  E(UM062X) =  -79.0285281904     A.U. after   10 cycles
 Optimization completed.
    -- Stationary point found.
 Normal termination of Gaussian 16 at Wed Oct  7 13:28:32 2020.
 Gaussian 16:  ES64L-G16RevA.03 25-Dec-2016

 ----------------------------------------------------------------------
 #P Freq M062X/6-31G* 5D 7F Integral=UltraFineGrid SCF=(NoSymm,XQC,MaxC
 yc=120) IOp(1/33=1) Geom=Check Guess=Read
 ----------------------------------------------------------------------

 TstMul:  Mul=     2
 TstMul:  ICh=     0
 TstMul:  Mul=     2
 Structure from the checkpoint file:  "MN_13_c2h5ts_BH76_M062X_631Gs.chk"
 Charge =  0 Multiplicity = 2

                         Standard orientation:
 ---------------------------------------------------------------------
 Center     Atomic      Atomic             Coordinates (Angstroms)
 Number     Number       Type             X           Y           Z
 ---------------------------------------------------------------------
      1          6           0       -0.565601    0.000768   -0.220291
      2          6           0        0.748833   -0.000173    0.043767
      3          1           0       -1.494614   -0.005125    1.535236
      4          1           0       -1.104308    0.924852   -0.406861
      5          1           0       -1.104724   -0.922050   -0.411828
      6          1           0        1.302091   -0.925405    0.168213
      7          1           0        1.302160    0.924154    0.174382
 ---------------------------------------------------------------------

 SCF Done:  E(UM062X) =  -79.0285281904     A.U. after    1 cycles

 The electronic state is 2-A.
 Alpha  occ. eigenvalues --  -10.54976 -10.54483  -0.86043  -0.66820  -0.54251
 Alpha  occ. eigenvalues --   -0.48637  -0.42117  -0.38837  -0.27405
 Alpha virt. eigenvalues --    0.06452   0.16501   0.18526   0.20419   0.29085
 Alpha virt. eigenvalues --    0.36369   0.51913   0.60448   0.61255   0.66369
 Alpha virt. eigenvalues --    0.73291   0.81531   0.82888   0.90831   0.93573

  Beta  occ. eigenvalues --  -10.55025 -10.54305  -0.85595  -0.66357  -0.54006
  Beta  occ. eigenvalues --   -0.48258  -0.41956  -0.33723
  Beta virt. eigenvalues --   -0.03561   0.07620   0.16513   0.18555   0.20411
  Beta virt. eigenvalues --    0.29061   0.36441   0.51997   0.60545   0.62227
  Beta virt. eigenvalues --    0.65765   0.73756   0.77526   0.82508   0.90980

 Mulliken charges and spin densities:
               1          2
     1  C   -0.355512  -0.157360
     2  C   -0.304788   0.297350
     3  H   -0.041521   0.875319
     4  H    0.182598   0.007169
     5  H    0.182614   0.007157
     6  H    0.168303  -0.014818
     7  H    0.168306  -0.014817
 Sum of Mulliken charges =   0.00000   1.00000

 Dipole moment (field-independent basis, Debye):
    X=              0.3248    Y=              0.0015    Z=             -0.4665  Tot=              0.5685
 Quadrupole moment (field-independent basis, Debye-Ang):
   XX=            -13.9014   YY=            -13.2720   ZZ=            -16.8228
   XY=             -0.0043   XZ=              1.4333   YZ=              0.0106

  Exact polarizability:  36.271   0.010  20.608  -3.067   0.004  18.181
 Approx polarizability:  41.464   0.009  21.175  -2.512   0.003  19.074

 ******    1 imaginary frequencies (negative Signs) ******

                      1                      2                      3
                      A                      A                      A
 Frequencies --   -704.2970               374.8810               413.0318
 Red. masses --      1.1525                 1.1849                 1.0436
 Frc consts  --      0.3368                 0.0981                 0.1049
 IR Inten    --     14.6731                 2.0392                 0.1962

                      4                      5                      6
                      A                      A                      A
 Frequencies --    827.4869               960.6424              1013.7318
 Red. masses --      1.0417                 1.3690                 1.1467
 Frc consts  --      0.4202                 0.7444                 0.6943
 IR Inten    --      0.7489                44.2412                41.4263

                      7                      8                      9
                      A                      A                      A
 Frequencies --   1063.6159              1244.0122              1376.5702
 Red. masses --      1.0129                 1.5048                 1.2983
 Frc consts  --      0.6751                 1.3721                 1.4495
 IR Inten    --      0.0673                 0.0008                 0.3001

                     10                     11                     12
                      A                      A                      A
 Frequencies --   1487.6942              1687.4018              3192.0295
 Red. masses --      1.1130                 2.6587                 1.0482
 Frc consts  --      1.4513                 4.4603                 6.2924
 IR Inten    --      7.0029                 1.3591                 6.1225

                     13                     14                     15
                      A                      A                      A
 Frequencies --   3203.7161              3271.8658              3295.1005
 Red. masses --      1.0695                 1.1166                 1.1182
 Frc consts  --      6.4675                 7.0428                 7.1530
 IR Inten    --      1.8323                 0.0001                16.2078

 - Thermochemistry -
 -------------------
 Temperature   298.150 Kelvin.  Pressure   1.00000 Atm.
 Atom     1 has atomic number  6 and mass  12.00000

 Molecular mass:    29.03913 amu.
 Principal axes and moments of inertia in atomic units:
                           1         2         3
     Eigenvalues --    23.99881  78.54361  79.13321
           X            0.99799   0.00050  -0.06336
           Y           -0.00023   0.99999   0.00425
           Z            0.06336  -0.00422   0.99798
 This molecule is an asymmetric top.
 Rotational symmetry number  1.
 Rotational temperatures (Kelvin)      3.60909     1.10275     1.09453
 Rotational constants (GHZ):          75.20128    22.97757    22.80637
    1 imaginary frequencies ignored.
 Zero-point vibrational energy     140033.5 (Joules/Mol)
                                   33.46882 (Kcal/Mol)
 Warning -- explicit consideration of   2 degrees of freedom as
           vibrations may cause significant error
 Vibrational temperatures:    539.37   594.26  1190.57  1382.15  1458.53
          (Kelvin)           1530.31  1789.86  1980.58  2140.46  2427.79
                             4592.62  4609.43  4707.49  4740.91

 Zero-point correction=                           0.053336 (Hartree/Particle)
 Thermal correction to Energy=                    0.057007
 Thermal correction to Enthalpy=                  0.057951
 Thermal correction to Gibbs Free Energy=         0.029656
 Sum of electronic and zero-point Energies=            -78.975192
 Sum of electronic and thermal Energies=               -78.971521
 Sum of electronic and thermal Enthalpies=             -78.970577
 Sum of electronic and thermal Free Energies=          -78.998873

                     E (Thermal)             CV                S
                      KCal/Mol        Cal/Mol-Kelvin    Cal/Mol-Kelvin
 Total                   35.772             11.040             59.553
 Electronic               0.000              0.000              1.377
 Translational            0.889              2.981             36.032
 Rotational               0.889              2.981             19.639
 Vibrational             33.995              5.079              2.504
 Vibration     1          0.746              1.524              1.060
 Vibration     2          0.777              1.442              0.916

 Optimization completed.
    -- Stationary point found.

 1\1\GINC-NODE62\Freq\UM062X\6-31G(d)\C2H5(2)\RPEVERATI\07-Oct-2020\0\\
 #P Freq M062X/6-31G* 5D 7F Integral=UltraFineGrid SCF=(NoSymm,XQC,MaxC
 yc=120) IOp(1/33=1) Geom=Check Guess=Read\\TS search on BH76.\\0,2\C,-
 0.5652881769,0.0001782479,-0.2203517623\C,0.748891194,0.0000402849,0.0
 449711918\H,-1.4959885649,-0.0007414655,1.5342908846\H,-1.1038485314,0
 .9237056058,-0.4100756971\H,-1.1041948151,-0.9232026334,-0.4097727676\
 H,1.3020618935,-0.9248126947,0.1725884792\H,1.3020596178,0.9247565375,
 0.1734800496\\Version=ES64L-G16RevA.03\State=2-A\HF=-79.0285282\S2=0.7

 Normal termination of Gaussian 16 at Wed Oct  7 13:29:10 2020.
