 Gaussian 16, Revision A.03,

 ----------------------------------------------------------------------
 #P Opt(TS,MaxCyc=50,NoEigenTest,MaxStep=10,AddRedundant) M062X/6-31G*
 5D 7F Integral=UltraFineGrid SCF=(NoSymm,XQC,MaxCyc=120) IOp(1/33=1)
 ----------------------------------------------------------------------

 TstMul:  Mul=     2
 TstMul:  ICh=     0
 TstMul:  Mul=     2
 Symbolic Z-matrix:
 Charge =  0 Multiplicity = 2

 SCF Done:  E(UM062X) =  -118.332102934     A.U. after   21 cycles
 SCF Done:  E(UM062X) =  -118.332288364     A.U. after   17 cycles
 SCF Done:  E(UM062X) =  -118.332181838     A.U. after   17 cycles
 SCF Done:  E(UM062X) =  -118.332200816     A.U. after   12 cycles
 SCF Done:  E(UM062X) =  -118.332205295     A.U. after   11 cycles
 SCF Done:  E(UM062X) =  -118.332206045     A.U. after   10 cycles
 SCF Done:  E(UM062X) =  -118.332206590     A.U. after   10 cycles
 Optimization completed.
    -- Stationary point found.
 Normal termination of Gaussian 16 at Wed Oct  7 13:30:02 2020.
 Gaussian 16:  ES64L-G16RevA.03 25-Dec-2016

 ----------------------------------------------------------------------
 #P Freq M062X/6-31G* 5D 7F Integral=UltraFineGrid SCF=(NoSymm,XQC,MaxC
 yc=120) IOp(1/33=1) Geom=Check Guess=Read
 ----------------------------------------------------------------------

 TstMul:  Mul=     2
 TstMul:  ICh=     0
 TstMul:  Mul=     2
 Structure from the checkpoint file:  "MN_17_c3h7ts_BH76_M062X_631Gs.chk"
 Charge =  0 Multiplicity = 2

                         Standard orientation:
 ---------------------------------------------------------------------
 Center     Atomic      Atomic             Coordinates (Angstroms)
 Number     Number       Type             X           Y           Z
 ---------------------------------------------------------------------
      1          6           0       -0.479172    0.641611    0.000003
      2          6           0       -1.386690   -0.362211    0.000013
      3          1           0       -0.230669    1.161326   -0.920406
      4          1           0       -0.230561    1.161282    0.920403
      5          1           0       -1.741088   -0.806004    0.924511
      6          1           0       -1.741310   -0.805918   -0.924436
      7          6           0        1.619773   -0.239068   -0.000003
      8          1           0        2.216066    0.666704    0.020944
      9          1           0        1.608919   -0.792924   -0.930620
     10          1           0        1.595175   -0.826456    0.909522
 ---------------------------------------------------------------------

 SCF Done:  E(UM062X) =  -118.332206590     A.U. after    1 cycles

 The electronic state is 2-A.
 Alpha  occ. eigenvalues --  -10.54094 -10.53794 -10.52849  -0.84928  -0.76394
 Alpha  occ. eigenvalues --   -0.65459  -0.53197  -0.48256  -0.47074  -0.46182
 Alpha  occ. eigenvalues --   -0.40909  -0.35757  -0.22531
 Alpha virt. eigenvalues --    0.08615   0.14858   0.19149   0.19210   0.22093
 Alpha virt. eigenvalues --    0.22890   0.23070   0.29504   0.37216   0.50826
 Alpha virt. eigenvalues --    0.57429   0.58690   0.60882   0.64943   0.65083

  Beta  occ. eigenvalues --  -10.54213 -10.53119 -10.52578  -0.84267  -0.72941
  Beta  occ. eigenvalues --   -0.64828  -0.52871  -0.47468  -0.45866  -0.45303
  Beta  occ. eigenvalues --   -0.40676  -0.31954
  Beta virt. eigenvalues --   -0.00361   0.11689   0.15287   0.19298   0.19566
  Beta virt. eigenvalues --    0.22233   0.23924   0.24093   0.29658   0.37437
  Beta virt. eigenvalues --    0.51405   0.57920   0.60432   0.63226   0.65424

 Mulliken charges and spin densities:
               1          2
     1  C   -0.323514  -0.222392
     2  C   -0.325578   0.443760
     3  H    0.170380   0.014216
     4  H    0.170361   0.014232
     5  H    0.155630  -0.022154
     6  H    0.155652  -0.022152
     7  C   -0.501514   0.913279
     8  H    0.162122  -0.036864
     9  H    0.168144  -0.040957
    10  H    0.168317  -0.040969
 Sum of Mulliken charges =   0.00000   1.00000

 Dipole moment (field-independent basis, Debye):
    X=              0.3305    Y=              0.0447    Z=             -0.0003  Tot=              0.3335
 Quadrupole moment (field-independent basis, Debye-Ang):
   XX=            -22.0226   YY=            -20.5449   ZZ=            -19.3856
   XY=              1.4434   XZ=             -0.0001   YZ=             -0.0002

  Exact polarizability:  51.501   7.418  31.595   0.000   0.003  31.260
 Approx polarizability:  51.843  10.196  35.514  -0.000   0.001  33.426

 ******    1 imaginary frequencies (negative Signs) ******

                      1                      2                      3
                      A                      A                      A
 Frequencies --   -578.2590                97.1762               227.6399
 Red. masses --     10.4428                 1.0892                 2.4527
 Frc consts  --      2.0574                 0.0061                 0.0749
 IR Inten    --      1.8098                 0.0034                 0.4223

                      4                      5                      6
                      A                      A                      A
 Frequencies --    372.9768               506.2217               544.1752
 Red. masses --      1.0596                 1.1362                 1.1086
 Frc consts  --      0.0868                 0.1715                 0.1934
 IR Inten    --      0.1324                 1.3381                 0.7732

                      7                      8                      9
                      A                      A                      A
 Frequencies --    820.9170               823.5847               891.0275
 Red. masses --      1.0438                 1.0872                 1.3116
 Frc consts  --      0.4145                 0.4345                 0.6135
 IR Inten    --      0.6815                 3.5242                50.5751

                     10                     11                     12
                      A                      A                      A
 Frequencies --    973.6598              1045.7047              1245.9336
 Red. masses --      1.2191                 1.0310                 1.4727
 Frc consts  --      0.6809                 0.6643                 1.3469
 IR Inten    --     32.0504                 0.0934                 0.0500

                     13                     14                     15
                      A                      A                      A
 Frequencies --   1332.5136              1455.1812              1461.3694
 Red. masses --      1.5208                 1.0918                 1.0914
 Frc consts  --      1.5910                 1.3621                 1.3732
 IR Inten    --      0.4505                 1.9732                 1.7213

                     16                     17                     18
                      A                      A                      A
 Frequencies --   1485.3511              1628.3507              3149.4508
 Red. masses --      1.1135                 2.0042                 1.0131
 Frc consts  --      1.4475                 3.1310                 5.9204
 IR Inten    --      4.4961                 0.0973                 2.3354

                     19                     20                     21
                      A                      A                      A
 Frequencies --   3185.6407              3199.2029              3264.4955
 Red. masses --      1.0519                 1.0614                 1.1164
 Frc consts  --      6.2893                 6.4002                 7.0099
 IR Inten    --      7.9845                 4.6241                 0.6728

                     22                     23                     24
                      A                      A                      A
 Frequencies --   3291.4469              3307.1823              3318.4804
 Red. masses --      1.1180                 1.1153                 1.1156
 Frc consts  --      7.1361                 7.1873                 7.2385
 IR Inten    --     20.0190                 9.5332                10.8800

 - Thermochemistry -
 -------------------
 Temperature   298.150 Kelvin.  Pressure   1.00000 Atm.
 Atom     1 has atomic number  6 and mass  12.00000

 Molecular mass:    43.05478 amu.
 Principal axes and moments of inertia in atomic units:
                           1         2         3
     Eigenvalues --    64.68047 281.27048 309.26041
           X            0.99982   0.01875   0.00000
           Y           -0.01875   0.99982   0.00000
           Z           -0.00000  -0.00000   1.00000
 This molecule is an asymmetric top.
 Rotational symmetry number  1.
 Rotational temperatures (Kelvin)      1.33910     0.30794     0.28007
 Rotational constants (GHZ):          27.90241     6.41639     5.83567
    1 imaginary frequencies ignored.
 Zero-point vibrational energy     225063.5 (Joules/Mol)
                                   53.79147 (Kcal/Mol)
 Warning -- explicit consideration of   5 degrees of freedom as
           vibrations may cause significant error
 Vibrational temperatures:    139.81   327.52   536.63   728.34   782.95
          (Kelvin)           1181.12  1184.95  1281.99  1400.88  1504.54
                             1792.62  1917.19  2093.68  2102.58  2137.09
                             2342.83  4531.36  4583.43  4602.94  4696.88
                             4735.66  4758.30  4774.55

 Zero-point correction=                           0.085722 (Hartree/Particle)
 Thermal correction to Energy=                    0.090878
 Thermal correction to Enthalpy=                  0.091823
 Thermal correction to Gibbs Free Energy=         0.058413
 Sum of electronic and zero-point Energies=           -118.246484
 Sum of electronic and thermal Energies=              -118.241328
 Sum of electronic and thermal Enthalpies=            -118.240384
 Sum of electronic and thermal Free Energies=         -118.273793

                     E (Thermal)             CV                S
                      KCal/Mol        Cal/Mol-Kelvin    Cal/Mol-Kelvin
 Total                   57.027             16.716             70.316
 Electronic               0.000              0.000              1.377
 Translational            0.889              2.981             37.206
 Rotational               0.889              2.981             23.246
 Vibrational             55.250             10.755              8.486
 Vibration     1          0.603              1.951              3.510
 Vibration     2          0.651              1.799              1.897
 Vibration     3          0.744              1.528              1.068
 Vibration     4          0.861              1.236              0.643
 Vibration     5          0.899              1.152              0.556

                           ! Non-Optimized Parameters !

 1\1\GINC-NODE52\Freq\UM062X\6-31G(d)\C3H7(2)\RPEVERATI\07-Oct-2020\0\\
 #P Freq M062X/6-31G* 5D 7F Integral=UltraFineGrid SCF=(NoSymm,XQC,MaxC
 yc=120) IOp(1/33=1) Geom=Check Guess=Read\\TS search on BH76.\\0,2\C,-
 0.4816118899,0.6411449263,-0.0033174885\C,-1.3879714973,-0.3637024058,
 0.0031703791\H,-0.2344221351,1.1558455869,-0.9268920098\H,-0.232887347
 6,1.1663826744,0.913886131\H,-1.741141856,-0.8025804438,0.9304799258\H
 ,-1.7427963811,-0.8131221476,-0.9184359444\C,1.6183459398,-0.237108296
 8,0.000097553\H,2.2136105341,0.6694526877,0.0153721127\H,1.6074099736,

 Normal termination of Gaussian 16 at Wed Oct  7 13:31:08 2020.
