 Gaussian 16, Revision A.03,
 Gaussian 16:  ES64L-G16RevA.03 25-Dec-2016

 ----------------------------------------------------------------------
 #P Opt(MaxCyc=100) M062X/6-31G* 5D 7F Integral=UltraFineGrid SCF=(NoSy
 mm,XQC,MaxCyc=120) IOp(1/33=1)
 ----------------------------------------------------------------------

 TstMul:  Mul=     1
 TstMul:  ICh=     0
 TstMul:  Mul=     1
 Symbolic Z-matrix:
 Charge =  0 Multiplicity = 1

 SCF Done:  E(RM062X) =  -195.196975513     A.U. after   13 cycles
 SCF Done:  E(RM062X) =  -195.197079462     A.U. after    9 cycles
 SCF Done:  E(RM062X) =  -195.197081097     A.U. after    7 cycles
 Optimization completed.
    -- Stationary point found.

                         Standard orientation:
 ---------------------------------------------------------------------
 Center     Atomic      Atomic             Coordinates (Angstroms)
 Number     Number       Type             X           Y           Z
 ---------------------------------------------------------------------
      1          6           0       -2.055921   -0.611087    0.000002
      2          6           0       -1.230394    0.640774    0.000049
      3          6           0        0.106258    0.733008    0.000032
      4          6           0        1.058066   -0.375206   -0.000037
      5          6           0        2.382324   -0.198879   -0.000042
      6          1           0       -2.708765   -0.640931    0.879731
      7          1           0       -2.708804   -0.640838   -0.879701
      8          1           0       -1.450104   -1.518774   -0.000060
      9          1           0       -1.797201    1.570259    0.000105
     10          1           0        0.552659    1.726579    0.000073
     11          1           0        0.661669   -1.387812   -0.000084
     12          1           0        3.070494   -1.037207   -0.000092
     13          1           0        2.818056    0.797072    0.000004
 ---------------------------------------------------------------------

 The electronic state is 1-A.
 Alpha  occ. eigenvalues --  -10.54401 -10.54282 -10.53770 -10.53417 -10.53299
 Alpha  occ. eigenvalues --   -0.90595  -0.84783  -0.77022  -0.66965  -0.60491
 Alpha  occ. eigenvalues --   -0.54554  -0.51237  -0.47812  -0.46379  -0.44127
 Alpha  occ. eigenvalues --   -0.42682  -0.38700  -0.37214  -0.27023
 Alpha virt. eigenvalues --    0.02282   0.13614   0.14964   0.15667   0.18039
 Alpha virt. eigenvalues --    0.21162   0.22194   0.22521   0.24588   0.28041
 Alpha virt. eigenvalues --    0.29981   0.37842   0.42422   0.48644   0.52452

 Mulliken charges:
               1
     1  C   -0.528072
     2  C   -0.148704
     3  C   -0.142236
     4  C   -0.092348
     5  C   -0.389841
     6  H    0.177272
     7  H    0.177272
     8  H    0.170171
     9  H    0.153134
    10  H    0.148265
    11  H    0.153327
    12  H    0.162604
    13  H    0.159156
 Sum of Mulliken charges =  -0.00000

 Dipole moment (field-independent basis, Debye):
    X=             -0.4532    Y=             -0.1335    Z=              0.0000  Tot=              0.4725
 Quadrupole moment (field-independent basis, Debye-Ang):
   XX=            -28.6652   YY=            -29.4326   ZZ=            -34.4601
   XY=              0.0531   XZ=             -0.0001   YZ=              0.0003

 Normal termination of Gaussian 16 at Wed Oct  7 13:28:54 2020.
