 Gaussian 16, Revision A.03,
 Gaussian 16:  ES64L-G16RevA.03 25-Dec-2016

 ----------------------------------------------------------------------
 #P Opt(MaxCyc=100) M062X/6-31G* 5D 7F Integral=UltraFineGrid SCF=(NoSy
 mm,XQC,MaxCyc=120) IOp(1/33=1)
 ----------------------------------------------------------------------

 TstMul:  Mul=     1
 TstMul:  ICh=     0
 TstMul:  Mul=     1
 Symbolic Z-matrix:
 Charge =  0 Multiplicity = 1

 SCF Done:  E(RM062X) =  -115.653283765     A.U. after   12 cycles
 SCF Done:  E(RM062X) =  -115.653479442     A.U. after    9 cycles
 SCF Done:  E(RM062X) =  -115.653487233     A.U. after    8 cycles
 SCF Done:  E(RM062X) =  -115.653488043     A.U. after    7 cycles
 Optimization completed.
    -- Stationary point found.

                         Standard orientation:
 ---------------------------------------------------------------------
 Center     Atomic      Atomic             Coordinates (Angstroms)
 Number     Number       Type             X           Y           Z
 ---------------------------------------------------------------------
      1          6           0       -0.046751    0.657395    0.000000
      2          8           0       -0.046751   -0.752693    0.000000
      3          1           0       -1.091620    0.973337    0.000000
      4          1           0        0.871480   -1.052332    0.000000
      5          1           0        0.437330    1.078084    0.891847
      6          1           0        0.437330    1.078084   -0.891847
 ---------------------------------------------------------------------

 The electronic state is 1-A'.
 Alpha  occ. eigenvalues --  -19.62448 -10.57563  -1.13220  -0.76935  -0.57803
 Alpha  occ. eigenvalues --   -0.50874  -0.49051  -0.39891  -0.33934
 Alpha virt. eigenvalues --    0.12628   0.18378   0.21732   0.22561   0.26044
 Alpha virt. eigenvalues --    0.60068   0.61893   0.62619   0.85544   0.92079
 Alpha virt. eigenvalues --    0.95191   0.98761   1.05440   1.06252   1.08919

 Mulliken charges:
               1
     1  C   -0.219502
     2  O   -0.656198
     3  H    0.174488
     4  H    0.417048
     5  H    0.142081
     6  H    0.142081
 Sum of Mulliken charges =  -0.00000

 Dipole moment (field-independent basis, Debye):
    X=              1.4827    Y=              0.9227    Z=             -0.0000  Tot=              1.7464
 Quadrupole moment (field-independent basis, Debye-Ang):
   XX=            -11.5293   YY=            -13.0087   ZZ=            -13.6123
   XY=             -2.1742   XZ=             -0.0000   YZ=             -0.0000

 Normal termination of Gaussian 16 at Wed Oct  7 13:29:03 2020.
