 Gaussian 16, Revision A.03,

 ----------------------------------------------------------------------
 #P Opt(TS,MaxCyc=50,NoEigenTest,MaxStep=10,AddRedundant) M062X/6-31G*
 5D 7F Integral=UltraFineGrid SCF=(NoSymm,XQC,MaxCyc=120) IOp(1/33=1)
 ----------------------------------------------------------------------

 TstMul:  Mul=     2
 TstMul:  ICh=     0
 TstMul:  Mul=     2
 Symbolic Z-matrix:
 Charge =  0 Multiplicity = 2

 SCF Done:  E(UM062X) =  -599.670409479     A.U. after   21 cycles
 SCF Done:  E(UM062X) =  -599.670841865     A.U. after   19 cycles
 SCF Done:  E(UM062X) =  -599.670405619     A.U. after   20 cycles
 SCF Done:  E(UM062X) =  -599.670212049     A.U. after   20 cycles
 SCF Done:  E(UM062X) =  -599.670201666     A.U. after   13 cycles
 SCF Done:  E(UM062X) =  -599.670206185     A.U. after   12 cycles
 SCF Done:  E(UM062X) =  -599.670219229     A.U. after   17 cycles
 SCF Done:  E(UM062X) =  -599.670221921     A.U. after   13 cycles
 SCF Done:  E(UM062X) =  -599.670223771     A.U. after   12 cycles
 SCF Done:  E(UM062X) =  -599.670223868     A.U. after   11 cycles
 Optimization completed.
    -- Stationary point found.
 Normal termination of Gaussian 16 at Wed Oct  7 13:31:02 2020.
 Gaussian 16:  ES64L-G16RevA.03 25-Dec-2016

 ----------------------------------------------------------------------
 #P Freq M062X/6-31G* 5D 7F Integral=UltraFineGrid SCF=(NoSymm,XQC,MaxC
 yc=120) IOp(1/33=1) Geom=Check Guess=Read
 ----------------------------------------------------------------------

 TstMul:  Mul=     2
 TstMul:  ICh=     0
 TstMul:  Mul=     2
 Structure from the checkpoint file:  "MN_21_ch3fclts_BH76_M062X_631Gs.chk"
 Charge =  0 Multiplicity = 2

                         Standard orientation:
 ---------------------------------------------------------------------
 Center     Atomic      Atomic             Coordinates (Angstroms)
 Number     Number       Type             X           Y           Z
 ---------------------------------------------------------------------
      1         17           0        1.451740    0.000225    0.000157
      2          9           0       -0.303698   -0.000779   -0.000604
      3          6           0       -2.400674    0.000343    0.000284
      4          1           0       -2.513400    0.595981    0.893942
      5          1           0       -2.514767    0.476482   -0.962222
      6          1           0       -2.514087   -1.071337    0.069349
 ---------------------------------------------------------------------

 SCF Done:  E(UM062X) =  -599.670223868     A.U. after    1 cycles

 The electronic state is 2-A.
 Alpha  occ. eigenvalues -- -102.68020 -25.27029 -10.58500  -9.83759  -7.56593
 Alpha  occ. eigenvalues --   -7.55109  -7.55109  -1.31506  -0.90350  -0.79930
 Alpha  occ. eigenvalues --   -0.55557  -0.53394  -0.53393  -0.50216  -0.50215
 Alpha  occ. eigenvalues --   -0.37268  -0.37268  -0.27302
 Alpha virt. eigenvalues --   -0.05128   0.15180   0.21069   0.21070   0.40505
 Alpha virt. eigenvalues --    0.46491   0.49793   0.49794   0.57105   0.57107
 Alpha virt. eigenvalues --    0.58505   0.78721   0.85325   0.85325   0.93019

  Beta  occ. eigenvalues -- -102.67656 -25.27043 -10.57962  -9.83640  -7.55625
  Beta  occ. eigenvalues --   -7.54993  -7.54993  -1.31357  -0.88956  -0.76203
  Beta  occ. eigenvalues --   -0.55095  -0.53186  -0.53185  -0.49386  -0.49386
  Beta  occ. eigenvalues --   -0.36603  -0.36603
  Beta virt. eigenvalues --   -0.07677   0.03182   0.16130   0.22058   0.22059
  Beta virt. eigenvalues --    0.40980   0.47146   0.49961   0.49961   0.57665
  Beta virt. eigenvalues --    0.57666   0.63262   0.81846   0.86970   0.86970

 Mulliken charges and spin densities:
               1          2
     1  Cl   0.134438   0.317945
     2  F   -0.305915  -0.087839
     3  C   -0.431194   0.902127
     4  H    0.200889  -0.044078
     5  H    0.200877  -0.044080
     6  H    0.200905  -0.044074
 Sum of Mulliken charges =  -0.00000   1.00000

 Dipole moment (field-independent basis, Debye):
    X=             -1.8981    Y=              0.0009    Z=              0.0008  Tot=              1.8981
 Quadrupole moment (field-independent basis, Debye-Ang):
   XX=            -18.6927   YY=            -24.2156   ZZ=            -24.2160
   XY=             -0.0000   XZ=              0.0007   YZ=              0.0000

  Exact polarizability: 104.169  -0.023  18.411   0.000   0.002  18.445
 Approx polarizability:  90.888   0.001  19.240   0.006  -0.000  19.239

 ******    1 imaginary frequencies (negative Signs) ******

                      1                      2                      3
                      A                      A                      A
 Frequencies --   -539.1572               115.0924               115.3672
 Red. masses --     13.3553                 7.2194                 7.2184
 Frc consts  --      2.2874                 0.0563                 0.0566
 IR Inten    --   1131.4717                 2.7133                 2.7652

                      4                      5                      6
                      A                      A                      A
 Frequencies --    411.8992               442.9764               443.4793
 Red. masses --      5.8867                 1.0831                 1.0830
 Frc consts  --      0.5884                 0.1252                 0.1255
 IR Inten    --    129.5106                 0.1845                 0.2192

                      7                      8                      9
                      A                      A                      A
 Frequencies --    829.9990              1452.9630              1453.3545
 Red. masses --      1.2093                 1.0982                 1.0982
 Frc consts  --      0.4908                 1.3660                 1.3667
 IR Inten    --     20.1677                 3.5839                 3.6633

                     10                     11                     12
                      A                      A                      A
 Frequencies --   3189.7724              3367.3153              3367.5721
 Red. masses --      1.0097                 1.1189                 1.1189
 Frc consts  --      6.0528                 7.4753                 7.4764
 IR Inten    --      1.2877                 0.8186                 0.8504

 - Thermochemistry -
 -------------------
 Temperature   298.150 Kelvin.  Pressure   1.00000 Atm.
 Atom     1 has atomic number 17 and mass  34.96885

 Molecular mass:    68.99073 amu.
 Principal axes and moments of inertia in atomic units:
                           1         2         3
     Eigenvalues --    12.45195 587.06364 587.06431
           X            1.00000  -0.00002  -0.00001
           Y            0.00002   0.99952  -0.03091
           Z            0.00001   0.03091   0.99952
 This molecule is an asymmetric top.
 Rotational symmetry number  1.
 Rotational temperatures (Kelvin)      6.95585     0.14754     0.14754
 Rotational constants (GHZ):         144.93645     3.07418     3.07418
    1 imaginary frequencies ignored.
 Zero-point vibrational energy      90855.1 (Joules/Mol)
                                   21.71490 (Kcal/Mol)
 Warning -- explicit consideration of   5 degrees of freedom as
           vibrations may cause significant error
 Vibrational temperatures:    165.59   165.99   592.63   637.34   638.07
          (Kelvin)           1194.18  2090.49  2091.05  4589.37  4844.82
                             4845.19

 Zero-point correction=                           0.034605 (Hartree/Particle)
 Thermal correction to Energy=                    0.039769
 Thermal correction to Enthalpy=                  0.040713
 Thermal correction to Gibbs Free Energy=         0.006460
 Sum of electronic and zero-point Energies=           -599.635619
 Sum of electronic and thermal Energies=              -599.630455
 Sum of electronic and thermal Enthalpies=            -599.629511
 Sum of electronic and thermal Free Energies=         -599.663763

                     E (Thermal)             CV                S
                      KCal/Mol        Cal/Mol-Kelvin    Cal/Mol-Kelvin
 Total                   24.955             14.810             72.090
 Electronic               0.000              0.000              1.377
 Translational            0.889              2.981             38.612
 Rotational               0.889              2.981             22.977
 Vibrational             23.178              8.849              9.124
 Vibration     1          0.608              1.937              3.181
 Vibration     2          0.608              1.937              3.177
 Vibration     3          0.776              1.444              0.920
 Vibration     4          0.803              1.376              0.817
 Vibration     5          0.803              1.375              0.816

                           ! Non-Optimized Parameters !
 Normal termination of Gaussian 16 at Wed Oct  7 13:31:38 2020.
