 Gaussian 16, Revision A.03,

 ----------------------------------------------------------------------
 #P Opt(TS,MaxCyc=50,NoEigenTest,MaxStep=10,AddRedundant) M062X/6-31G*
 5D 7F Integral=UltraFineGrid SCF=(NoSymm,XQC,MaxCyc=120) IOp(1/33=1)
 ----------------------------------------------------------------------

 TstMul:  Mul=     1
 TstMul:  ICh=    -1
 TstMul:  Mul=     1
 Symbolic Z-matrix:
 Charge = -1 Multiplicity = 1

 SCF Done:  E(RM062X) =  -960.259116633     A.U. after   14 cycles
 SCF Done:  E(RM062X) =  -960.259200569     A.U. after   11 cycles
 SCF Done:  E(RM062X) =  -960.259238965     A.U. after   11 cycles
 SCF Done:  E(RM062X) =  -960.259231252     A.U. after    9 cycles
 Optimization completed.
    -- Stationary point found.
 Normal termination of Gaussian 16 at Wed Oct  7 13:29:34 2020.
 Gaussian 16:  ES64L-G16RevA.03 25-Dec-2016

 ----------------------------------------------------------------------
 #P Freq M062X/6-31G* 5D 7F Integral=UltraFineGrid SCF=(NoSymm,XQC,MaxC
 yc=120) IOp(1/33=1) Geom=Check Guess=Read
 ----------------------------------------------------------------------

 TstMul:  Mul=     1
 TstMul:  ICh=    -1
 TstMul:  Mul=     1
 Structure from the checkpoint file:  "MN_28_clch3clts_BH76_M062X_631Gs.chk"
 Charge = -1 Multiplicity = 1

                         Standard orientation:
 ---------------------------------------------------------------------
 Center     Atomic      Atomic             Coordinates (Angstroms)
 Number     Number       Type             X           Y           Z
 ---------------------------------------------------------------------
      1         17           0        2.308738   -0.000216   -0.000300
      2          6           0       -0.000010    0.000798    0.001131
      3          1           0        0.000093   -0.192562   -1.056157
      4          1           0       -0.000094   -0.818218    0.697286
      5          1           0        0.000083    1.013277    0.362338
      6         17           0       -2.308739   -0.000213   -0.000303
 ---------------------------------------------------------------------

 SCF Done:  E(RM062X) =  -960.259231252     A.U. after    1 cycles

 The electronic state is 1-A.
 Alpha  occ. eigenvalues -- -102.39452-102.39451 -10.45187  -9.55571  -9.55569
 Alpha  occ. eigenvalues --   -7.27538  -7.27537  -7.27250  -7.27250  -7.27249
 Alpha  occ. eigenvalues --   -7.27249  -0.68986  -0.64977  -0.59091  -0.35678
 Alpha  occ. eigenvalues --   -0.35677  -0.22346  -0.15308  -0.15307  -0.14430
 Alpha  occ. eigenvalues --   -0.14429  -0.12099
 Alpha virt. eigenvalues --    0.18495   0.29578   0.36672   0.36679   0.62477
 Alpha virt. eigenvalues --    0.63175   0.68587   0.68594   0.69351   0.69354
 Alpha virt. eigenvalues --    0.72805   0.77288   0.77299   0.80333   0.96978

 Mulliken charges:
               1
     1  Cl  -0.643895
     2  C   -0.413848
     3  H    0.233993
     4  H    0.233862
     5  H    0.233755
     6  Cl  -0.643866
 Sum of Mulliken charges =  -1.00000

 Dipole moment (field-independent basis, Debye):
    X=             -0.0003    Y=              0.0025    Z=              0.0034  Tot=              0.0042
 Quadrupole moment (field-independent basis, Debye-Ang):
   XX=            -71.9609   YY=            -35.5230   ZZ=            -35.5230
   XY=              0.0002   XZ=             -0.0002   YZ=             -0.0000

  Exact polarizability:  96.224   0.000  22.680  -0.000   0.001  22.654
 Approx polarizability: 101.414   0.000  25.088  -0.000  -0.000  25.087

 ******    1 imaginary frequencies (negative Signs) ******

                      1                      2                      3
                      A                      A                      A
 Frequencies --   -414.4562               214.2154               216.9449
 Red. masses --     13.2649                 4.3311                 4.3357
 Frc consts  --      1.3425                 0.1171                 0.1202
 IR Inten    --   1317.4186                15.6210                15.5779

                      4                      5                      6
                      A                      A                      A
 Frequencies --    232.9768              1002.9987              1004.2359
 Red. masses --     34.9617                 1.0124                 1.0124
 Frc consts  --      1.1181                 0.6001                 0.6016
 IR Inten    --      0.0002                 0.0072                 0.0063

                      7                      8                      9
                      A                      A                      A
 Frequencies --   1090.0009              1423.4501              1424.8917
 Red. masses --      1.0437                 1.1046                 1.1045
 Frc consts  --      0.7306                 1.3186                 1.3212
 IR Inten    --    131.0675                 4.6748                 4.6932

                     10                     11                     12
                      A                      A                      A
 Frequencies --   3241.0943              3439.1711              3439.9763
 Red. masses --      1.0078                 1.1241                 1.1240
 Frc consts  --      6.2376                 7.8337                 7.8366
 IR Inten    --      0.0009                 0.7822                 0.7460

 - Thermochemistry -
 -------------------
 Temperature   298.150 Kelvin.  Pressure   1.00000 Atm.
 Atom     1 has atomic number 17 and mass  34.96885

 Molecular mass:    84.96118 amu.
 Principal axes and moments of inertia in atomic units:
                           1         2         3
     Eigenvalues --    12.475191337.484231337.48537
           X            1.00000   0.00000  -0.00000
           Y           -0.00000   0.99972  -0.02353
           Z            0.00000   0.02353   0.99972
 This molecule is an asymmetric top.
 Rotational symmetry number  1.
 Rotational temperatures (Kelvin)      6.94289     0.06476     0.06476
 Rotational constants (GHZ):         144.66638     1.34936     1.34935
    1 imaginary frequencies ignored.
 Zero-point vibrational energy     100067.4 (Joules/Mol)
                                   23.91667 (Kcal/Mol)
 Warning -- explicit consideration of   3 degrees of freedom as
           vibrations may cause significant error
 Vibrational temperatures:    308.21   312.14   335.20  1443.09  1444.87
          (Kelvin)           1568.27  2048.03  2050.10  4663.21  4948.20
                             4949.36

 Zero-point correction=                           0.038114 (Hartree/Particle)
 Thermal correction to Energy=                    0.042643
 Thermal correction to Enthalpy=                  0.043587
 Thermal correction to Gibbs Free Energy=         0.010338
 Sum of electronic and zero-point Energies=           -960.221118
 Sum of electronic and thermal Energies=              -960.216589
 Sum of electronic and thermal Enthalpies=            -960.215645
 Sum of electronic and thermal Free Energies=         -960.248893

                     E (Thermal)             CV                S
                      KCal/Mol        Cal/Mol-Kelvin    Cal/Mol-Kelvin
 Total                   26.759             12.617             69.977
 Electronic               0.000              0.000              0.000
 Translational            0.889              2.981             39.232
 Rotational               0.889              2.981             24.615
 Vibrational             24.981              6.655              6.130
 Vibration     1          0.644              1.819              2.007
 Vibration     2          0.646              1.815              1.984
 Vibration     3          0.654              1.790              1.856

 Optimization completed.
    -- Stationary point found.
 Normal termination of Gaussian 16 at Wed Oct  7 13:30:13 2020.
