 Gaussian 16, Revision A.03,
 Gaussian 16:  ES64L-G16RevA.03 25-Dec-2016

 ----------------------------------------------------------------------
 #P Opt(MaxCyc=100) M062X/6-31G* 5D 7F Integral=UltraFineGrid SCF=(NoSy
 mm,XQC,MaxCyc=120) IOp(1/33=1)
 ----------------------------------------------------------------------

 TstMul:  Mul=     1
 TstMul:  ICh=    -1
 TstMul:  Mul=     1
 Symbolic Z-matrix:
 Charge = -1 Multiplicity = 1

 SCF Done:  E(RM062X) =  -960.276691882     A.U. after   13 cycles
 SCF Done:  E(RM062X) =  -960.276919500     A.U. after   11 cycles
 SCF Done:  E(RM062X) =  -960.277131255     A.U. after   11 cycles
 SCF Done:  E(RM062X) =  -960.277166031     A.U. after   10 cycles
 SCF Done:  E(RM062X) =  -960.277172729     A.U. after    7 cycles
 SCF Done:  E(RM062X) =  -960.277173456     A.U. after    7 cycles
 Optimization completed.
    -- Stationary point found.

                         Standard orientation:
 ---------------------------------------------------------------------
 Center     Atomic      Atomic             Coordinates (Angstroms)
 Number     Number       Type             X           Y           Z
 ---------------------------------------------------------------------
      1         17           0        0.000000    0.000000   -2.338574
      2          6           0        0.000000    0.000000   -0.506226
      3          1           0       -0.000000    1.027613   -0.159666
      4          1           0       -0.889939   -0.513806   -0.159666
      5          1           0        0.889939   -0.513806   -0.159666
      6         17           0        0.000000    0.000000    2.545418
 ---------------------------------------------------------------------

 The electronic state is 1-A1.
 Alpha  occ. eigenvalues -- -102.49462-102.31562 -10.43953  -9.65884  -9.47459
 Alpha  occ. eigenvalues --   -7.38018  -7.37436  -7.37436  -7.19292  -7.19264
 Alpha  occ. eigenvalues --   -7.19264  -0.79955  -0.61552  -0.56148  -0.36022
 Alpha  occ. eigenvalues --   -0.36022  -0.32073  -0.22442  -0.22442  -0.07753
 Alpha  occ. eigenvalues --   -0.07719  -0.07719
 Alpha virt. eigenvalues --    0.22125   0.31260   0.35256   0.35256   0.57716
 Alpha virt. eigenvalues --    0.61094   0.63240   0.63240   0.67682   0.71261
 Alpha virt. eigenvalues --    0.71261   0.77159   0.77922   0.77922   0.99662

 Mulliken charges:
               1
     1  Cl  -0.221621
     2  C   -0.508785
     3  H    0.224090
     4  H    0.224090
     5  H    0.224090
     6  Cl  -0.941864
 Sum of Mulliken charges =  -1.00000

 Dipole moment (field-independent basis, Debye):
    X=             -0.0000    Y=             -0.0000    Z=             -7.9393  Tot=              7.9393
 Quadrupole moment (field-independent basis, Debye-Ang):
   XX=            -35.5765   YY=            -35.5765   ZZ=            -73.9951
   XY=             -0.0000   XZ=              0.0000   YZ=              0.0000

 Normal termination of Gaussian 16 at Wed Oct  7 13:30:03 2020.
