 Gaussian 16, Revision A.03,
 Gaussian 16:  ES64L-G16RevA.03 25-Dec-2016

 ----------------------------------------------------------------------
 #P Opt(MaxCyc=100) M062X/6-31G* 5D 7F Integral=UltraFineGrid SCF=(NoSy
 mm,XQC,MaxCyc=120) IOp(1/33=1)
 ----------------------------------------------------------------------

 TstMul:  Mul=     1
 TstMul:  ICh=     0
 TstMul:  Mul=     1
 Symbolic Z-matrix:
 Charge =  0 Multiplicity = 1

 SCF Done:  E(RM062X) =  -139.669620815     A.U. after   12 cycles
 SCF Done:  E(RM062X) =  -139.669730393     A.U. after    8 cycles
 SCF Done:  E(RM062X) =  -139.669740742     A.U. after    8 cycles
 Optimization completed.
    -- Stationary point found.

                         Standard orientation:
 ---------------------------------------------------------------------
 Center     Atomic      Atomic             Coordinates (Angstroms)
 Number     Number       Type             X           Y           Z
 ---------------------------------------------------------------------
      1          6           0        0.000000    0.000000   -0.626537
      2          9           0        0.000000    0.000000    0.747694
      3          1           0        0.000000    1.031815   -0.990010
      4          1           0        0.893578   -0.515907   -0.990010
      5          1           0       -0.893578   -0.515907   -0.990010
 ---------------------------------------------------------------------

 The electronic state is 1-A1.
 Alpha  occ. eigenvalues --  -25.21701 -10.60611  -1.31710  -0.79074  -0.55887
 Alpha  occ. eigenvalues --   -0.55887  -0.55539  -0.41164  -0.41164
 Alpha virt. eigenvalues --    0.15475   0.19418   0.21631   0.21631   0.59007
 Alpha virt. eigenvalues --    0.59774   0.59774   0.91438   0.91438   0.94447
 Alpha virt. eigenvalues --    1.03355   1.33979   1.35134   1.35134   1.58420

 Mulliken charges:
               1
     1  C   -0.108718
     2  F   -0.354974
     3  H    0.154564
     4  H    0.154564
     5  H    0.154564
 Sum of Mulliken charges =  -0.00000

 Dipole moment (field-independent basis, Debye):
    X=              0.0000    Y=              0.0000    Z=             -1.7641  Tot=              1.7641
 Quadrupole moment (field-independent basis, Debye-Ang):
   XX=            -11.6958   YY=            -11.6958   ZZ=            -12.0166
   XY=             -0.0000   XZ=             -0.0000   YZ=             -0.0000

 Normal termination of Gaussian 16 at Wed Oct  7 13:28:34 2020.
