 Gaussian 16, Revision A.03,
 Gaussian 16:  ES64L-G16RevA.03 25-Dec-2016

 ----------------------------------------------------------------------
 #P Opt(MaxCyc=100) M062X/6-31G* 5D 7F Integral=UltraFineGrid SCF=(NoSy
 mm,XQC,MaxCyc=120) IOp(1/33=1)
 ----------------------------------------------------------------------

 TstMul:  Mul=     1
 TstMul:  ICh=     0
 TstMul:  Mul=     1
 Symbolic Z-matrix:
 Charge =  0 Multiplicity = 1

 SCF Done:  E(RM062X) =  -559.869343262     A.U. after   13 cycles
 SCF Done:  E(RM062X) =  -559.869360103     A.U. after    8 cycles
 SCF Done:  E(RM062X) =  -559.869361155     A.U. after    7 cycles
 Optimization completed.
    -- Stationary point found.

                         Standard orientation:
 ---------------------------------------------------------------------
 Center     Atomic      Atomic             Coordinates (Angstroms)
 Number     Number       Type             X           Y           Z
 ---------------------------------------------------------------------
      1          9           0        0.000000    0.000000   -1.069511
      2         17           0        0.000000    0.000000    0.566212
 ---------------------------------------------------------------------

 The electronic state is 1-SG.
 Alpha  occ. eigenvalues -- -102.72946 -25.29652  -9.88663  -7.61177  -7.59969
 Alpha  occ. eigenvalues --   -7.59969  -1.36994  -0.92953  -0.59574  -0.57115
 Alpha  occ. eigenvalues --   -0.57115  -0.39580  -0.39580
 Alpha virt. eigenvalues --   -0.04938   0.37068   0.44598   0.46728   0.46728
 Alpha virt. eigenvalues --    0.81246   0.81246   0.89086   0.89095   0.99313
 Alpha virt. eigenvalues --    1.33296   1.33462   1.33462   1.80174   1.88806

 Mulliken charges:
               1
     1  F   -0.322438
     2  Cl   0.322438
 Sum of Mulliken charges =  -0.00000

 Dipole moment (field-independent basis, Debye):
    X=              0.0000    Y=             -0.0000    Z=              0.9931  Tot=              0.9931
 Quadrupole moment (field-independent basis, Debye-Ang):
   XX=            -17.1209   YY=            -17.1209   ZZ=            -15.5939
   XY=             -0.0000   XZ=              0.0000   YZ=              0.0000

 Normal termination of Gaussian 16 at Wed Oct  7 13:29:02 2020.
