 Gaussian 16, Revision A.03,

 ----------------------------------------------------------------------
 #P Opt(TS,MaxCyc=50,NoEigenTest,MaxStep=10,AddRedundant) M062X/6-31G*
 5D 7F Integral=UltraFineGrid SCF=(NoSymm,XQC,MaxCyc=120) IOp(1/33=1)
 ----------------------------------------------------------------------

 TstMul:  Mul=     1
 TstMul:  ICh=    -1
 TstMul:  Mul=     1
 Symbolic Z-matrix:
 Charge = -1 Multiplicity = 1

 SCF Done:  E(RM062X) =  -239.416708710     A.U. after   12 cycles
 SCF Done:  E(RM062X) =  -239.417838363     A.U. after   12 cycles
 SCF Done:  E(RM062X) =  -239.418288750     A.U. after   11 cycles
 SCF Done:  E(RM062X) =  -239.418439942     A.U. after   12 cycles
 SCF Done:  E(RM062X) =  -239.418415672     A.U. after   11 cycles
 SCF Done:  E(RM062X) =  -239.418417750     A.U. after    8 cycles
 Optimization completed.
    -- Stationary point found.
 Normal termination of Gaussian 16 at Wed Oct  7 13:30:31 2020.
 Gaussian 16:  ES64L-G16RevA.03 25-Dec-2016

 ----------------------------------------------------------------------
 #P Freq M062X/6-31G* 5D 7F Integral=UltraFineGrid SCF=(NoSymm,XQC,MaxC
 yc=120) IOp(1/33=1) Geom=Check Guess=Read
 ----------------------------------------------------------------------

 TstMul:  Mul=     1
 TstMul:  ICh=    -1
 TstMul:  Mul=     1
 Structure from the checkpoint file:  "MN_39_fch3fts_BH76_M062X_631Gs.chk"
 Charge = -1 Multiplicity = 1

                         Standard orientation:
 ---------------------------------------------------------------------
 Center     Atomic      Atomic             Coordinates (Angstroms)
 Number     Number       Type             X           Y           Z
 ---------------------------------------------------------------------
      1          9           0        1.760069   -0.000101    0.000113
      2          6           0       -0.000078    0.000207   -0.000210
      3          1           0        0.000052   -0.844364    0.672683
      4          1           0        0.000059    1.005318    0.394594
      5          1           0        0.000047   -0.160383   -1.068049
      6          9           0       -1.760034   -0.000101    0.000113
 ---------------------------------------------------------------------

 SCF Done:  E(RM062X) =  -239.418417750     A.U. after    1 cycles

 The electronic state is 1-A.
 Alpha  occ. eigenvalues --  -24.85313 -24.85304 -10.37667  -0.91766  -0.91057
 Alpha  occ. eigenvalues --   -0.53738  -0.28641  -0.28639  -0.21190  -0.13423
 Alpha  occ. eigenvalues --   -0.13423  -0.10849  -0.10848  -0.07730
 Alpha virt. eigenvalues --    0.36943   0.39922   0.42657   0.42659   0.83155
 Alpha virt. eigenvalues --    0.83159   0.89482   1.11540   1.19114   1.19119
 Alpha virt. eigenvalues --    1.39703   1.51260   1.51260   1.67363   1.67366

 Mulliken charges:
               1
     1  F   -0.665573
     2  C   -0.018964
     3  H    0.116698
     4  H    0.116647
     5  H    0.116646
     6  F   -0.665455
 Sum of Mulliken charges =  -1.00000

 Dipole moment (field-independent basis, Debye):
    X=             -0.0013    Y=              0.0007    Z=             -0.0009  Tot=              0.0017
 Quadrupole moment (field-independent basis, Debye-Ang):
   XX=            -37.2418   YY=            -17.7222   ZZ=            -17.7226
   XY=              0.0000   XZ=              0.0000   YZ=              0.0000

  Exact polarizability:  27.347   0.000  15.050   0.000   0.012  15.010
 Approx polarizability:  30.726   0.000  15.482   0.000   0.000  15.480

 ******    1 imaginary frequencies (negative Signs) ******

                      1                      2                      3
                      A                      A                      A
 Frequencies --   -507.4624               377.5625               377.8848
 Red. masses --     11.0708                 4.2890                 4.2827
 Frc consts  --      1.6797                 0.3602                 0.3603
 IR Inten    --    860.0800                19.5533                19.6295

                      4                      5                      6
                      A                      A                      A
 Frequencies --    405.7815              1151.0463              1151.6092
 Red. masses --     18.9410                 1.0221                 1.0221
 Frc consts  --      1.8375                 0.7979                 0.7987
 IR Inten    --      0.0001                 0.0000                 0.0000

                      7                      8                      9
                      A                      A                      A
 Frequencies --   1264.7121              1383.9664              1385.3982
 Red. masses --      1.0814                 1.1268                 1.1262
 Frc consts  --      1.0191                 1.2716                 1.2736
 IR Inten    --      1.1013                 0.7994                 0.8024

                     10                     11                     12
                      A                      A                      A
 Frequencies --   3134.7376              3315.7780              3316.6452
 Red. masses --      1.0080                 1.1284                 1.1282
 Frc consts  --      5.8359                 7.3096                 7.3121
 IR Inten    --      0.0043                70.9291                70.4073

 - Thermochemistry -
 -------------------
 Temperature   298.150 Kelvin.  Pressure   1.00000 Atm.
 Atom     1 has atomic number  9 and mass  18.99840

 Molecular mass:    53.02028 amu.
 Principal axes and moments of inertia in atomic units:
                           1         2         3
     Eigenvalues --    12.59032 426.62945 426.63091
           X            1.00000   0.00000   0.00000
           Y           -0.00000   1.00000   0.00116
           Z           -0.00000  -0.00116   1.00000
 This molecule is an asymmetric top.
 Rotational symmetry number  1.
 Rotational temperatures (Kelvin)      6.87940     0.20302     0.20302
 Rotational constants (GHZ):         143.34352     4.23023     4.23022
    1 imaginary frequencies ignored.
 Zero-point vibrational energy     103268.4 (Joules/Mol)
                                   24.68173 (Kcal/Mol)
 Warning -- explicit consideration of   3 degrees of freedom as
           vibrations may cause significant error
 Vibrational temperatures:    543.23   543.69   583.83  1656.10  1656.91
          (Kelvin)           1819.64  1991.22  1993.28  4510.19  4770.66
                             4771.91

 Zero-point correction=                           0.039333 (Hartree/Particle)
 Thermal correction to Energy=                    0.043202
 Thermal correction to Enthalpy=                  0.044146
 Thermal correction to Gibbs Free Energy=         0.014028
 Sum of electronic and zero-point Energies=           -239.379085
 Sum of electronic and thermal Energies=              -239.375216
 Sum of electronic and thermal Enthalpies=            -239.374272
 Sum of electronic and thermal Free Energies=         -239.404390

                     E (Thermal)             CV                S
                      KCal/Mol        Cal/Mol-Kelvin    Cal/Mol-Kelvin
 Total                   27.110             11.322             63.390
 Electronic               0.000              0.000              0.000
 Translational            0.889              2.981             37.827
 Rotational               0.889              2.981             22.354
 Vibrational             25.332              5.360              3.209
 Vibration     1          0.748              1.518              1.049
 Vibration     2          0.748              1.517              1.048
 Vibration     3          0.771              1.458              0.942

 Optimization completed.
    -- Stationary point found.
 Normal termination of Gaussian 16 at Wed Oct  7 13:31:06 2020.
