 Gaussian 16, Revision A.03,
 Gaussian 16:  ES64L-G16RevA.03 25-Dec-2016

 ----------------------------------------------------------------------
 #P Opt(MaxCyc=100) M062X/6-31G* 5D 7F Integral=UltraFineGrid SCF=(NoSy
 mm,XQC,MaxCyc=120) IOp(1/33=1)
 ----------------------------------------------------------------------

 TstMul:  Mul=     1
 TstMul:  ICh=    -1
 TstMul:  Mul=     1
 Symbolic Z-matrix:
 Charge = -1 Multiplicity = 1

 SCF Done:  E(RM062X) =  -599.815169308     A.U. after   15 cycles
 SCF Done:  E(RM062X) =  -599.816461595     A.U. after   13 cycles
 SCF Done:  E(RM062X) =  -599.818692098     A.U. after   14 cycles
 SCF Done:  E(RM062X) =  -599.819202444     A.U. after   14 cycles
 SCF Done:  E(RM062X) =  -599.821580856     A.U. after   14 cycles
 SCF Done:  E(RM062X) =  -599.842307113     A.U. after   14 cycles
 SCF Done:  E(RM062X) =  -599.876496084     A.U. after   15 cycles
 SCF Done:  E(RM062X) =  -599.889407021     A.U. after   13 cycles
 SCF Done:  E(RM062X) =  -599.898473185     A.U. after   12 cycles
 SCF Done:  E(RM062X) =  -599.899877873     A.U. after   10 cycles
 SCF Done:  E(RM062X) =  -599.901400226     A.U. after   11 cycles
 SCF Done:  E(RM062X) =  -599.901529035     A.U. after   10 cycles
 SCF Done:  E(RM062X) =  -599.901532365     A.U. after    7 cycles
 SCF Done:  E(RM062X) =  -599.901532435     A.U. after    7 cycles
 Optimization completed.
    -- Stationary point found.

                         Standard orientation:
 ---------------------------------------------------------------------
 Center     Atomic      Atomic             Coordinates (Angstroms)
 Number     Number       Type             X           Y           Z
 ---------------------------------------------------------------------
      1         17           0        0.000000    0.000000    1.940075
      2          6           0        0.000000    0.000000   -1.194504
      3          1           0        0.000000    1.025085   -0.823367
      4          1           0        0.887750   -0.512543   -0.823367
      5          1           0       -0.887750   -0.512543   -0.823367
      6          9           0        0.000000    0.000000   -2.593795
 ---------------------------------------------------------------------

 The electronic state is 1-A1.
 Alpha  occ. eigenvalues -- -102.30678 -25.06790 -10.43835  -9.46562  -7.18391
 Alpha  occ. eigenvalues --   -7.18373  -7.18373  -1.16194  -0.62674  -0.55332
 Alpha  occ. eigenvalues --   -0.39892  -0.39892  -0.39669  -0.25677  -0.25677
 Alpha  occ. eigenvalues --   -0.06972  -0.06856  -0.06856
 Alpha virt. eigenvalues --    0.31552   0.36428   0.38198   0.38198   0.67466
 Alpha virt. eigenvalues --    0.74134   0.74134   0.75649   0.78627   0.78627
 Alpha virt. eigenvalues --    0.87845   1.08692   1.08692   1.17996   1.18961

 Mulliken charges:
               1
     1  Cl  -0.958580
     2  C   -0.111602
     3  H    0.160011
     4  H    0.160011
     5  H    0.160011
     6  F   -0.409852
 Sum of Mulliken charges =  -1.00000

 Dipole moment (field-independent basis, Debye):
    X=              0.0000    Y=              0.0000    Z=             -6.3380  Tot=              6.3380
 Quadrupole moment (field-independent basis, Debye-Ang):
   XX=            -27.3521   YY=            -27.3521   ZZ=            -53.7095
   XY=             -0.0000   XZ=             -0.0000   YZ=             -0.0000

 Normal termination of Gaussian 16 at Wed Oct  7 13:32:03 2020.
