 Gaussian 16, Revision A.03,
 Gaussian 16:  ES64L-G16RevA.03 25-Dec-2016

 ----------------------------------------------------------------------
 #P Opt(MaxCyc=100) M062X/6-31G* 5D 7F Integral=UltraFineGrid SCF=(NoSy
 mm,XQC,MaxCyc=120) IOp(1/33=1)
 ----------------------------------------------------------------------

 TstMul:  Mul=     1
 TstMul:  ICh=     0
 TstMul:  Mul=     1
 Symbolic Z-matrix:
 Charge =  0 Multiplicity = 1

 SCF Done:  E(RM062X) =  -113.269170217     A.U. after   11 cycles
 SCF Done:  E(RM062X) =  -113.269176480     A.U. after    7 cycles
 SCF Done:  E(RM062X) =  -113.269176531     A.U. after    6 cycles
 Optimization completed.
    -- Stationary point found.

                         Standard orientation:
 ---------------------------------------------------------------------
 Center     Atomic      Atomic             Coordinates (Angstroms)
 Number     Number       Type             X           Y           Z
 ---------------------------------------------------------------------
      1          8           0        0.000000    0.000000    0.484809
      2          6           0        0.000000    0.000000   -0.646412
 ---------------------------------------------------------------------

 The electronic state is 1-SG.
 Alpha  occ. eigenvalues --  -19.74433 -10.65949  -1.28122  -0.65973  -0.54260
 Alpha  occ. eigenvalues --   -0.54260  -0.43706
 Alpha virt. eigenvalues --    0.04040   0.04040   0.31099   0.57033   0.57033
 Alpha virt. eigenvalues --    0.63309   0.83177   0.91021   0.99939   0.99939
 Alpha virt. eigenvalues --    1.52619   1.52619   1.56275   1.61460   1.61460

 Mulliken charges:
               1
     1  O   -0.182510
     2  C    0.182510
 Sum of Mulliken charges =  -0.00000

 Dipole moment (field-independent basis, Debye):
    X=              0.0000    Y=             -0.0000    Z=              0.0003  Tot=              0.0003
 Quadrupole moment (field-independent basis, Debye-Ang):
   XX=             -9.8776   YY=             -9.8776   ZZ=            -11.8553
   XY=             -0.0000   XZ=              0.0000   YZ=              0.0000

 Normal termination of Gaussian 16 at Wed Oct  7 13:29:08 2020.
