 Gaussian 16, Revision A.03,
 Gaussian 16:  ES64L-G16RevA.03 25-Dec-2016

 ----------------------------------------------------------------------
 #P Opt(MaxCyc=100) M062X/6-31G* 5D 7F Integral=UltraFineGrid SCF=(NoSy
 mm,XQC,MaxCyc=120) IOp(1/33=1)
 ----------------------------------------------------------------------

 TstMul:  Mul=     1
 TstMul:  ICh=     0
 TstMul:  Mul=     1
 Symbolic Z-matrix:
 Charge =  0 Multiplicity = 1

 SCF Done:  E(RM062X) =  -199.420896091     A.U. after   10 cycles
 SCF Done:  E(RM062X) =  -199.421204436     A.U. after    7 cycles
 Optimization completed.
    -- Stationary point found.

                         Standard orientation:
 ---------------------------------------------------------------------
 Center     Atomic      Atomic             Coordinates (Angstroms)
 Number     Number       Type             X           Y           Z
 ---------------------------------------------------------------------
      1          9           0        0.000000    0.000000    0.688132
      2          9           0        0.000000    0.000000   -0.688132
 ---------------------------------------------------------------------

 The electronic state is 1-SGG.
 Alpha  occ. eigenvalues --  -25.35045 -25.35036  -1.50478  -1.22593  -0.66798
 Alpha  occ. eigenvalues --   -0.63973  -0.63973  -0.49117  -0.49117
 Alpha virt. eigenvalues --   -0.02541   1.15827   1.15827   1.16238   1.30723
 Alpha virt. eigenvalues --    1.33166   1.33166   1.33832   1.60171   1.60171
 Alpha virt. eigenvalues --    1.75121   1.75123   1.83090   2.00805   2.00808

 Mulliken charges:
               1
     1  F   -0.000000
     2  F   -0.000000
 Sum of Mulliken charges =  -0.00000

 Dipole moment (field-independent basis, Debye):
    X=             -0.0000    Y=              0.0000    Z=              0.0000  Tot=              0.0000
 Quadrupole moment (field-independent basis, Debye-Ang):
   XX=             -9.2704   YY=             -9.2704   ZZ=             -8.4536
   XY=              0.0000   XZ=              0.0000   YZ=              0.0000

 Normal termination of Gaussian 16 at Wed Oct  7 13:29:06 2020.
