 Gaussian 16, Revision A.03,
 Gaussian 16:  ES64L-G16RevA.03 25-Dec-2016

 ----------------------------------------------------------------------
 #P Opt(MaxCyc=100) M062X/6-31G* 5D 7F Integral=UltraFineGrid SCF=(NoSy
 mm,XQC,MaxCyc=120) IOp(1/33=1)
 ----------------------------------------------------------------------

 TstMul:  Mul=     1
 TstMul:  ICh=    -1
 TstMul:  Mul=     1
 Symbolic Z-matrix:
 Charge = -1 Multiplicity = 1

 SCF Done:  E(RM062X) =  -599.901120338     A.U. after   12 cycles
 SCF Done:  E(RM062X) =  -599.901354194     A.U. after   10 cycles
 SCF Done:  E(RM062X) =  -599.901495695     A.U. after   10 cycles
 SCF Done:  E(RM062X) =  -599.901521516     A.U. after    9 cycles
 SCF Done:  E(RM062X) =  -599.901531392     A.U. after    8 cycles
 SCF Done:  E(RM062X) =  -599.901532229     A.U. after    7 cycles
 Optimization completed.
    -- Stationary point found.

                         Standard orientation:
 ---------------------------------------------------------------------
 Center     Atomic      Atomic             Coordinates (Angstroms)
 Number     Number       Type             X           Y           Z
 ---------------------------------------------------------------------
      1          9           0        0.000000    0.000000   -2.594121
      2          6           0        0.000000    0.000000   -1.195001
      3          1           0       -0.000000    1.024737   -0.823295
      4          1           0       -0.887448   -0.512369   -0.823295
      5          1           0        0.887448   -0.512369   -0.823295
      6         17           0        0.000000    0.000000    1.940410
 ---------------------------------------------------------------------

 The electronic state is 1-A1.
 Alpha  occ. eigenvalues -- -102.30679 -25.06801 -10.43831  -9.46562  -7.18391
 Alpha  occ. eigenvalues --   -7.18374  -7.18374  -1.16207  -0.62682  -0.55332
 Alpha  occ. eigenvalues --   -0.39898  -0.39898  -0.39686  -0.25679  -0.25679
 Alpha  occ. eigenvalues --   -0.06972  -0.06856  -0.06856
 Alpha virt. eigenvalues --    0.31559   0.36425   0.38204   0.38204   0.67467
 Alpha virt. eigenvalues --    0.74131   0.74131   0.75642   0.78622   0.78622
 Alpha virt. eigenvalues --    0.87847   1.08694   1.08694   1.18030   1.18977

 Mulliken charges:
               1
     1  F   -0.409674
     2  C   -0.111832
     3  H    0.160033
     4  H    0.160033
     5  H    0.160033
     6  Cl  -0.958593
 Sum of Mulliken charges =  -1.00000

 Dipole moment (field-independent basis, Debye):
    X=             -0.0000    Y=             -0.0000    Z=             -6.3403  Tot=              6.3403
 Quadrupole moment (field-independent basis, Debye-Ang):
   XX=            -27.3531   YY=            -27.3531   ZZ=            -53.7116
   XY=             -0.0000   XZ=              0.0000   YZ=              0.0000

 Normal termination of Gaussian 16 at Wed Oct  7 13:31:25 2020.
