 Gaussian 16, Revision A.03,
 Gaussian 16:  ES64L-G16RevA.03 25-Dec-2016

 ----------------------------------------------------------------------
 #P Opt(MaxCyc=100) M062X/6-31G* 5D 7F Integral=UltraFineGrid SCF=(NoSy
 mm,XQC,MaxCyc=120) IOp(1/33=1)
 ----------------------------------------------------------------------

 TstMul:  Mul=     1
 TstMul:  ICh=    -1
 TstMul:  Mul=     1
 Symbolic Z-matrix:
 Charge = -1 Multiplicity = 1

 SCF Done:  E(RM062X) =  -239.434748895     A.U. after   14 cycles
 SCF Done:  E(RM062X) =  -239.435732314     A.U. after   11 cycles
 SCF Done:  E(RM062X) =  -239.436886342     A.U. after   12 cycles
 SCF Done:  E(RM062X) =  -239.436925534     A.U. after    9 cycles
 SCF Done:  E(RM062X) =  -239.436943023     A.U. after    9 cycles
 Optimization completed.
    -- Stationary point found.

                         Standard orientation:
 ---------------------------------------------------------------------
 Center     Atomic      Atomic             Coordinates (Angstroms)
 Number     Number       Type             X           Y           Z
 ---------------------------------------------------------------------
      1          9           0        0.000000    0.000000   -1.789521
      2          6           0        0.000000    0.000000   -0.367574
      3          1           0       -0.000000    1.017680    0.010577
      4          1           0       -0.881337   -0.508840    0.010577
      5          1           0        0.881337   -0.508840    0.010577
      6          9           0        0.000000    0.000000    2.031045
 ---------------------------------------------------------------------

 The electronic state is 1-A1.
 Alpha  occ. eigenvalues --  -25.01870 -24.72426 -10.38584  -1.10836  -0.77524
 Alpha  occ. eigenvalues --   -0.57285  -0.34673  -0.34673  -0.34404  -0.21083
 Alpha  occ. eigenvalues --   -0.21083  -0.00978  -0.00978  -0.00880
 Alpha virt. eigenvalues --    0.36169   0.42377   0.43040   0.43040   0.79741
 Alpha virt. eigenvalues --    0.79741   0.82963   1.13600   1.13600   1.19969
 Alpha virt. eigenvalues --    1.29166   1.52161   1.53283   1.53283   1.71223

 Mulliken charges:
               1
     1  F   -0.440799
     2  C   -0.117093
     3  H    0.138256
     4  H    0.138256
     5  H    0.138256
     6  F   -0.856874
 Sum of Mulliken charges =  -1.00000

 Dipole moment (field-independent basis, Debye):
    X=             -0.0000    Y=              0.0000    Z=             -5.6149  Tot=              5.6149
 Quadrupole moment (field-independent basis, Debye-Ang):
   XX=            -17.7788   YY=            -17.7788   ZZ=            -40.7102
   XY=             -0.0000   XZ=             -0.0000   YZ=             -0.0000

 Normal termination of Gaussian 16 at Wed Oct  7 13:29:57 2020.
