 Gaussian 16, Revision A.03,
 Gaussian 16:  ES64L-G16RevA.03 25-Dec-2016

 ----------------------------------------------------------------------
 #P M062X/6-31G* 5D 7F Integral=UltraFineGrid SCF=(NoSymm,XQC,MaxCyc=12
 0) IOp(1/33=1) Stable=Opt
 ----------------------------------------------------------------------

 TstMul:  Mul=     2
 TstMul:  ICh=     0
 TstMul:  Mul=     2
 Symbolic Z-matrix:
 Charge =  0 Multiplicity = 2

                         Standard orientation:
 ---------------------------------------------------------------------
 Center     Atomic      Atomic             Coordinates (Angstroms)
 Number     Number       Type             X           Y           Z
 ---------------------------------------------------------------------
      1         17           0        0.000000    0.000000    0.000000
 ---------------------------------------------------------------------

 SCF Done:  E(UM062X) =  -460.095983817     A.U. after   11 cycles

 Unable to determine electronic state:  an orbital has unidentified symmetry.
 Alpha  occ. eigenvalues -- -102.69608  -9.85333  -7.58927  -7.56699  -7.56699
 Alpha  occ. eigenvalues --   -0.94002  -0.46684  -0.41761  -0.41761
 Alpha virt. eigenvalues --    0.37544   0.45498   0.47815   0.47815   0.85324
 Alpha virt. eigenvalues --    0.86661   0.86661   0.90767   0.90767
  Beta  occ. eigenvalues -- -102.68549  -9.85030  -7.56384  -7.56384  -7.56132
  Beta  occ. eigenvalues --   -0.87410  -0.39655  -0.39655
  Beta virt. eigenvalues --   -0.18446   0.38008   0.46283   0.47950   0.47950
  Beta virt. eigenvalues --    0.92080   0.92080   0.92754   0.92754   0.95116

 Mulliken charges and spin densities:
               1          2
     1  Cl   0.000000   1.000000
 Sum of Mulliken charges =   0.00000   1.00000

 Dipole moment (field-independent basis, Debye):
    X=             -0.0000    Y=             -0.0000    Z=             -0.0000  Tot=              0.0000
 Quadrupole moment (field-independent basis, Debye-Ang):
   XX=            -12.9544   YY=            -12.9544   ZZ=            -10.7409
   XY=              0.0000   XZ=              0.0000   YZ=             -0.0031

 Normal termination of Gaussian 16 at Wed Oct  7 13:28:43 2020.
