 Gaussian 16, Revision A.03,
 Gaussian 16:  ES64L-G16RevA.03 25-Dec-2016

 ----------------------------------------------------------------------
 #P Opt(MaxCyc=100) M062X/6-31G* 5D 7F Integral=UltraFineGrid SCF=(NoSy
 mm,XQC,MaxCyc=120) IOp(1/33=1)
 ----------------------------------------------------------------------

 TstMul:  Mul=     1
 TstMul:  ICh=     0
 TstMul:  Mul=     1
 Symbolic Z-matrix:
 Charge =  0 Multiplicity = 1

 SCF Done:  E(RM062X) =  -93.3820822694     A.U. after   12 cycles
 SCF Done:  E(RM062X) =  -93.3820986799     A.U. after    8 cycles
 Optimization completed.
    -- Stationary point found.

                         Standard orientation:
 ---------------------------------------------------------------------
 Center     Atomic      Atomic             Coordinates (Angstroms)
 Number     Number       Type             X           Y           Z
 ---------------------------------------------------------------------
      1          6           0        0.000000    0.000000   -0.499344
      2          7           0        0.000000    0.000000    0.652267
      3          1           0        0.000000    0.000000   -1.569808
 ---------------------------------------------------------------------

 The electronic state is 1-SG.
 Alpha  occ. eigenvalues --  -14.78612 -10.59660  -1.02394  -0.68101  -0.45427
 Alpha  occ. eigenvalues --   -0.42407  -0.42407
 Alpha virt. eigenvalues --    0.07747   0.07747   0.13584   0.32621   0.57983
 Alpha virt. eigenvalues --    0.57983   0.70088   0.75064   0.84174   0.84174
 Alpha virt. eigenvalues --    0.87878   1.18918   1.52313   1.55175   1.55175

 Mulliken charges:
               1
     1  C    0.000170
     2  N   -0.273455
     3  H    0.273284
 Sum of Mulliken charges =  -0.00000

 Dipole moment (field-independent basis, Debye):
    X=              0.0000    Y=              0.0000    Z=             -2.9331  Tot=              2.9331
 Quadrupole moment (field-independent basis, Debye-Ang):
   XX=            -11.4445   YY=            -11.4445   ZZ=             -9.4508
   XY=             -0.0000   XZ=              0.0000   YZ=             -0.0000

 Normal termination of Gaussian 16 at Wed Oct  7 13:29:39 2020.
