 Gaussian 16, Revision A.03,
 Gaussian 16:  ES64L-G16RevA.03 25-Dec-2016

 ----------------------------------------------------------------------
 #P M062X/6-31G* 5D 7F Integral=UltraFineGrid SCF=(NoSymm,XQC,MaxCyc=12
 0) IOp(1/33=1) Stable=Opt
 ----------------------------------------------------------------------

 TstMul:  Mul=     2
 TstMul:  ICh=     0
 TstMul:  Mul=     2
 Symbolic Z-matrix:
 Charge =  0 Multiplicity = 2

                         Standard orientation:
 ---------------------------------------------------------------------
 Center     Atomic      Atomic             Coordinates (Angstroms)
 Number     Number       Type             X           Y           Z
 ---------------------------------------------------------------------
      1          9           0        0.000000    0.000000    0.000000
 ---------------------------------------------------------------------

 SCF Done:  E(UM062X) =  -99.6815664550     A.U. after   10 cycles

 Unable to determine electronic state:  an orbital has unidentified symmetry.
 Alpha  occ. eigenvalues --  -25.32701  -1.35101  -0.63312  -0.55358  -0.55358
 Alpha virt. eigenvalues --    1.17313   1.22826   1.22826   1.36928   1.83997
 Alpha virt. eigenvalues --    1.85506   1.85506   1.89578   1.89578
  Beta  occ. eigenvalues --  -25.30390  -1.24909  -0.51545  -0.51545
  Beta virt. eigenvalues --   -0.13630   1.24337   1.24337   1.27369   1.40256
  Beta virt. eigenvalues --    1.90131   1.90131   1.90140   1.90140   1.91006

 Mulliken charges and spin densities:
               1          2
     1  F   -0.000000   1.000000
 Sum of Mulliken charges =  -0.00000   1.00000

 Dipole moment (field-independent basis, Debye):
    X=              0.0000    Y=             -0.0000    Z=             -0.0000  Tot=              0.0000
 Quadrupole moment (field-independent basis, Debye-Ang):
   XX=             -4.7143   YY=             -4.7143   ZZ=             -3.8974
   XY=             -0.0000   XZ=             -0.0000   YZ=              0.0057

 Normal termination of Gaussian 16 at Wed Oct  7 13:28:59 2020.
