 Gaussian 16, Revision A.03,

 ----------------------------------------------------------------------
 #P Opt(TS,MaxCyc=50,NoEigenTest,MaxStep=10,AddRedundant) M062X/6-31G*
 5D 7F Integral=UltraFineGrid SCF=(NoSymm,XQC,MaxCyc=120) IOp(1/33=1)
 ----------------------------------------------------------------------

 TstMul:  Mul=     1
 TstMul:  ICh=     0
 TstMul:  Mul=     1
 Symbolic Z-matrix:
 Charge =  0 Multiplicity = 1

 SCF Done:  E(RM062X) =  -93.3031750765     A.U. after   14 cycles
 SCF Done:  E(RM062X) =  -93.3031146172     A.U. after    9 cycles
 SCF Done:  E(RM062X) =  -93.3032662704     A.U. after   13 cycles
 SCF Done:  E(RM062X) =  -93.3029750279     A.U. after   13 cycles
 SCF Done:  E(RM062X) =  -93.3029761912     A.U. after    7 cycles
 Optimization completed.
    -- Stationary point found.
 Normal termination of Gaussian 16 at Wed Oct  7 13:30:10 2020.
 Gaussian 16:  ES64L-G16RevA.03 25-Dec-2016

 ----------------------------------------------------------------------
 #P Freq M062X/6-31G* 5D 7F Integral=UltraFineGrid SCF=(NoSymm,XQC,MaxC
 yc=120) IOp(1/33=1) Geom=Check Guess=Read
 ----------------------------------------------------------------------

 TstMul:  Mul=     1
 TstMul:  ICh=     0
 TstMul:  Mul=     1
 Structure from the checkpoint file:  "MN_49_hcnts_BH76_M062X_631Gs.chk"
 Charge =  0 Multiplicity = 1

                         Standard orientation:
 ---------------------------------------------------------------------
 Center     Atomic      Atomic             Coordinates (Angstroms)
 Number     Number       Type             X           Y           Z
 ---------------------------------------------------------------------
      1          6           0        0.080817    0.613922    0.000000
      2          7           0        0.080817   -0.569433    0.000000
      3          1           0       -1.050621    0.302500    0.000000
 ---------------------------------------------------------------------

 SCF Done:  E(RM062X) =  -93.3029761912     A.U. after    1 cycles

 The electronic state is 1-A'.
 Alpha  occ. eigenvalues --  -14.83226 -10.59931  -1.08778  -0.59765  -0.51713
 Alpha  occ. eigenvalues --   -0.44779  -0.39720
 Alpha virt. eigenvalues --   -0.00873   0.06781   0.12315   0.35846   0.58040
 Alpha virt. eigenvalues --    0.58255   0.62904   0.72586   0.78133   0.81082
 Alpha virt. eigenvalues --    0.83012   0.91585   1.30806   1.51636   1.55124

 Mulliken charges:
               1
     1  C   -0.059346
     2  N   -0.222568
     3  H    0.281914
 Sum of Mulliken charges =   0.00000

 Dipole moment (field-independent basis, Debye):
    X=             -1.3375    Y=              0.2471    Z=              0.0000  Tot=              1.3601
 Quadrupole moment (field-independent basis, Debye-Ang):
   XX=             -9.4619   YY=            -13.9630   ZZ=            -11.8347
   XY=             -0.4048   XZ=              0.0000   YZ=              0.0000

  Exact polarizability:  12.782   0.191  17.703  -0.000   0.000   8.429
 Approx polarizability:  15.730   0.805  28.046   0.000   0.000   9.902

 ******    1 imaginary frequencies (negative Signs) ******

                      1                      2                      3
                     A'                     A'                     A'
 Frequencies --  -1202.4796              2136.7665              2711.2532
 Red. masses --      1.1690                12.1152                 1.0612
 Frc consts  --      0.9959                32.5908                 4.5960
 IR Inten    --     93.6088                 6.4702               135.7441

 - Thermochemistry -
 -------------------
 Temperature   298.150 Kelvin.  Pressure   1.00000 Atm.
 Atom     1 has atomic number  6 and mass  12.00000

 Molecular mass:    27.01090 amu.
 Principal axes and moments of inertia in atomic units:
                           1         2         3
     Eigenvalues --     4.37774  32.74073  37.11846
           X           -0.04508   0.99898   0.00000
           Y            0.99898   0.04508   0.00000
           Z            0.00000   0.00000   1.00000
 This molecule is an asymmetric top.
 Rotational symmetry number  1.
 Rotational temperatures (Kelvin)     19.78510     2.64545     2.33345
 Rotational constants (GHZ):         412.25455    55.12221    48.62112
    1 imaginary frequencies ignored.
 Zero-point vibrational energy      28997.6 (Joules/Mol)
                                    6.93059 (Kcal/Mol)
 Vibrational temperatures:   3074.33  3900.89
          (Kelvin)

 Zero-point correction=                           0.011045 (Hartree/Particle)
 Thermal correction to Energy=                    0.013878
 Thermal correction to Enthalpy=                  0.014822
 Thermal correction to Gibbs Free Energy=        -0.009954
 Sum of electronic and zero-point Energies=            -93.291932
 Sum of electronic and thermal Energies=               -93.289099
 Sum of electronic and thermal Enthalpies=             -93.288155
 Sum of electronic and thermal Free Energies=          -93.312930

                     E (Thermal)             CV                S
                      KCal/Mol        Cal/Mol-Kelvin    Cal/Mol-Kelvin
 Total                    8.708              5.969             52.144
 Electronic               0.000              0.000              0.000
 Translational            0.889              2.981             35.816
 Rotational               0.889              2.981             16.327
 Vibrational              6.931              0.008              0.001

 Optimization completed.
    -- Stationary point found.
 Normal termination of Gaussian 16 at Wed Oct  7 13:30:32 2020.
