 Gaussian 16, Revision A.03,

 ----------------------------------------------------------------------
 #P Opt(TS,MaxCyc=50,NoEigenTest,MaxStep=10,AddRedundant) M062X/6-31G*
 5D 7F Integral=UltraFineGrid SCF=(NoSymm,XQC,MaxCyc=120) IOp(1/33=1)
 ----------------------------------------------------------------------

 TstMul:  Mul=     2
 TstMul:  ICh=     0
 TstMul:  Mul=     2
 Symbolic Z-matrix:
 Charge =  0 Multiplicity = 2

 SCF Done:  E(UM062X) =  -461.217921384     A.U. after   13 cycles
 SCF Done:  E(UM062X) =  -461.218088567     A.U. after   12 cycles
 SCF Done:  E(UM062X) =  -461.218102032     A.U. after    7 cycles
 Optimization completed.
    -- Stationary point found.

 1\1\GINC-NODE53\FTS\UM062X\6-31G(d)\Cl1H2(2)\RPEVERATI\07-Oct-2020\0\\
 #P Opt(TS,MaxCyc=50,NoEigenTest,MaxStep=10,AddRedundant) M062X/6-31G*
 5D 7F Integral=UltraFineGrid SCF=(NoSymm,XQC,MaxCyc=120) IOp(1/33=1)\\
 TS search on BH76.\\0,2\H,0.,0.,1.5054483886\Cl,0.,0.,0.\H,0.,0.,-1.50
 54483886\\Version=ES64L-G16RevA.03\State=2-SGG\HF=-461.218102\S2=0.768
 76\S2-1=0.\S2A=0.750013\RMSD=3.765e-09\RMSF=2.915e-05\Dipole=0.,0.,0.\
 Quadrupole=-0.8295348,-0.8295348,1.6590695,0.,0.,0.\PG=D*H [O(Cl1),C*(
 H1.H1)]\\@

 Normal termination of Gaussian 16 at Wed Oct  7 13:29:46 2020.
 Gaussian 16:  ES64L-G16RevA.03 25-Dec-2016

 ----------------------------------------------------------------------
 #P Freq M062X/6-31G* 5D 7F Integral=UltraFineGrid SCF=(NoSymm,XQC,MaxC
 yc=120) IOp(1/33=1) Geom=Check Guess=Read
 ----------------------------------------------------------------------

 TstMul:  Mul=     2
 TstMul:  ICh=     0
 TstMul:  Mul=     2
 Structure from the checkpoint file:  "MN_45_hclhts_BH76_M062X_631Gs.chk"
 Charge =  0 Multiplicity = 2

                         Standard orientation:
 ---------------------------------------------------------------------
 Center     Atomic      Atomic             Coordinates (Angstroms)
 Number     Number       Type             X           Y           Z
 ---------------------------------------------------------------------
      1          1           0        0.000000    0.000000    1.505448
      2         17           0        0.000000    0.000000    0.000000
      3          1           0        0.000000    0.000000   -1.505448
 ---------------------------------------------------------------------

 SCF Done:  E(UM062X) =  -461.218102032     A.U. after    1 cycles

 The electronic state is 2-SGG.
 Alpha  occ. eigenvalues -- -102.66941  -9.83340  -7.55343  -7.54670  -7.54670
 Alpha  occ. eigenvalues --   -0.94753  -0.59840  -0.40702  -0.40702  -0.29575
 Alpha virt. eigenvalues --    0.06202   0.43532   0.47491   0.47491   0.67186
 Alpha virt. eigenvalues --    0.67913   0.74710   0.89214   0.89214   0.92565
 Alpha virt. eigenvalues --    0.92568   1.13037
  Beta  occ. eigenvalues -- -102.66912  -9.83110  -7.55707  -7.54586  -7.54586
  Beta  occ. eigenvalues --   -0.93480  -0.54914  -0.40115  -0.40115
  Beta virt. eigenvalues --   -0.08210   0.08822   0.43143   0.47421   0.47421
  Beta virt. eigenvalues --    0.63803   0.66876   0.78669   0.88921   0.88921
  Beta virt. eigenvalues --    0.92881   0.92884   1.16043

 Mulliken charges and spin densities:
               1          2
     1  H    0.123394   0.561337
     2  Cl  -0.246788  -0.122674
     3  H    0.123394   0.561337
 Sum of Mulliken charges =  -0.00000   1.00000

 Dipole moment (field-independent basis, Debye):
    X=              0.0000    Y=             -0.0000    Z=             -0.0000  Tot=              0.0000
 Quadrupole moment (field-independent basis, Debye-Ang):
   XX=            -15.2314   YY=            -15.2314   ZZ=            -11.8842
   XY=              0.0000   XZ=             -0.0000   YZ=              0.0000

  Exact polarizability:   6.374   0.000   6.374  -0.000  -0.000  38.145
 Approx polarizability:   6.868   0.000   6.868  -0.000  -0.000  45.489

 ******    1 imaginary frequencies (negative Signs) ******

                      1                      2                      3
                     SGU                    PIU                    PIU
 Frequencies --  -1529.6889               238.7143               238.7143
 Red. masses --      1.0641                 1.0641                 1.0641
 Frc consts  --      1.4671                 0.0357                 0.0357
 IR Inten    --   1302.6166                40.9325                40.9325

                      4
                     SGG
 Frequencies --   1805.5914
 Red. masses --      1.0078
 Frc consts  --      1.9359
 IR Inten    --      0.0000

 - Thermochemistry -
 -------------------
 Temperature   298.150 Kelvin.  Pressure   1.00000 Atm.
 Atom     1 has atomic number  1 and mass   1.00783

 Molecular mass:    36.98450 amu.
 Principal axes and moments of inertia in atomic units:
                           1         2         3
     Eigenvalues --     0.00000  16.31340  16.31340
           X           -0.00000   1.00000   0.00000
           Y            0.00000   0.00000   1.00000
           Z            1.00000   0.00000   0.00000
 This molecule is a prolate symmetric top.
 Rotational symmetry number  2.
 Rotational temperature (Kelvin)      5.30937
 Rotational constant (GHZ):         110.629339
    1 imaginary frequencies ignored.
 Zero-point vibrational energy      13655.5 (Joules/Mol)
                                    3.26374 (Kcal/Mol)
 Warning -- explicit consideration of   2 degrees of freedom as
           vibrations may cause significant error
 Vibrational temperatures:    343.46   343.46  2597.84
          (Kelvin)

 Zero-point correction=                           0.005201 (Hartree/Particle)
 Thermal correction to Energy=                    0.008568
 Thermal correction to Enthalpy=                  0.009512
 Thermal correction to Gibbs Free Energy=        -0.014422
 Sum of electronic and zero-point Energies=           -461.212901
 Sum of electronic and thermal Energies=              -461.209534
 Sum of electronic and thermal Enthalpies=            -461.208590
 Sum of electronic and thermal Free Energies=         -461.232524

                     E (Thermal)             CV                S
                      KCal/Mol        Cal/Mol-Kelvin    Cal/Mol-Kelvin
 Total                    5.376              8.555             50.373
 Electronic               0.000              0.000              1.377
 Translational            0.889              2.981             36.753
 Rotational               0.592              1.987              8.614
 Vibrational              3.895              3.587              3.628
 Vibration     1          0.657              1.781              1.812
 Vibration     2          0.657              1.781              1.812

 Optimization completed.
    -- Stationary point found.
 Normal termination of Gaussian 16 at Wed Oct  7 13:30:12 2020.
