 Gaussian 16, Revision A.03,
 Gaussian 16:  ES64L-G16RevA.03 25-Dec-2016

 ----------------------------------------------------------------------
 #P Opt(MaxCyc=100) M062X/6-31G* 5D 7F Integral=UltraFineGrid SCF=(NoSy
 mm,XQC,MaxCyc=120) IOp(1/33=1)
 ----------------------------------------------------------------------

 TstMul:  Mul=     1
 TstMul:  ICh=     0
 TstMul:  Mul=     1
 Symbolic Z-matrix:
 Charge =  0 Multiplicity = 1

 SCF Done:  E(RM062X) =  -76.3720818926     A.U. after   12 cycles
 SCF Done:  E(RM062X) =  -76.3722211411     A.U. after    8 cycles
 SCF Done:  E(RM062X) =  -76.3722242605     A.U. after    7 cycles
 Optimization completed.
    -- Stationary point found.

                         Standard orientation:
 ---------------------------------------------------------------------
 Center     Atomic      Atomic             Coordinates (Angstroms)
 Number     Number       Type             X           Y           Z
 ---------------------------------------------------------------------
      1          8           0       -0.000000    0.000000    0.118337
      2          1           0       -0.000000    0.763023   -0.473346
      3          1           0       -0.000000   -0.763023   -0.473346
 ---------------------------------------------------------------------

 The electronic state is 1-A1.
 Alpha  occ. eigenvalues --  -19.61916  -1.11492  -0.59175  -0.45125  -0.37503
 Alpha virt. eigenvalues --    0.11840   0.20258   0.84187   0.94305   0.97436
 Alpha virt. eigenvalues --    1.00631   1.14797   1.43744   1.79048   1.80618
 Alpha virt. eigenvalues --    1.84043   2.35015   2.64174

 Mulliken charges:
               1
     1  O   -0.831813
     2  H    0.415906
     3  H    0.415906
 Sum of Mulliken charges =   0.00000

 Dipole moment (field-independent basis, Debye):
    X=             -0.0000    Y=             -0.0000    Z=             -2.1417  Tot=              2.1417
 Quadrupole moment (field-independent basis, Debye-Ang):
   XX=             -7.2316   YY=             -4.1848   ZZ=             -5.9816
   XY=              0.0000   XZ=              0.0000   YZ=             -0.0000

 Normal termination of Gaussian 16 at Wed Oct  7 13:29:39 2020.
