 Gaussian 16, Revision A.03,
 Gaussian 16:  ES64L-G16RevA.03 25-Dec-2016

 ----------------------------------------------------------------------
 #P Opt(MaxCyc=100) M062X/6-31G* 5D 7F Integral=UltraFineGrid SCF=(NoSy
 mm,XQC,MaxCyc=120) IOp(1/33=1)
 ----------------------------------------------------------------------

 TstMul:  Mul=     2
 TstMul:  ICh=     0
 TstMul:  Mul=     2
 Symbolic Z-matrix:
 Charge =  0 Multiplicity = 2

 SCF Done:  E(UM062X) =  -109.977093119     A.U. after   17 cycles
 SCF Done:  E(UM062X) =  -109.977181072     A.U. after   12 cycles
 SCF Done:  E(UM062X) =  -109.977189643     A.U. after   11 cycles
 Optimization completed.
    -- Stationary point found.

                         Standard orientation:
 ---------------------------------------------------------------------
 Center     Atomic      Atomic             Coordinates (Angstroms)
 Number     Number       Type             X           Y           Z
 ---------------------------------------------------------------------
      1          7           0       -0.062759    0.657698    0.000000
      2          7           0       -0.062759   -0.515428    0.000000
      3          1           0        0.878624   -0.995886    0.000000
 ---------------------------------------------------------------------

 The electronic state is 2-A'.
 Alpha  occ. eigenvalues --  -14.84281 -14.83392  -1.18810  -0.76207  -0.56793
 Alpha  occ. eigenvalues --   -0.49618  -0.49603  -0.27112
 Alpha virt. eigenvalues --    0.01553   0.13633   0.43709   0.67570   0.69339
 Alpha virt. eigenvalues --    0.71880   0.75615   0.82142   0.83251   0.86966
 Alpha virt. eigenvalues --    1.00585   1.30975   1.52583   1.54644   1.57286

  Beta  occ. eigenvalues --  -14.83994 -14.82329  -1.16501  -0.72884  -0.51236
  Beta  occ. eigenvalues --   -0.48146  -0.45243
  Beta virt. eigenvalues --   -0.01360   0.03481   0.13155   0.44346   0.67645
  Beta virt. eigenvalues --    0.69564   0.73791   0.79969   0.82704   0.84807
  Beta virt. eigenvalues --    0.88699   0.99801   1.32015   1.53764   1.57190

 Mulliken charges and spin densities:
               1          2
     1  N   -0.075165   0.759621
     2  N   -0.260532   0.087404
     3  H    0.335698   0.152975
 Sum of Mulliken charges =   0.00000   1.00000

 Dipole moment (field-independent basis, Debye):
    X=              1.4940    Y=             -1.2996    Z=              0.0000  Tot=              1.9802
 Quadrupole moment (field-independent basis, Debye-Ang):
   XX=            -10.6621   YY=            -11.8501   ZZ=            -11.0499
   XY=             -1.4734   XZ=              0.0000   YZ=              0.0000

 1\1\GINC-NODE61\FOpt\UM062X\6-31G(d)\H1N2(2)\RPEVERATI\07-Oct-2020\0\\
 #P Opt(MaxCyc=100) M062X/6-31G* 5D 7F Integral=UltraFineGrid SCF=(NoSy
 mm,XQC,MaxCyc=120) IOp(1/33=1)\\TS search on BH76.\\0,2\N,-0.065704542
 1,0.6601109023,0.\N,-0.0636111651,-0.5130132781,0.\H,0.8786274627,-0.9
 917903967,0.\\Version=ES64L-G16RevA.03\State=2-A'\HF=-109.9771896\S2=0
 .755929\S2-1=0.\S2A=0.750024\RMSD=5.739e-09\RMSF=4.792e-05\Dipole=0.58
 87117,-0.51024,0.\Quadrupole=0.3944483,-0.4966356,0.1021873,-1.0938213
 ,0.,0.\PG=CS [SG(H1N2)]\\@

 Normal termination of Gaussian 16 at Wed Oct  7 13:30:39 2020.
