 Gaussian 16, Revision A.03,

 ----------------------------------------------------------------------
 #P Opt(TS,MaxCyc=50,NoEigenTest,MaxStep=10,AddRedundant) M062X/6-31G*
 5D 7F Integral=UltraFineGrid SCF=(NoSymm,XQC,MaxCyc=120) IOp(1/33=1)
 ----------------------------------------------------------------------

 TstMul:  Mul=     2
 TstMul:  ICh=     0
 TstMul:  Mul=     2
 Symbolic Z-matrix:
 Charge =  0 Multiplicity = 2

 SCF Done:  E(UM062X) =  -140.109179421     A.U. after   17 cycles
 SCF Done:  E(UM062X) =  -140.109299325     A.U. after   15 cycles
 SCF Done:  E(UM062X) =  -140.109200211     A.U. after   17 cycles
 SCF Done:  E(UM062X) =  -140.109242606     A.U. after   11 cycles
 SCF Done:  E(UM062X) =  -140.109266107     A.U. after   15 cycles
 SCF Done:  E(UM062X) =  -140.109256772     A.U. after   15 cycles
 Optimization completed.
    -- Stationary point found.
 Normal termination of Gaussian 16 at Wed Oct  7 13:32:50 2020.
 Gaussian 16:  ES64L-G16RevA.03 25-Dec-2016

 ----------------------------------------------------------------------
 #P Freq M062X/6-31G* 5D 7F Integral=UltraFineGrid SCF=(NoSymm,XQC,MaxC
 yc=120) IOp(1/33=1) Geom=Check Guess=Read
 ----------------------------------------------------------------------

 TstMul:  Mul=     2
 TstMul:  ICh=     0
 TstMul:  Mul=     2
 Structure from the checkpoint file:  "MN_53_hfch3ts_BH76_M062X_631Gs.chk"
 Charge =  0 Multiplicity = 2

                         Standard orientation:
 ---------------------------------------------------------------------
 Center     Atomic      Atomic             Coordinates (Angstroms)
 Number     Number       Type             X           Y           Z
 ---------------------------------------------------------------------
      1          1           0        0.001032    2.006263    0.000000
      2          9           0       -0.000039    0.768886    0.000000
      3          6           0       -0.000039   -0.908651    0.000000
      4          1           0        1.054368   -1.158080    0.000000
      5          1           0       -0.527411   -1.158124    0.913073
      6          1           0       -0.527411   -1.158124   -0.913073
 ---------------------------------------------------------------------

 SCF Done:  E(UM062X) =  -140.109256772     A.U. after    1 cycles

 The electronic state is 2-A'.
 Alpha  occ. eigenvalues --  -25.23335 -10.58416  -1.28436  -0.79834  -0.57276
 Alpha  occ. eigenvalues --   -0.52452  -0.52449  -0.44730  -0.44728  -0.20475
 Alpha virt. eigenvalues --    0.08005   0.16346   0.21710   0.21713   0.54496
 Alpha virt. eigenvalues --    0.59257   0.59263   0.74793   0.90136   0.94679
 Alpha virt. eigenvalues --    0.94687   1.05752   1.29653   1.29655   1.59185

  Beta  occ. eigenvalues --  -25.23111 -10.58012  -1.27564  -0.77905  -0.55556
  Beta  occ. eigenvalues --   -0.51858  -0.51854  -0.44360  -0.44357
  Beta virt. eigenvalues --   -0.00897   0.11857   0.16560   0.22422   0.22424
  Beta virt. eigenvalues --    0.57585   0.59778   0.59785   0.76916   0.91257
  Beta virt. eigenvalues --    0.96420   0.96428   1.07646   1.30295   1.30297

 Mulliken charges and spin densities:
               1          2
     1  H    0.119672   0.634522
     2  F   -0.356456  -0.116308
     3  C   -0.310754   0.560911
     4  H    0.182524  -0.026378
     5  H    0.182507  -0.026374
     6  H    0.182507  -0.026374
 Sum of Mulliken charges =  -0.00000   1.00000

 Dipole moment (field-independent basis, Debye):
    X=              0.0003    Y=             -1.3179    Z=              0.0000  Tot=              1.3179
 Quadrupole moment (field-independent basis, Debye-Ang):
   XX=            -12.8464   YY=            -12.0913   ZZ=            -12.8475
   XY=              0.0010   XZ=             -0.0000   YZ=             -0.0000

  Exact polarizability:  13.085   0.016  56.731   0.000   0.000  13.087
 Approx polarizability:  13.181   0.018  52.517  -0.000  -0.000  13.179

 ******    1 imaginary frequencies (negative Signs) ******

                      1                      2                      3
                     A'                     A'                     A"
 Frequencies --  -1782.2148               319.5645               319.7011
 Red. masses --      1.7372                 1.1469                 1.1470
 Frc consts  --      3.2510                 0.0690                 0.0691
 IR Inten    --   3897.8973                 9.6551                 9.6158

                      4                      5                      6
                     A'                     A"                     A'
 Frequencies --    826.1427               827.4683               993.5114
 Red. masses --      1.1448                 1.1447                 1.5922
 Frc consts  --      0.4604                 0.4618                 0.9260
 IR Inten    --      0.1976                 0.1683               264.8356

                      7                      8                      9
                     A'                     A"                     A'
 Frequencies --   1220.4943              1483.7342              1484.7053
 Red. masses --      1.3257                 1.0842                 1.0842
 Frc consts  --      1.1635                 1.4062                 1.4081
 IR Inten    --     85.9993                 2.8422                 2.8310

                     10                     11                     12
                     A'                     A"                     A'
 Frequencies --   3159.0739              3306.7016              3307.2994
 Red. masses --      1.0169                 1.1150                 1.1150
 Frc consts  --      5.9793                 7.1832                 7.1860
 IR Inten    --      0.7498                10.3203                10.2958

 - Thermochemistry -
 -------------------
 Temperature   298.150 Kelvin.  Pressure   1.00000 Atm.
 Atom     1 has atomic number  1 and mass   1.00783

 Molecular mass:    35.02970 amu.
 Principal axes and moments of inertia in atomic units:
                           1         2         3
     Eigenvalues --    12.00421 109.95411 109.95632
           X            0.00009   1.00000   0.00000
           Y            1.00000  -0.00009   0.00000
           Z           -0.00000   0.00000   1.00000
 This molecule is an asymmetric top.
 Rotational symmetry number  1.
 Rotational temperatures (Kelvin)      7.21530     0.78773     0.78771
 Rotational constants (GHZ):         150.34237    16.41359    16.41326
    1 imaginary frequencies ignored.
 Zero-point vibrational energy     103168.3 (Joules/Mol)
                                   24.65782 (Kcal/Mol)
 Warning -- explicit consideration of   2 degrees of freedom as
           vibrations may cause significant error
 Vibrational temperatures:    459.78   459.98  1188.64  1190.54  1429.44
          (Kelvin)           1756.02  2134.76  2136.16  4545.20  4757.61
                             4758.47

 Zero-point correction=                           0.039295 (Hartree/Particle)
 Thermal correction to Energy=                    0.043125
 Thermal correction to Enthalpy=                  0.044070
 Thermal correction to Gibbs Free Energy=         0.015211
 Sum of electronic and zero-point Energies=           -140.069962
 Sum of electronic and thermal Energies=              -140.066131
 Sum of electronic and thermal Enthalpies=            -140.065187
 Sum of electronic and thermal Free Energies=         -140.094045

                     E (Thermal)             CV                S
                      KCal/Mol        Cal/Mol-Kelvin    Cal/Mol-Kelvin
 Total                   27.062             11.184             60.737
 Electronic               0.000              0.000              1.377
 Translational            0.889              2.981             36.591
 Rotational               0.889              2.981             19.612
 Vibrational             25.284              5.222              3.156
 Vibration     1          0.705              1.636              1.312
 Vibration     2          0.706              1.636              1.312

 Optimization completed.
    -- Stationary point found.
 Normal termination of Gaussian 16 at Wed Oct  7 13:33:30 2020.
