 Gaussian 16, Revision A.03,
 Gaussian 16:  ES64L-G16RevA.03 25-Dec-2016

 ----------------------------------------------------------------------
 #P Opt(MaxCyc=100) M062X/6-31G* 5D 7F Integral=UltraFineGrid SCF=(NoSy
 mm,XQC,MaxCyc=120) IOp(1/33=1)
 ----------------------------------------------------------------------

 TstMul:  Mul=     1
 TstMul:  ICh=     0
 TstMul:  Mul=     1
 Symbolic Z-matrix:
 Charge =  0 Multiplicity = 1

 SCF Done:  E(RM062X) =  -100.382473555     A.U. after   10 cycles
 SCF Done:  E(RM062X) =  -100.382724898     A.U. after    7 cycles
 SCF Done:  E(RM062X) =  -100.382725534     A.U. after    6 cycles
 Optimization completed.
    -- Stationary point found.

                         Standard orientation:
 ---------------------------------------------------------------------
 Center     Atomic      Atomic             Coordinates (Angstroms)
 Number     Number       Type             X           Y           Z
 ---------------------------------------------------------------------
      1          9           0        0.000000    0.000000    0.093049
      2          1           0        0.000000    0.000000   -0.837438
 ---------------------------------------------------------------------

 The electronic state is 1-SG.
 Alpha  occ. eigenvalues --  -25.21169  -1.30787  -0.60642  -0.47703  -0.47703
 Alpha virt. eigenvalues --    0.11718   0.88475   1.27440   1.27440   1.35251
 Alpha virt. eigenvalues --    1.71985   1.86622   1.86622   1.93557   1.93557
 Alpha virt. eigenvalues --    2.67610

 Mulliken charges:
               1
     1  F   -0.504110
     2  H    0.504110
 Sum of Mulliken charges =  -0.00000

 Dipole moment (field-independent basis, Debye):
    X=              0.0000    Y=              0.0000    Z=             -1.9077  Tot=              1.9077
 Quadrupole moment (field-independent basis, Debye-Ang):
   XX=             -5.4174   YY=             -5.4174   ZZ=             -3.3551
   XY=              0.0000   XZ=              0.0000   YZ=              0.0000

 Normal termination of Gaussian 16 at Wed Oct  7 13:30:23 2020.
