 Gaussian 16, Revision A.03,

 ----------------------------------------------------------------------
 #P Opt(TS,MaxCyc=150,NoEigenTest,MaxStep=10,ModRedundant) M062X/6-31G*
  5D 7F Integral=UltraFineGrid SCF=(NoSymm,XQC,MaxCyc=120) IOp(1/33=1)
 ----------------------------------------------------------------------

 TstMul:  Mul=     2
 TstMul:  ICh=     0
 TstMul:  Mul=     2
 Symbolic Z-matrix:
 Charge =  0 Multiplicity = 2

 SCF Done:  E(UM062X) =  -113.760668303     A.U. after   17 cycles
 SCF Done:  E(UM062X) =  -113.760738608     A.U. after   12 cycles
 SCF Done:  E(UM062X) =  -113.760680889     A.U. after   12 cycles
 SCF Done:  E(UM062X) =  -113.760594753     A.U. after   14 cycles
 SCF Done:  E(UM062X) =  -113.760580635     A.U. after   14 cycles
 SCF Done:  E(UM062X) =  -113.760580735     A.U. after   11 cycles
 Optimization completed.
    -- Stationary point found.
 Normal termination of Gaussian 16 at Wed Oct  7 13:30:37 2020.
 Gaussian 16:  ES64L-G16RevA.03 25-Dec-2016

 ----------------------------------------------------------------------
 #P Freq M062X/6-31G* 5D 7F Integral=UltraFineGrid SCF=(NoSymm,XQC,MaxC
 yc=120) IOp(1/33=1) Geom=Check Guess=Read
 ----------------------------------------------------------------------

 TstMul:  Mul=     2
 TstMul:  ICh=     0
 TstMul:  Mul=     2
 Structure from the checkpoint file:  "MN_51_hcots_BH76_M062X_631Gs.chk"
 Charge =  0 Multiplicity = 2

                         Standard orientation:
 ---------------------------------------------------------------------
 Center     Atomic      Atomic             Coordinates (Angstroms)
 Number     Number       Type             X           Y           Z
 ---------------------------------------------------------------------
      1          6           0        0.116198    0.550562    0.000000
      2          8           0        0.116198   -0.584561    0.000000
      3          1           0       -1.626774    1.373117   -0.000000
 ---------------------------------------------------------------------

 SCF Done:  E(UM062X) =  -113.760580735     A.U. after    1 cycles

 The electronic state is 2-A'.
 Alpha  occ. eigenvalues --  -19.74380 -10.66851  -1.28181  -0.66398  -0.55571
 Alpha  occ. eigenvalues --   -0.54293  -0.47817  -0.32665
 Alpha virt. eigenvalues --    0.03250   0.05718   0.30026   0.56251   0.58032
 Alpha virt. eigenvalues --    0.71045   0.77296   0.82849   0.90847   0.99802
 Alpha virt. eigenvalues --    1.02387   1.52341   1.53173   1.56091   1.60487

  Beta  occ. eigenvalues --  -19.74211 -10.66641  -1.27703  -0.65802  -0.54034
  Beta  occ. eigenvalues --   -0.53889  -0.44733
  Beta virt. eigenvalues --   -0.07445   0.03437   0.07123   0.29491   0.56090
  Beta virt. eigenvalues --    0.57227   0.66012   0.73142   0.82640   0.91022
  Beta virt. eigenvalues --    0.99863   1.02782   1.52553   1.53286   1.56049

 Mulliken charges and spin densities:
               1          2
     1  C    0.180676   0.058751
     2  O   -0.181265   0.069641
     3  H    0.000589   0.871608
 Sum of Mulliken charges =  -0.00000   1.00000

 Dipole moment (field-independent basis, Debye):
    X=              0.0085    Y=              0.0728    Z=              0.0000  Tot=              0.0733
 Quadrupole moment (field-independent basis, Debye-Ang):
   XX=            -11.4138   YY=            -13.0471   ZZ=            -11.1421
   XY=              0.0303   XZ=             -0.0000   YZ=             -0.0000

  Exact polarizability:  16.183  -4.410  15.209   0.000  -0.000   7.766
 Approx polarizability:  16.680  -3.792  20.590  -0.000   0.000   8.997

 ******    1 imaginary frequencies (negative Signs) ******

                      1                      2                      3
                     A'                     A'                     A'
 Frequencies --   -667.1278               351.6672              2236.5204
 Red. masses --      1.0870                 1.4770                13.0829
 Frc consts  --      0.2850                 0.1076                38.5568
 IR Inten    --     13.6064                 1.0184               143.6200

 - Thermochemistry -
 -------------------
 Temperature   298.150 Kelvin.  Pressure   1.00000 Atm.
 Atom     1 has atomic number  6 and mass  12.00000

 Molecular mass:    29.00274 amu.
 Principal axes and moments of inertia in atomic units:
                           1         2         3
     Eigenvalues --     7.99964  41.61995  49.61959
           X           -0.27562   0.96127   0.00000
           Y            0.96127   0.27562   0.00000
           Z            0.00000   0.00000   1.00000
 This molecule is an asymmetric top.
 Rotational symmetry number  1.
 Rotational temperatures (Kelvin)     10.82723     2.08107     1.74556
 Rotational constants (GHZ):         225.60282    43.36241    36.37155
    1 imaginary frequencies ignored.
 Zero-point vibrational energy      15480.8 (Joules/Mol)
                                    3.70000 (Kcal/Mol)
 Warning -- explicit consideration of   1 degrees of freedom as
           vibrations may cause significant error
 Vibrational temperatures:    505.97  3217.85
          (Kelvin)

 Zero-point correction=                           0.005896 (Hartree/Particle)
 Thermal correction to Energy=                    0.009089
 Thermal correction to Enthalpy=                  0.010033
 Thermal correction to Gibbs Free Energy=        -0.016583
 Sum of electronic and zero-point Energies=           -113.754684
 Sum of electronic and thermal Energies=              -113.751492
 Sum of electronic and thermal Enthalpies=            -113.750548
 Sum of electronic and thermal Free Energies=         -113.777164

                     E (Thermal)             CV                S
                      KCal/Mol        Cal/Mol-Kelvin    Cal/Mol-Kelvin
 Total                    5.703              7.538             56.018
 Electronic               0.000              0.000              1.377
 Translational            0.889              2.981             36.028
 Rotational               0.889              2.981             17.453
 Vibrational              3.926              1.577              1.159
 Vibration     1          0.728              1.572              1.159

                           ! Non-Optimized Parameters !
 Normal termination of Gaussian 16 at Wed Oct  7 13:31:02 2020.
