 Gaussian 16, Revision A.03,

 ----------------------------------------------------------------------
 #P Opt(TS,MaxCyc=50,NoEigenTest,MaxStep=10,AddRedundant) M062X/6-31G*
 5D 7F Integral=UltraFineGrid SCF=(NoSymm,XQC,MaxCyc=120) IOp(1/33=1)
 ----------------------------------------------------------------------

 TstMul:  Mul=     2
 TstMul:  ICh=     0
 TstMul:  Mul=     2
 Symbolic Z-matrix:
 Charge =  0 Multiplicity = 2

 SCF Done:  E(UM062X) =  -199.911781285     A.U. after   19 cycles
 SCF Done:  E(UM062X) =  -199.912815508     A.U. after   17 cycles
 SCF Done:  E(UM062X) =  -199.911540984     A.U. after   17 cycles
 SCF Done:  E(UM062X) =  -199.911356024     A.U. after   17 cycles
 SCF Done:  E(UM062X) =  -199.911310566     A.U. after   11 cycles
 SCF Done:  E(UM062X) =  -199.911307957     A.U. after   10 cycles
 Optimization completed.
    -- Stationary point found.
 Normal termination of Gaussian 16 at Wed Oct  7 13:30:46 2020.
 Gaussian 16:  ES64L-G16RevA.03 25-Dec-2016

 ----------------------------------------------------------------------
 #P Freq M062X/6-31G* 5D 7F Integral=UltraFineGrid SCF=(NoSymm,XQC,MaxC
 yc=120) IOp(1/33=1) Geom=Check Guess=Read
 ----------------------------------------------------------------------

 TstMul:  Mul=     2
 TstMul:  ICh=     0
 TstMul:  Mul=     2
 Structure from the checkpoint file:  "MN_52_hf2ts_BH76_M062X_631Gs.chk"
 Charge =  0 Multiplicity = 2

                         Standard orientation:
 ---------------------------------------------------------------------
 Center     Atomic      Atomic             Coordinates (Angstroms)
 Number     Number       Type             X           Y           Z
 ---------------------------------------------------------------------
      1          1           0        0.000000    0.000000   -2.259898
      2          9           0        0.000000    0.000000   -0.594264
      3          9           0        0.000000    0.000000    0.845364
 ---------------------------------------------------------------------

 SCF Done:  E(UM062X) =  -199.911307957     A.U. after    1 cycles

 The electronic state is 2-SG.
 Alpha  occ. eigenvalues --  -25.33983 -25.32241  -1.45869  -1.23141  -0.66357
 Alpha  occ. eigenvalues --   -0.60955  -0.60955  -0.48570  -0.48570  -0.37442
 Alpha virt. eigenvalues --   -0.04561   0.72799   1.16075   1.16075   1.23835
 Alpha virt. eigenvalues --    1.33714   1.33714   1.37749   1.43886   1.61671
 Alpha virt. eigenvalues --    1.61671   1.78611   1.78615   1.83191   2.00096

  Beta  occ. eigenvalues --  -25.34053 -25.31658  -1.45056  -1.22210  -0.64047
  Beta  occ. eigenvalues --   -0.60704  -0.60704  -0.48017  -0.48017
  Beta virt. eigenvalues --   -0.13997  -0.01741   0.58345   1.16273   1.16273
  Beta virt. eigenvalues --    1.25100   1.33969   1.33969   1.37901   1.42460
  Beta virt. eigenvalues --    1.61786   1.61786   1.78647   1.78651   1.83182

 Mulliken charges and spin densities:
               1          2
     1  H    0.088170   0.866820
     2  F   -0.044006  -0.107214
     3  F   -0.044164   0.240394
 Sum of Mulliken charges =  -0.00000   1.00000

 Dipole moment (field-independent basis, Debye):
    X=              0.0000    Y=              0.0000    Z=             -0.8895  Tot=              0.8895
 Quadrupole moment (field-independent basis, Debye-Ang):
   XX=            -10.5261   YY=            -10.5261   ZZ=             -7.9574
   XY=             -0.0000   XZ=              0.0000   YZ=              0.0000

  Exact polarizability:   2.874  -0.000   2.874   0.000  -0.000  28.430
 Approx polarizability:   3.163  -0.000   3.163   0.000   0.000  30.409

 ******    1 imaginary frequencies (negative Signs) ******

                      1                      2                      3
                     SG                     PI                     PI
 Frequencies --  -1053.3536               246.2749               246.2749
 Red. masses --      1.4607                 1.3061                 1.3061
 Frc consts  --      0.9549                 0.0467                 0.0467
 IR Inten    --    584.1044                 5.2037                 5.2037

                      4
                     SG
 Frequencies --    964.3172
 Red. masses --      2.9764
 Frc consts  --      1.6307
 IR Inten    --     20.6596

 - Thermochemistry -
 -------------------
 Temperature   298.150 Kelvin.  Pressure   1.00000 Atm.
 Atom     1 has atomic number  1 and mass   1.00783

 Molecular mass:    39.00463 amu.
 Principal axes and moments of inertia in atomic units:
                           1         2         3
     Eigenvalues --     0.00000  90.25543  90.25543
           X            0.00000   0.00000   1.00000
           Y            0.00000   1.00000   0.00000
           Z            1.00000   0.00000   0.00000
 This molecule is a prolate symmetric top.
 Rotational symmetry number  1.
 Rotational temperature (Kelvin)      0.95965
 Rotational constant (GHZ):          19.995929
    1 imaginary frequencies ignored.
 Zero-point vibrational energy       8714.0 (Joules/Mol)
                                    2.08270 (Kcal/Mol)
 Warning -- explicit consideration of   2 degrees of freedom as
           vibrations may cause significant error
 Vibrational temperatures:    354.33   354.33  1387.44
          (Kelvin)

 Zero-point correction=                           0.003319 (Hartree/Particle)
 Thermal correction to Energy=                    0.006705
 Thermal correction to Enthalpy=                  0.007649
 Thermal correction to Gibbs Free Energy=        -0.018627
 Sum of electronic and zero-point Energies=           -199.907989
 Sum of electronic and thermal Energies=              -199.904603
 Sum of electronic and thermal Enthalpies=            -199.903659
 Sum of electronic and thermal Free Energies=         -199.929935

                     E (Thermal)             CV                S
                      KCal/Mol        Cal/Mol-Kelvin    Cal/Mol-Kelvin
 Total                    4.208              8.924             55.303
 Electronic               0.000              0.000              1.377
 Translational            0.889              2.981             36.912
 Rotational               0.592              1.987             13.391
 Vibrational              2.726              3.956              3.622
 Vibration     1          0.661              1.769              1.757
 Vibration     2          0.661              1.769              1.757

 Optimization completed.
    -- Stationary point found.

 1\1\GINC-NODE60\Freq\UM062X\6-31G(d)\F2H1(2)\RPEVERATI\07-Oct-2020\0\\
 #P Freq M062X/6-31G* 5D 7F Integral=UltraFineGrid SCF=(NoSymm,XQC,MaxC
 yc=120) IOp(1/33=1) Geom=Check Guess=Read\\TS search on BH76.\\0,2\H,0
 .,0.,-2.2514172278\F,0.,0.,-0.5857838355\F,0.,0.,0.8538448772\\Version
 =ES64L-G16RevA.03\State=2-SG\HF=-199.911308\S2=0.770175\S2-1=0.\S2A=0.
 750004\RMSD=2.197e-10\RMSF=4.121e-05\ZeroPoint=0.003319\Thermal=0.0067
 052\Dipole=0.,0.,-0.3499444\DipoleDeriv=0.0810366,0.,0.,0.,0.0810366,0
 .,0.,0.,-0.5570448,-0.046274,0.,0.,0.,-0.046274,0.,0.,0.,1.9786753,-0.

 Normal termination of Gaussian 16 at Wed Oct  7 13:31:09 2020.
