 Gaussian 16, Revision A.03,

 ----------------------------------------------------------------------
 #P Opt(TS,MaxCyc=50,NoEigenTest,MaxStep=10,AddRedundant) M062X/6-31G*
 5D 7F Integral=UltraFineGrid SCF=(NoSymm,XQC,MaxCyc=120) IOp(1/33=1)
 ----------------------------------------------------------------------

 TstMul:  Mul=     2
 TstMul:  ICh=     0
 TstMul:  Mul=     2
 Symbolic Z-matrix:
 Charge =  0 Multiplicity = 2

 SCF Done:  E(UM062X) =  -109.960251531     A.U. after   18 cycles
 SCF Done:  E(UM062X) =  -109.960238756     A.U. after   11 cycles
 SCF Done:  E(UM062X) =  -109.960195607     A.U. after   18 cycles
 SCF Done:  E(UM062X) =  -109.960154008     A.U. after   15 cycles
 SCF Done:  E(UM062X) =  -109.960154608     A.U. after   11 cycles
 Optimization completed.
    -- Stationary point found.
 Normal termination of Gaussian 16 at Wed Oct  7 13:31:02 2020.
 Gaussian 16:  ES64L-G16RevA.03 25-Dec-2016

 ----------------------------------------------------------------------
 #P Freq M062X/6-31G* 5D 7F Integral=UltraFineGrid SCF=(NoSymm,XQC,MaxC
 yc=120) IOp(1/33=1) Geom=Check Guess=Read
 ----------------------------------------------------------------------

 TstMul:  Mul=     2
 TstMul:  ICh=     0
 TstMul:  Mul=     2
 Structure from the checkpoint file:  "MN_59_hn2ts_BH76_M062X_631Gs.chk"
 Charge =  0 Multiplicity = 2

                         Standard orientation:
 ---------------------------------------------------------------------
 Center     Atomic      Atomic             Coordinates (Angstroms)
 Number     Number       Type             X           Y           Z
 ---------------------------------------------------------------------
      1          7           0        0.085803   -0.643219    0.000000
      2          7           0        0.085803    0.477377    0.000000
      3          1           0       -1.201244    1.160899    0.000000
 ---------------------------------------------------------------------

 SCF Done:  E(UM062X) =  -109.960154608     A.U. after    1 cycles

 The electronic state is 2-A'.
 Alpha  occ. eigenvalues --  -14.87746 -14.85858  -1.22824  -0.68391  -0.56769
 Alpha  occ. eigenvalues --   -0.52751  -0.51420  -0.28509
 Alpha virt. eigenvalues --    0.02833   0.05696   0.45866   0.64030   0.66871
 Alpha virt. eigenvalues --    0.67162   0.70902   0.81420   0.83349   0.86289
 Alpha virt. eigenvalues --    0.99299   1.34250   1.50151   1.52992   1.60062

  Beta  occ. eigenvalues --  -14.87582 -14.85376  -1.21834  -0.65525  -0.53304
  Beta  occ. eigenvalues --   -0.52122  -0.49431
  Beta virt. eigenvalues --   -0.05632   0.03582   0.07614   0.45829   0.64284
  Beta virt. eigenvalues --    0.66970   0.66991   0.73432   0.81657   0.83536
  Beta virt. eigenvalues --    0.87314   1.00042   1.34856   1.50670   1.53855

 Mulliken charges and spin densities:
               1          2
     1  N    0.000852   0.363786
     2  N   -0.091672  -0.055020
     3  H    0.090820   0.691234
 Sum of Mulliken charges =   0.00000   1.00000

 Dipole moment (field-independent basis, Debye):
    X=             -0.3679    Y=              0.3573    Z=              0.0000  Tot=              0.5128
 Quadrupole moment (field-independent basis, Debye-Ang):
   XX=            -11.4279   YY=            -12.6486   ZZ=            -11.2816
   XY=             -0.2580   XZ=              0.0000   YZ=              0.0000

  Exact polarizability:  15.635  -7.453  19.875  -0.000  -0.000   5.972
 Approx polarizability:  16.055  -7.371  28.300   0.000   0.000   7.190

 ******    1 imaginary frequencies (negative Signs) ******

                      1                      2                      3
                     A'                     A'                     A'
 Frequencies --  -1436.9299               751.0715              2282.7552
 Red. masses --      1.1173                 1.3407                 8.4468
 Frc consts  --      1.3592                 0.4456                25.9333
 IR Inten    --    614.6725                 4.8133                83.3819

 - Thermochemistry -
 -------------------
 Temperature   298.150 Kelvin.  Pressure   1.00000 Atm.
 Atom     1 has atomic number  7 and mass  14.00307

 Molecular mass:    29.01397 amu.
 Principal axes and moments of inertia in atomic units:
                           1         2         3
     Eigenvalues --     4.78763  37.73867  42.52631
           X           -0.17131   0.98522   0.00000
           Y            0.98522   0.17131   0.00000
           Z            0.00000   0.00000   1.00000
 This molecule is an asymmetric top.
 Rotational symmetry number  1.
 Rotational temperatures (Kelvin)     18.09117     2.29510     2.03671
 Rotational constants (GHZ):         376.95886    47.82206    42.43823
    1 imaginary frequencies ignored.
 Zero-point vibrational energy      18146.3 (Joules/Mol)
                                    4.33707 (Kcal/Mol)
 Vibrational temperatures:   1080.62  3284.38
          (Kelvin)

 Zero-point correction=                           0.006912 (Hartree/Particle)
 Thermal correction to Energy=                    0.009838
 Thermal correction to Enthalpy=                  0.010782
 Thermal correction to Gibbs Free Energy=        -0.015042
 Sum of electronic and zero-point Energies=           -109.953243
 Sum of electronic and thermal Energies=              -109.950317
 Sum of electronic and thermal Enthalpies=            -109.949372
 Sum of electronic and thermal Free Energies=         -109.975196

                     E (Thermal)             CV                S
                      KCal/Mol        Cal/Mol-Kelvin    Cal/Mol-Kelvin
 Total                    6.173              6.700             54.351
 Electronic               0.000              0.000              1.377
 Translational            0.889              2.981             36.030
 Rotational               0.889              2.981             16.692
 Vibrational              4.396              0.739              0.251

 Optimization completed.
    -- Stationary point found.

 1\1\GINC-NODE20\Freq\UM062X\6-31G(d)\H1N2(2)\RPEVERATI\07-Oct-2020\0\\
 #P Freq M062X/6-31G* 5D 7F Integral=UltraFineGrid SCF=(NoSymm,XQC,MaxC
 yc=120) IOp(1/33=1) Geom=Check Guess=Read\\TS search on BH76.\\0,2\N,0
 .0916144333,-0.6484160072,0.\N,0.090635114,0.4721797128,0.\H,-1.197009
 2918,1.154577005,0.\\Version=ES64L-G16RevA.03\State=2-A'\HF=-109.96015
 46\S2=0.762902\S2-1=0.\S2A=0.75003\RMSD=6.338e-10\RMSF=3.692e-05\ZeroP
 oint=0.0069116\Thermal=0.009838\Dipole=-0.1448745,0.1404341,0.\DipoleD
 eriv=-0.0036928,0.0008091,0.,0.8822568,-0.601035,0.,0.,0.,-0.0300662,0

 Normal termination of Gaussian 16 at Wed Oct  7 13:31:27 2020.
