 Gaussian 16, Revision A.03,

 ----------------------------------------------------------------------
 #P Opt(TS,MaxCyc=50,NoEigenTest,MaxStep=10,AddRedundant) M062X/6-31G*
 5D 7F Integral=UltraFineGrid SCF=(NoSymm,XQC,MaxCyc=120) IOp(1/33=1)
 ----------------------------------------------------------------------

 TstMul:  Mul=     2
 TstMul:  ICh=     0
 TstMul:  Mul=     2
 Symbolic Z-matrix:
 Charge =  0 Multiplicity = 2

 SCF Done:  E(UM062X) =  -185.050057152     A.U. after   21 cycles
 SCF Done:  E(UM062X) =  -185.050849453     A.U. after   15 cycles
 SCF Done:  E(UM062X) =  -185.050002838     A.U. after   20 cycles
 SCF Done:  E(UM062X) =  -185.050025950     A.U. after   14 cycles
 Optimization completed.
    -- Stationary point found.
 Normal termination of Gaussian 16 at Wed Oct  7 13:31:29 2020.
 Gaussian 16:  ES64L-G16RevA.03 25-Dec-2016

 ----------------------------------------------------------------------
 #P Freq M062X/6-31G* 5D 7F Integral=UltraFineGrid SCF=(NoSymm,XQC,MaxC
 yc=120) IOp(1/33=1) Geom=Check Guess=Read
 ----------------------------------------------------------------------

 TstMul:  Mul=     2
 TstMul:  ICh=     0
 TstMul:  Mul=     2
 Structure from the checkpoint file:  "MN_68_n2ohts_BH76_M062X_631Gs.chk"
 Charge =  0 Multiplicity = 2

                         Standard orientation:
 ---------------------------------------------------------------------
 Center     Atomic      Atomic             Coordinates (Angstroms)
 Number     Number       Type             X           Y           Z
 ---------------------------------------------------------------------
      1          1           0       -0.330413   -1.968086   -0.000000
      2          8           0       -0.864040   -0.613236   -0.000000
      3          7           0       -0.000000    0.258465    0.000000
      4          7           0        1.034677    0.723531    0.000000
 ---------------------------------------------------------------------

 SCF Done:  E(UM062X) =  -185.050025950     A.U. after    1 cycles

 The electronic state is 2-A'.
 Alpha  occ. eigenvalues --  -19.76269 -14.98217 -14.87181  -1.35657  -1.18959
 Alpha  occ. eigenvalues --   -0.73279  -0.64434  -0.63629  -0.56798  -0.45307
 Alpha  occ. eigenvalues --   -0.41877  -0.25873
 Alpha virt. eigenvalues --   -0.00008   0.02868   0.22834   0.49628   0.62925
 Alpha virt. eigenvalues --    0.65577   0.66529   0.73815   0.76717   0.80474
 Alpha virt. eigenvalues --    0.81557   0.82732   1.00224   1.01657   1.17986

  Beta  occ. eigenvalues --  -19.76197 -14.98086 -14.86794  -1.34967  -1.18045
  Beta  occ. eigenvalues --   -0.72186  -0.63325  -0.63315  -0.55247  -0.43223
  Beta  occ. eigenvalues --   -0.41584
  Beta virt. eigenvalues --   -0.05674   0.03554   0.03901   0.23347   0.49535
  Beta virt. eigenvalues --    0.64170   0.65781   0.67317   0.72885   0.76908
  Beta virt. eigenvalues --    0.80689   0.82415   0.82984   1.00143   1.01921

 Mulliken charges and spin densities:
               1          2
     1  H    0.051056   0.733450
     2  O   -0.409972  -0.117879
     3  N    0.442756   0.063403
     4  N   -0.083841   0.321027
 Sum of Mulliken charges =   0.00000   1.00000

 Dipole moment (field-independent basis, Debye):
    X=             -0.0208    Y=              0.0614    Z=              0.0000  Tot=              0.0648
 Quadrupole moment (field-independent basis, Debye-Ang):
   XX=            -18.9744   YY=            -17.5557   ZZ=            -16.4461
   XY=             -1.5000   XZ=             -0.0000   YZ=             -0.0000

  Exact polarizability:  22.066  12.592  42.261  -0.000   0.000   7.434
 Approx polarizability:  38.267  21.626  49.130  -0.000  -0.000   8.991

 ******    1 imaginary frequencies (negative Signs) ******

                      1                      2                      3
                     A'                     A'                     A"
 Frequencies --  -1684.4718               443.2681               594.3179
 Red. masses --      1.4127                 1.3431                 4.5023
 Frc consts  --      2.3618                 0.1555                 0.9370
 IR Inten    --   1647.0920                12.8970                 8.1427

                      4                      5                      6
                     A'                     A'                     A'
 Frequencies --    853.0312              1261.4749              2265.2137
 Red. masses --      2.6515                 6.1426                13.9175
 Frc consts  --      1.1368                 5.7591                42.0756
 IR Inten    --      2.7960                56.9496               374.3471

 - Thermochemistry -
 -------------------
 Temperature   298.150 Kelvin.  Pressure   1.00000 Atm.
 Atom     1 has atomic number  1 and mass   1.00783

 Molecular mass:    45.00889 amu.
 Principal axes and moments of inertia in atomic units:
                           1         2         3
     Eigenvalues --     8.81159 152.38390 161.19549
           X            0.78178  -0.62355   0.00000
           Y            0.62355   0.78178   0.00000
           Z            0.00000  -0.00000   1.00000
 This molecule is an asymmetric top.
 Rotational symmetry number  1.
 Rotational temperatures (Kelvin)      9.82954     0.56839     0.53732
 Rotational constants (GHZ):         204.81441    11.84339    11.19598
    1 imaginary frequencies ignored.
 Zero-point vibrational energy      32402.7 (Joules/Mol)
                                    7.74443 (Kcal/Mol)
 Warning -- explicit consideration of   2 degrees of freedom as
           vibrations may cause significant error
 Vibrational temperatures:    637.76   855.09  1227.32  1814.98  3259.14
          (Kelvin)

 Zero-point correction=                           0.012342 (Hartree/Particle)
 Thermal correction to Energy=                    0.015684
 Thermal correction to Enthalpy=                  0.016629
 Thermal correction to Gibbs Free Energy=        -0.011975
 Sum of electronic and zero-point Energies=           -185.037684
 Sum of electronic and thermal Energies=              -185.034341
 Sum of electronic and thermal Enthalpies=            -185.033397
 Sum of electronic and thermal Free Energies=         -185.062001

                     E (Thermal)             CV                S
                      KCal/Mol        Cal/Mol-Kelvin    Cal/Mol-Kelvin
 Total                    9.842              9.121             60.202
 Electronic               0.000              0.000              1.377
 Translational            0.889              2.981             37.338
 Rotational               0.889              2.981             20.009
 Vibrational              8.065              3.159              1.477
 Vibration     1          0.803              1.376              0.816
 Vibration     2          0.952              1.044              0.460

 Optimization completed.
    -- Stationary point found.
 Normal termination of Gaussian 16 at Wed Oct  7 13:31:57 2020.
