 Gaussian 16, Revision A.03,
 Gaussian 16:  ES64L-G16RevA.03 25-Dec-2016

 ----------------------------------------------------------------------
 #P Opt(MaxCyc=100) M062X/6-31G* 5D 7F Integral=UltraFineGrid SCF=(NoSy
 mm,XQC,MaxCyc=120) IOp(1/33=1)
 ----------------------------------------------------------------------

 TstMul:  Mul=     3
 TstMul:  ICh=     0
 TstMul:  Mul=     3
 Symbolic Z-matrix:
 Charge =  0 Multiplicity = 3

 SCF Done:  E(UM062X) =  -55.1893363120     A.U. after   15 cycles
 SCF Done:  E(UM062X) =  -55.1893729999     A.U. after    9 cycles
 SCF Done:  E(UM062X) =  -55.1893731431     A.U. after    7 cycles
 Optimization completed.
    -- Stationary point found.

                         Standard orientation:
 ---------------------------------------------------------------------
 Center     Atomic      Atomic             Coordinates (Angstroms)
 Number     Number       Type             X           Y           Z
 ---------------------------------------------------------------------
      1          7           0        0.000000    0.000000    0.130503
      2          1           0        0.000000    0.000000   -0.913521
 ---------------------------------------------------------------------

 The electronic state is 3-SG.
 Alpha  occ. eigenvalues --  -14.82139  -0.94102  -0.47285  -0.40058  -0.40058
 Alpha virt. eigenvalues --    0.14410   0.71263   0.71263   0.77972   0.81016
 Alpha virt. eigenvalues --    1.01620   1.71405   1.71405   1.72810   1.72810
 Alpha virt. eigenvalues --    2.27089
  Beta  occ. eigenvalues --  -14.79645  -0.81387  -0.41337
  Beta virt. eigenvalues --   -0.02769  -0.02769   0.16336   0.78213   0.78213
  Beta virt. eigenvalues --    0.78730   0.84891   1.08176   1.79832   1.79832
  Beta virt. eigenvalues --    1.83908   1.83908   2.33501

 Mulliken charges and spin densities:
               1          2
     1  N   -0.305792   2.079853
     2  H    0.305792  -0.079853
 Sum of Mulliken charges =   0.00000   2.00000

 Dipole moment (field-independent basis, Debye):
    X=              0.0000    Y=              0.0000    Z=             -1.6374  Tot=              1.6374
 Quadrupole moment (field-independent basis, Debye-Ang):
   XX=             -6.1731   YY=             -6.1731   ZZ=             -5.7619
   XY=             -0.0000   XZ=              0.0000   YZ=             -0.0000

 1\1\GINC-NODE33\FOpt\UM062X\6-31G(d)\H1N1(3)\RPEVERATI\07-Oct-2020\0\\
 #P Opt(MaxCyc=100) M062X/6-31G* 5D 7F Integral=UltraFineGrid SCF=(NoSy
 mm,XQC,MaxCyc=120) IOp(1/33=1)\\TS search on BH76.\\0,3\N,0.,0.,0.1332
 368567\H,0.,0.,-0.9107876248\\Version=ES64L-G16RevA.03\State=3-SG\HF=-
 55.1893731\S2=2.00613\S2-1=0.\S2A=2.000011\RMSD=8.595e-09\RMSF=1.113e-
 07\Dipole=0.,0.,-0.6441871\Quadrupole=-0.101896,-0.101896,0.203792,0.,
 0.,0.\PG=C*V [C*(H1N1)]\\@

 Normal termination of Gaussian 16 at Wed Oct  7 13:31:03 2020.
