 Gaussian 16, Revision A.03,
 Gaussian 16:  ES64L-G16RevA.03 25-Dec-2016

 ----------------------------------------------------------------------
 #P Opt(MaxCyc=100) M062X/6-31G* 5D 7F Integral=UltraFineGrid SCF=(NoSy
 mm,XQC,MaxCyc=120) IOp(1/33=1)
 ----------------------------------------------------------------------

 TstMul:  Mul=     1
 TstMul:  ICh=    -1
 TstMul:  Mul=     1
 Symbolic Z-matrix:
 Charge = -1 Multiplicity = 1

 SCF Done:  E(RM062X) =  -215.462708930     A.U. after   14 cycles
 SCF Done:  E(RM062X) =  -215.463572502     A.U. after   13 cycles
 SCF Done:  E(RM062X) =  -215.465548824     A.U. after   12 cycles
 SCF Done:  E(RM062X) =  -215.466011372     A.U. after   13 cycles
 SCF Done:  E(RM062X) =  -215.465326746     A.U. after   14 cycles
 SCF Done:  E(RM062X) =  -215.468271670     A.U. after   12 cycles
 SCF Done:  E(RM062X) =  -215.468775647     A.U. after   12 cycles
 SCF Done:  E(RM062X) =  -215.468850650     A.U. after   11 cycles
 SCF Done:  E(RM062X) =  -215.468853405     A.U. after    8 cycles
 Optimization completed.
    -- Stationary point found.

                         Standard orientation:
 ---------------------------------------------------------------------
 Center     Atomic      Atomic             Coordinates (Angstroms)
 Number     Number       Type             X           Y           Z
 ---------------------------------------------------------------------
      1          6           0       -1.214699   -0.395156   -0.000062
      2          8           0       -0.489544    0.756973    0.000087
      3          1           0       -2.313085   -0.205874   -0.007159
      4          1           0       -1.031508   -1.062131   -0.878364
      5          1           0       -1.042472   -1.056115    0.885274
      6          1           0        0.665496    0.333800   -0.000279
      7          9           0        1.658457   -0.188282    0.000023
 ---------------------------------------------------------------------

 The electronic state is 1-A.
 Alpha  occ. eigenvalues --  -24.86156 -19.32827 -10.36423  -0.94033  -0.83384
 Alpha  occ. eigenvalues --   -0.52139  -0.32281  -0.27754  -0.25272  -0.20049
 Alpha  occ. eigenvalues --   -0.14382  -0.14257  -0.07056  -0.06397
 Alpha virt. eigenvalues --    0.34739   0.40770   0.41884   0.45474   0.59792
 Alpha virt. eigenvalues --    0.83251   0.84094   0.86960   1.00916   1.10577
 Alpha virt. eigenvalues --    1.11760   1.18608   1.27825   1.30736   1.31768

 Mulliken charges:
               1
     1  C   -0.102734
     2  O   -0.780987
     3  H    0.029655
     4  H    0.038670
     5  H    0.037969
     6  H    0.504954
     7  F   -0.727527
 Sum of Mulliken charges =  -1.00000

 Dipole moment (field-independent basis, Debye):
    X=             -2.0340    Y=             -1.1367    Z=             -0.0028  Tot=              2.3301
 Quadrupole moment (field-independent basis, Debye-Ang):
   XX=            -29.9086   YY=            -22.8630   ZZ=            -20.5920
   XY=              2.1157   XZ=              0.0021   YZ=              0.0025

 Normal termination of Gaussian 16 at Wed Oct  7 13:32:35 2020.
