 Gaussian 16, Revision A.03,

 ----------------------------------------------------------------------
 #P Opt(TS,MaxCyc=50,NoEigenTest,MaxStep=10,AddRedundant) M062X/6-31G*
 5D 7F Integral=UltraFineGrid SCF=(NoSymm,XQC,MaxCyc=120) IOp(1/33=1)
 ----------------------------------------------------------------------

 TstMul:  Mul=     1
 TstMul:  ICh=    -1
 TstMul:  Mul=     1
 Symbolic Z-matrix:
 Charge = -1 Multiplicity = 1

 SCF Done:  E(RM062X) =  -215.376528800     A.U. after   14 cycles
 SCF Done:  E(RM062X) =  -215.377827180     A.U. after   14 cycles
 SCF Done:  E(RM062X) =  -215.378110798     A.U. after   13 cycles
 SCF Done:  E(RM062X) =  -215.378144429     A.U. after   10 cycles
 SCF Done:  E(RM062X) =  -215.378026054     A.U. after   13 cycles
 SCF Done:  E(RM062X) =  -215.378054258     A.U. after   12 cycles
 SCF Done:  E(RM062X) =  -215.378067341     A.U. after   13 cycles
 SCF Done:  E(RM062X) =  -215.378069319     A.U. after   10 cycles
 SCF Done:  E(RM062X) =  -215.378069289     A.U. after   12 cycles
 SCF Done:  E(RM062X) =  -215.378069896     A.U. after    9 cycles
 SCF Done:  E(RM062X) =  -215.378069889     A.U. after    7 cycles
 SCF Done:  E(RM062X) =  -215.378069903     A.U. after    7 cycles
 Optimization completed.
    -- Stationary point found.
 Normal termination of Gaussian 16 at Wed Oct  7 13:33:25 2020.
 Gaussian 16:  ES64L-G16RevA.03 25-Dec-2016

 ----------------------------------------------------------------------
 #P Freq M062X/6-31G* 5D 7F Integral=UltraFineGrid SCF=(NoSymm,XQC,MaxC
 yc=120) IOp(1/33=1) Geom=Check Guess=Read
 ----------------------------------------------------------------------

 TstMul:  Mul=     1
 TstMul:  ICh=    -1
 TstMul:  Mul=     1
 Structure from the checkpoint file:  "MN_63_hoch3fts_BH76_M062X_631Gs.chk"
 Charge = -1 Multiplicity = 1

                         Standard orientation:
 ---------------------------------------------------------------------
 Center     Atomic      Atomic             Coordinates (Angstroms)
 Number     Number       Type             X           Y           Z
 ---------------------------------------------------------------------
      1          9           0        1.796209   -0.019585   -0.000006
      2          6           0        0.073993    0.023679    0.000017
      3          1           0        0.041137    1.102823   -0.000833
      4          1           0        0.026221   -0.508688   -0.938825
      5          1           0        0.026216   -0.507241    0.939670
      6          8           0       -1.830860    0.099136   -0.000009
      7          1           0       -2.056533   -0.845789    0.000009
 ---------------------------------------------------------------------

 SCF Done:  E(RM062X) =  -215.378069903     A.U. after    1 cycles

 The electronic state is 1-A.
 Alpha  occ. eigenvalues --  -24.86769 -19.30562 -10.37452  -0.92980  -0.76163
 Alpha  occ. eigenvalues --   -0.53587  -0.28869  -0.28582  -0.21828  -0.17636
 Alpha  occ. eigenvalues --   -0.13417  -0.12965  -0.05607  -0.04111
 Alpha virt. eigenvalues --    0.34662   0.37311   0.42261   0.42605   0.43481
 Alpha virt. eigenvalues --    0.82640   0.83513   0.93709   1.10728   1.15914
 Alpha virt. eigenvalues --    1.18370   1.20684   1.27667   1.29880   1.42091

 Mulliken charges:
               1
     1  F   -0.640565
     2  C   -0.069629
     3  H    0.131944
     4  H    0.116897
     5  H    0.116938
     6  O   -0.934876
     7  H    0.279291
 Sum of Mulliken charges =  -1.00000

 Dipole moment (field-independent basis, Debye):
    X=              0.4049    Y=             -1.2813    Z=              0.0001  Tot=              1.3437
 Quadrupole moment (field-independent basis, Debye-Ang):
   XX=            -39.6336   YY=            -18.2887   ZZ=            -19.7610
   XY=              3.1595   XZ=             -0.0001   YZ=             -0.0001

  Exact polarizability:  35.868   2.365  20.109  -0.000   0.000  16.033
 Approx polarizability:  38.464   0.990  21.616  -0.000   0.000  16.553

 ******    1 imaginary frequencies (negative Signs) ******

                      1                      2                      3
                      A                      A                      A
 Frequencies --   -511.7287               200.7819               339.7267
 Red. masses --     10.7926                 1.0536                 3.0726
 Frc consts  --      1.6652                 0.0250                 0.2089
 IR Inten    --    997.1692                50.5092                20.5050

                      4                      5                      6
                      A                      A                      A
 Frequencies --    368.8354               397.6968               817.7296
 Red. masses --      4.3704                12.6870                 1.1633
 Frc consts  --      0.3503                 1.1823                 0.4583
 IR Inten    --     28.6257                 6.9181                42.7298

                      7                      8                      9
                      A                      A                      A
 Frequencies --   1149.3750              1185.0499              1257.5066
 Red. masses --      1.0220                 1.0374                 1.0689
 Frc consts  --      0.7955                 0.8584                 0.9959
 IR Inten    --      0.4355                 0.3360                 9.2151

                     10                     11                     12
                      A                      A                      A
 Frequencies --   1381.5635              1383.2263              3133.7740
 Red. masses --      1.1306                 1.1207                 1.0086
 Frc consts  --      1.2714                 1.2633                 5.8359
 IR Inten    --      0.8689                 1.1993                 0.6530

                     13                     14                     15
                      A                      A                      A
 Frequencies --   3310.3927              3321.6592              3705.3663
 Red. masses --      1.1290                 1.1268                 1.0674
 Frc consts  --      7.2895                 7.3251                 8.6348
 IR Inten    --     68.3516                54.9375                68.8530

 - Thermochemistry -
 -------------------
 Temperature   298.150 Kelvin.  Pressure   1.00000 Atm.
 Atom     1 has atomic number  9 and mass  18.99840

 Molecular mass:    51.02462 amu.
 Principal axes and moments of inertia in atomic units:
                           1         2         3
     Eigenvalues --    15.62982 431.29221 434.22203
           X            0.99988   0.01574  -0.00000
           Y           -0.01574   0.99988   0.00000
           Z            0.00000  -0.00000   1.00000
 This molecule is an asymmetric top.
 Rotational symmetry number  1.
 Rotational temperatures (Kelvin)      5.54158     0.20082     0.19947
 Rotational constants (GHZ):         115.46781     4.18450     4.15626
    1 imaginary frequencies ignored.
 Zero-point vibrational energy     131306.2 (Joules/Mol)
                                   31.38294 (Kcal/Mol)
 Warning -- explicit consideration of   4 degrees of freedom as
           vibrations may cause significant error
 Vibrational temperatures:    288.88   488.79   530.67   572.20  1176.53
          (Kelvin)           1653.69  1705.02  1809.27  1987.76  1990.15
                             4508.80  4762.92  4779.13  5331.20

 Zero-point correction=                           0.050012 (Hartree/Particle)
 Thermal correction to Energy=                    0.054570
 Thermal correction to Enthalpy=                  0.055515
 Thermal correction to Gibbs Free Energy=         0.024125
 Sum of electronic and zero-point Energies=           -215.328058
 Sum of electronic and thermal Energies=              -215.323500
 Sum of electronic and thermal Enthalpies=            -215.322555
 Sum of electronic and thermal Free Energies=         -215.353945

                     E (Thermal)             CV                S
                      KCal/Mol        Cal/Mol-Kelvin    Cal/Mol-Kelvin
 Total                   34.243             13.880             66.064
 Electronic               0.000              0.000              0.000
 Translational            0.889              2.981             37.712
 Rotational               0.889              2.981             22.597
 Vibrational             32.466              7.919              5.755
 Vibration     1          0.638              1.839              2.126
 Vibration     2          0.720              1.596              1.213
 Vibration     3          0.741              1.536              1.085
 Vibration     4          0.764              1.475              0.971

 Optimization completed.
    -- Stationary point found.
 Normal termination of Gaussian 16 at Wed Oct  7 13:33:57 2020.
