 Gaussian 16, Revision A.03,
 Gaussian 16:  ES64L-G16RevA.03 25-Dec-2016

 ----------------------------------------------------------------------
 #P Opt(MaxCyc=100) M062X/6-31G* 5D 7F Integral=UltraFineGrid SCF=(NoSy
 mm,XQC,MaxCyc=120) IOp(1/33=1)
 ----------------------------------------------------------------------

 TstMul:  Mul=     1
 TstMul:  ICh=    -1
 TstMul:  Mul=     1
 Symbolic Z-matrix:
 Charge = -1 Multiplicity = 1

 SCF Done:  E(RM062X) =  -215.388522619     A.U. after   14 cycles
 SCF Done:  E(RM062X) =  -215.390933710     A.U. after   15 cycles
 SCF Done:  E(RM062X) =  -215.391623607     A.U. after   15 cycles
 SCF Done:  E(RM062X) =  -215.392543390     A.U. after   16 cycles
 SCF Done:  E(RM062X) =  -215.393067562     A.U. after   15 cycles
 SCF Done:  E(RM062X) =  -215.393401292     A.U. after   14 cycles
 SCF Done:  E(RM062X) =  -215.393467253     A.U. after   14 cycles
 SCF Done:  E(RM062X) =  -215.393514544     A.U. after   14 cycles
 SCF Done:  E(RM062X) =  -215.393578861     A.U. after   14 cycles
 SCF Done:  E(RM062X) =  -215.393611461     A.U. after   14 cycles
 SCF Done:  E(RM062X) =  -215.397101123     A.U. after   13 cycles
 SCF Done:  E(RM062X) =  -215.397113063     A.U. after   13 cycles
 SCF Done:  E(RM062X) =  -215.397115255     A.U. after    9 cycles
 SCF Done:  E(RM062X) =  -215.397119173     A.U. after   10 cycles
 SCF Done:  E(RM062X) =  -215.397124513     A.U. after   10 cycles
 SCF Done:  E(RM062X) =  -215.397130703     A.U. after   13 cycles
 SCF Done:  E(RM062X) =  -215.397133967     A.U. after   10 cycles
 SCF Done:  E(RM062X) =  -215.397134792     A.U. after    9 cycles
 SCF Done:  E(RM062X) =  -215.397134821     A.U. after   12 cycles
 SCF Done:  E(RM062X) =  -215.397135125     A.U. after    8 cycles
 Optimization completed.
    -- Stationary point found.

                         Standard orientation:
 ---------------------------------------------------------------------
 Center     Atomic      Atomic             Coordinates (Angstroms)
 Number     Number       Type             X           Y           Z
 ---------------------------------------------------------------------
      1          9           0        1.601623    0.463170   -0.029871
      2          6           0        0.599995   -0.527789    0.034189
      3          1           0       -0.485974   -0.122046   -0.074805
      4          1           0        0.822425   -1.259130   -0.759229
      5          1           0        0.725558   -1.045650    0.998945
      6          8           0       -2.113391    0.111588   -0.108770
      7          1           0       -2.169453    0.532325    0.768955
 ---------------------------------------------------------------------

 The electronic state is 1-A.
 Alpha  occ. eigenvalues --  -25.02253 -19.24030 -10.37974  -1.11282  -0.68778
 Alpha  occ. eigenvalues --   -0.57156  -0.35287  -0.35176  -0.33658  -0.21477
 Alpha  occ. eigenvalues --   -0.20550  -0.14024  -0.00076   0.00657
 Alpha virt. eigenvalues --    0.34280   0.38146   0.39408   0.42142   0.57086
 Alpha virt. eigenvalues --    0.78790   0.79642   0.82604   1.10349   1.12430
 Alpha virt. eigenvalues --    1.16006   1.22290   1.28110   1.34013   1.41194

 Mulliken charges:
               1
     1  F   -0.421380
     2  C   -0.190733
     3  H    0.283019
     4  H    0.062221
     5  H    0.059095
     6  O   -1.031177
     7  H    0.238956
 Sum of Mulliken charges =  -1.00000

 Dipole moment (field-independent basis, Debye):
    X=              5.7003    Y=             -0.7109    Z=              1.3190  Tot=              5.8940
 Quadrupole moment (field-independent basis, Debye-Ang):
   XX=            -41.8855   YY=            -20.5744   ZZ=            -19.3806
   XY=             -0.9075   XZ=             -2.8668   YZ=              0.8250

 Normal termination of Gaussian 16 at Wed Oct  7 13:43:31 2020.
