 Gaussian 16, Revision A.03,
 Gaussian 16:  ES64L-G16RevA.03 25-Dec-2016

 ----------------------------------------------------------------------
 #P Opt(MaxCyc=100) M062X/6-31G* 5D 7F Integral=UltraFineGrid SCF=(NoSy
 mm,XQC,MaxCyc=120) IOp(1/33=1)
 ----------------------------------------------------------------------

 TstMul:  Mul=     1
 TstMul:  ICh=     0
 TstMul:  Mul=     1
 Symbolic Z-matrix:
 Charge =  0 Multiplicity = 1

 SCF Done:  E(RM062X) =  -184.582711519     A.U. after   13 cycles
 SCF Done:  E(RM062X) =  -184.582721391     A.U. after    9 cycles
 SCF Done:  E(RM062X) =  -184.582721530     A.U. after    8 cycles
 Optimization completed.
    -- Stationary point found.

                         Standard orientation:
 ---------------------------------------------------------------------
 Center     Atomic      Atomic             Coordinates (Angstroms)
 Number     Number       Type             X           Y           Z
 ---------------------------------------------------------------------
      1          7           0        0.000000    0.000000   -1.196996
      2          7           0        0.000000    0.000000   -0.074448
      3          8           0        0.000000    0.000000    1.112514
 ---------------------------------------------------------------------

 The electronic state is 1-SG.
 Alpha  occ. eigenvalues --  -19.73690 -15.00663 -14.87124  -1.37157  -1.20277
 Alpha  occ. eigenvalues --   -0.68879  -0.65081  -0.65081  -0.55926  -0.40487
 Alpha  occ. eigenvalues --   -0.40487
 Alpha virt. eigenvalues --    0.04311   0.04311   0.20541   0.46352   0.64969
 Alpha virt. eigenvalues --    0.64969   0.66389   0.79294   0.80444   0.80444
 Alpha virt. eigenvalues --    0.82436   1.03242   1.03242   1.14880   1.38083

 Mulliken charges:
               1
     1  N   -0.089787
     2  N    0.564019
     3  O   -0.474232
 Sum of Mulliken charges =  -0.00000

 Dipole moment (field-independent basis, Debye):
    X=              0.0000    Y=             -0.0000    Z=             -0.2372  Tot=              0.2372
 Quadrupole moment (field-independent basis, Debye-Ang):
   XX=            -15.0594   YY=            -15.0594   ZZ=            -18.9438
   XY=             -0.0000   XZ=              0.0000   YZ=             -0.0000

 Normal termination of Gaussian 16 at Wed Oct  7 13:31:09 2020.
