 Gaussian 16, Revision A.03,
 Gaussian 16:  ES64L-G16RevA.03 25-Dec-2016

 ----------------------------------------------------------------------
 #P Opt(MaxCyc=100) M062X/6-31G* 5D 7F Integral=UltraFineGrid SCF=(NoSy
 mm,XQC,MaxCyc=120) IOp(1/33=1)
 ----------------------------------------------------------------------

 TstMul:  Mul=     2
 TstMul:  ICh=     0
 TstMul:  Mul=     2
 Symbolic Z-matrix:
 Charge =  0 Multiplicity = 2

 SCF Done:  E(UM062X) =  -75.6873524971     A.U. after   14 cycles
 SCF Done:  E(UM062X) =  -75.6874477145     A.U. after    8 cycles
 SCF Done:  E(UM062X) =  -75.6874478863     A.U. after    7 cycles
 Optimization completed.
    -- Stationary point found.

                         Standard orientation:
 ---------------------------------------------------------------------
 Center     Atomic      Atomic             Coordinates (Angstroms)
 Number     Number       Type             X           Y           Z
 ---------------------------------------------------------------------
      1          8           0        0.000000    0.000000    0.108796
      2          1           0        0.000000    0.000000   -0.870366
 ---------------------------------------------------------------------

 Unable to determine electronic state:  an orbital has unidentified symmetry.
 Alpha  occ. eigenvalues --  -19.69290  -1.12679  -0.54735  -0.48358  -0.41813
 Alpha virt. eigenvalues --    0.12393   0.84853   0.89983   0.94721   0.99650
 Alpha virt. eigenvalues --    1.28910   1.75936   1.79792   1.81934   1.82070
 Alpha virt. eigenvalues --    2.45992
  Beta  occ. eigenvalues --  -19.67662  -1.04517  -0.51575  -0.38294
  Beta virt. eigenvalues --   -0.06965   0.13238   0.85891   0.95991   0.97981
  Beta virt. eigenvalues --    1.00928   1.32216   1.81103   1.81255   1.86939
  Beta virt. eigenvalues --    1.88826   2.48638

 Mulliken charges and spin densities:
               1          2
     1  O   -0.428877   1.034784
     2  H    0.428877  -0.034784
 Sum of Mulliken charges =   0.00000   1.00000

 Dipole moment (field-independent basis, Debye):
    X=              0.0000    Y=             -0.0000    Z=             -1.8146  Tot=              1.8146
 Quadrupole moment (field-independent basis, Debye-Ang):
   XX=             -6.4490   YY=             -5.3059   ZZ=             -4.4056
   XY=             -0.0000   XZ=              0.0000   YZ=              0.0000

 1\1\GINC-NODE34\FOpt\UM062X\6-31G(d)\H1O1(2)\RPEVERATI\07-Oct-2020\0\\
 #P Opt(MaxCyc=100) M062X/6-31G* 5D 7F Integral=UltraFineGrid SCF=(NoSy
 mm,XQC,MaxCyc=120) IOp(1/33=1)\\TS search on BH76.\\0,2\O,0.,0.,0.1127
 876616\H,0.,0.,-0.8663735813\\Version=ES64L-G16RevA.03\HF=-75.6874479\
 S2=0.7521\S2-1=0.\S2A=0.750003\RMSD=4.945e-09\RMSF=2.590e-08\Dipole=0.
 ,0.,-0.7139195\Quadrupole=-0.7897068,0.0601961,0.7295107,0.,0.,0.\PG=C
 *V [C*(H1O1)]\\@

 Normal termination of Gaussian 16 at Wed Oct  7 13:31:20 2020.
