 Gaussian 16, Revision A.03,
 Gaussian 16:  ES64L-G16RevA.03 25-Dec-2016

 ----------------------------------------------------------------------
 #P Opt(MaxCyc=100) M062X/6-31G* 5D 7F Integral=UltraFineGrid SCF=(NoSy
 mm,XQC,MaxCyc=120) IOp(1/33=1)
 ----------------------------------------------------------------------

 TstMul:  Mul=     2
 TstMul:  ICh=     0
 TstMul:  Mul=     2
 Symbolic Z-matrix:
 Charge =  0 Multiplicity = 2

 SCF Done:  E(UM062X) =  -342.447803055     A.U. after   15 cycles
 SCF Done:  E(UM062X) =  -342.447815869     A.U. after    8 cycles
 Optimization completed.
    -- Stationary point found.

                         Standard orientation:
 ---------------------------------------------------------------------
 Center     Atomic      Atomic             Coordinates (Angstroms)
 Number     Number       Type             X           Y           Z
 ---------------------------------------------------------------------
      1         15           0        0.000000    0.000000    0.116399
      2          1           0        0.000000    1.018616   -0.872996
      3          1           0       -0.000000   -1.018616   -0.872996
 ---------------------------------------------------------------------

 The electronic state is 2-B1.
 Alpha  occ. eigenvalues --  -78.03772  -6.86104  -4.98079  -4.97232  -4.97035
 Alpha  occ. eigenvalues --   -0.71737  -0.44737  -0.36302  -0.29188
 Alpha virt. eigenvalues --    0.07098   0.12824   0.27368   0.32556   0.34308
 Alpha virt. eigenvalues --    0.34386   0.69019   0.69377   0.69574   0.71445
 Alpha virt. eigenvalues --    0.77120   1.03242   1.20946
  Beta  occ. eigenvalues --  -78.03113  -6.85872  -4.96991  -4.96826  -4.96250
  Beta  occ. eigenvalues --   -0.68038  -0.44131  -0.34301
  Beta virt. eigenvalues --   -0.08352   0.07387   0.14306   0.25697   0.32289
  Beta virt. eigenvalues --    0.33979   0.34376   0.71876   0.72939   0.74506
  Beta virt. eigenvalues --    0.75574   0.81429   1.06294   1.23333

 Mulliken charges and spin densities:
               1          2
     1  P   -0.005309   1.078000
     2  H    0.002655  -0.039000
     3  H    0.002655  -0.039000
 Sum of Mulliken charges =  -0.00000   1.00000

 Dipole moment (field-independent basis, Debye):
    X=              0.0000    Y=              0.0000    Z=             -0.8964  Tot=              0.8964
 Quadrupole moment (field-independent basis, Debye-Ang):
   XX=            -14.8978   YY=            -13.9571   ZZ=            -15.5058
   XY=             -0.0000   XZ=             -0.0000   YZ=             -0.0000

 1\1\GINC-NODE27\FOpt\UM062X\6-31G(d)\H2P1(2)\RPEVERATI\07-Oct-2020\0\\
 #P Opt(MaxCyc=100) M062X/6-31G* 5D 7F Integral=UltraFineGrid SCF=(NoSy
 mm,XQC,MaxCyc=120) IOp(1/33=1)\\TS search on BH76.\\0,2\P,0.,0.,0.1198
 641564\H,0.,1.0186163361,-0.8695308765\H,0.,-1.0186163361,-0.869530876
 5\\Version=ES64L-G16RevA.03\State=2-B1\HF=-342.4478159\S2=0.75392\S2-1
 =0.\S2A=0.750009\RMSD=9.048e-09\RMSF=2.170e-05\Dipole=0.,0.,-0.3526669
 \Quadrupole=-0.0824635,0.6169453,-0.5344818,0.,0.,0.\PG=C02V [C2(P1),S
 GV(H2)]\\@

 Normal termination of Gaussian 16 at Wed Oct  7 13:31:16 2020.
