 Gaussian 16, Revision A.03,

 ----------------------------------------------------------------------
 #P Opt(TS,MaxCyc=50,NoEigenTest,MaxStep=10,AddRedundant) M062X/6-31G*
 5D 7F Integral=UltraFineGrid SCF=(NoSymm,XQC,MaxCyc=120) IOp(1/33=1)
 ----------------------------------------------------------------------

 TstMul:  Mul=     2
 TstMul:  ICh=     0
 TstMul:  Mul=     2
 Symbolic Z-matrix:
 Charge =  0 Multiplicity = 2

 SCF Done:  E(UM062X) =  -76.8397829545     A.U. after   17 cycles
 SCF Done:  E(UM062X) =  -76.8398581859     A.U. after   17 cycles
 SCF Done:  E(UM062X) =  -76.8399112904     A.U. after   17 cycles
 SCF Done:  E(UM062X) =  -76.8399198190     A.U. after   12 cycles
 SCF Done:  E(UM062X) =  -76.8399324925     A.U. after   12 cycles
 SCF Done:  E(UM062X) =  -76.8400735551     A.U. after   21 cycles
 SCF Done:  E(UM062X) =  -76.8399476438     A.U. after   23 cycles
 SCF Done:  E(UM062X) =  -76.8399367731     A.U. after   19 cycles
 SCF Done:  E(UM062X) =  -76.8399376174     A.U. after   12 cycles
 Optimization completed.
    -- Stationary point found.
 Normal termination of Gaussian 16 at Wed Oct  7 13:32:58 2020.
 Gaussian 16:  ES64L-G16RevA.03 25-Dec-2016

 ----------------------------------------------------------------------
 #P Freq M062X/6-31G* 5D 7F Integral=UltraFineGrid SCF=(NoSymm,XQC,MaxC
 yc=120) IOp(1/33=1) Geom=Check Guess=Read
 ----------------------------------------------------------------------

 TstMul:  Mul=     2
 TstMul:  ICh=     0
 TstMul:  Mul=     2
 Structure from the checkpoint file:  "MN_79_RKT02_BH76_M062X_631Gs.chk"
 Charge =  0 Multiplicity = 2

                         Standard orientation:
 ---------------------------------------------------------------------
 Center     Atomic      Atomic             Coordinates (Angstroms)
 Number     Number       Type             X           Y           Z
 ---------------------------------------------------------------------
      1          8           0       -0.296136   -0.110917   -0.000023
      2          1           0       -0.469112    0.851642    0.000044
      3          1           0        1.014989   -0.088663    0.000349
      4          1           0        1.823213    0.124360   -0.000212
 ---------------------------------------------------------------------

 SCF Done:  E(UM062X) =  -76.8399376174     A.U. after    1 cycles

 The electronic state is 2-A.
 Alpha  occ. eigenvalues --  -19.67627  -1.12513  -0.60594  -0.52566  -0.40871
 Alpha  occ. eigenvalues --   -0.38013
 Alpha virt. eigenvalues --    0.13245   0.24553   0.68461   0.85245   0.91028
 Alpha virt. eigenvalues --    0.94724   1.07072   1.13826   1.48215   1.76963
 Alpha virt. eigenvalues --    1.80086   1.81941   2.09222   2.47813
  Beta  occ. eigenvalues --  -19.66355  -1.07451  -0.55369  -0.46992  -0.38062
  Beta virt. eigenvalues --   -0.09858   0.14075   0.25754   0.69615   0.86245
  Beta virt. eigenvalues --    0.96089   0.97572   1.10008   1.17540   1.51607
  Beta virt. eigenvalues --    1.80361   1.81396   1.85259   2.12903   2.49716

 Mulliken charges and spin densities:
               1          2
     1  O   -0.571929   0.730315
     2  H    0.419545  -0.023997
     3  H    0.141731  -0.116405
     4  H    0.010653   0.410086
 Sum of Mulliken charges =  -0.00000   1.00000

 Dipole moment (field-independent basis, Debye):
    X=              0.3910    Y=              1.7216    Z=              0.0003  Tot=              1.7655
 Quadrupole moment (field-independent basis, Debye-Ang):
   XX=             -6.7931   YY=             -6.5453   ZZ=             -8.5222
   XY=             -0.8251   XZ=             -0.0001   YZ=              0.0000

  Exact polarizability:  22.557   0.729   6.766  -0.003  -0.001   2.589
 Approx polarizability:  20.637   1.545   7.189  -0.003  -0.001   2.503

 ******    1 imaginary frequencies (negative Signs) ******

                      1                      2                      3
                      A                      A                      A
 Frequencies --  -1424.4705               573.3972               657.2516
 Red. masses --      1.0917                 1.0193                 1.0145
 Frc consts  --      1.3051                 0.1975                 0.2582
 IR Inten    --    390.1290                18.4881                23.6299

                      4                      5                      6
                      A                      A                      A
 Frequencies --   1157.5551              2341.2437              3727.4927
 Red. masses --      1.0713                 1.0319                 1.0667
 Frc consts  --      0.8457                 3.3326                 8.7320
 IR Inten    --    145.6948               186.5082                18.4678

 - Thermochemistry -
 -------------------
 Temperature   298.150 Kelvin.  Pressure   1.00000 Atm.
 Atom     1 has atomic number  8 and mass  15.99491

 Molecular mass:    19.01839 amu.
 Principal axes and moments of inertia in atomic units:
                           1         2         3
     Eigenvalues --     3.23455  20.45335  23.68790
           X            0.99950  -0.03151  -0.00001
           Y            0.03151   0.99950  -0.00001
           Z            0.00001   0.00001   1.00000
 This molecule is an asymmetric top.
 Rotational symmetry number  1.
 Rotational temperatures (Kelvin)     26.77772     4.23471     3.65646
 Rotational constants (GHZ):         557.95713    88.23696    76.18832
    1 imaginary frequencies ignored.
 Zero-point vibrational energy      50583.7 (Joules/Mol)
                                   12.08980 (Kcal/Mol)
 Warning -- explicit consideration of   1 degrees of freedom as
           vibrations may cause significant error
 Vibrational temperatures:    824.99   945.64  1665.46  3368.53  5363.03
          (Kelvin)

 Zero-point correction=                           0.019266 (Hartree/Particle)
 Thermal correction to Energy=                    0.022425
 Thermal correction to Enthalpy=                  0.023369
 Thermal correction to Gibbs Free Energy=        -0.001418
 Sum of electronic and zero-point Energies=            -76.820671
 Sum of electronic and thermal Energies=               -76.817512
 Sum of electronic and thermal Enthalpies=             -76.816568
 Sum of electronic and thermal Free Energies=          -76.841356

                     E (Thermal)             CV                S
                      KCal/Mol        Cal/Mol-Kelvin    Cal/Mol-Kelvin
 Total                   14.072              8.201             52.169
 Electronic               0.000              0.000              1.377
 Translational            0.889              2.981             34.771
 Rotational               0.889              2.981             15.113
 Vibrational             12.295              2.239              0.908
 Vibration     1          0.930              1.089              0.498

 Optimization completed.
    -- Stationary point found.

 1\1\GINC-NODE06\Freq\UM062X\6-31G(d)\H3O1(2)\RPEVERATI\07-Oct-2020\0\\
 #P Freq M062X/6-31G* 5D 7F Integral=UltraFineGrid SCF=(NoSymm,XQC,MaxC
 yc=120) IOp(1/33=1) Geom=Check Guess=Read\\TS search on BH76.\\0,2\O,-
 0.2911926055,-0.1059295551,0.0001127941\H,-0.4523525857,0.8586780584,-
 0.0002298231\H,1.0201076172,-0.0997530748,0.0004265129\H,1.830882641,0
 .1033438002,-0.0002554841\\Version=ES64L-G16RevA.03\State=2-A\HF=-76.8
 399376\S2=0.760738\S2-1=0.\S2A=0.750027\RMSD=3.723e-10\RMSF=2.835e-05\
 ZeroPoint=0.0192663\Thermal=0.0224251\Dipole=0.1621332,0.6754007,-0.00

 Normal termination of Gaussian 16 at Wed Oct  7 13:33:20 2020.
