 Gaussian 16, Revision A.03,

 ----------------------------------------------------------------------
 #P Opt(TS,MaxCyc=50,NoEigenTest,MaxStep=10,AddRedundant) M062X/6-31G*
 5D 7F Integral=UltraFineGrid SCF=(NoSymm,XQC,MaxCyc=120) IOp(1/33=1)
 ----------------------------------------------------------------------

 TstMul:  Mul=     2
 TstMul:  ICh=     0
 TstMul:  Mul=     2
 Symbolic Z-matrix:
 Charge =  0 Multiplicity = 2

 SCF Done:  E(UM062X) =  -100.840594564     A.U. after   22 cycles
 SCF Done:  E(UM062X) =  -100.840511858     A.U. after   12 cycles
 SCF Done:  E(UM062X) =  -100.840407803     A.U. after   16 cycles
 SCF Done:  E(UM062X) =  -100.840196215     A.U. after   17 cycles
 SCF Done:  E(UM062X) =  -100.840031271     A.U. after   17 cycles
 SCF Done:  E(UM062X) =  -100.839910498     A.U. after   15 cycles
 SCF Done:  E(UM062X) =  -100.839824415     A.U. after   17 cycles
 SCF Done:  E(UM062X) =  -100.839792073     A.U. after   17 cycles
 SCF Done:  E(UM062X) =  -100.839782880     A.U. after   17 cycles
 SCF Done:  E(UM062X) =  -100.839785911     A.U. after   16 cycles
 SCF Done:  E(UM062X) =  -100.839785967     A.U. after   12 cycles
 Optimization completed.
    -- Stationary point found.
 Normal termination of Gaussian 16 at Wed Oct  7 13:33:08 2020.
 Gaussian 16:  ES64L-G16RevA.03 25-Dec-2016

 ----------------------------------------------------------------------
 #P Freq M062X/6-31G* 5D 7F Integral=UltraFineGrid SCF=(NoSymm,XQC,MaxC
 yc=120) IOp(1/33=1) Geom=Check Guess=Read
 ----------------------------------------------------------------------

 TstMul:  Mul=     2
 TstMul:  ICh=     0
 TstMul:  Mul=     2
 Structure from the checkpoint file:  "MN_86_RKT10_BH76_M062X_631Gs.chk"
 Charge =  0 Multiplicity = 2

                         Standard orientation:
 ---------------------------------------------------------------------
 Center     Atomic      Atomic             Coordinates (Angstroms)
 Number     Number       Type             X           Y           Z
 ---------------------------------------------------------------------
      1          1           0        0.000515   -1.048006    0.000000
      2          9           0        0.000000    0.320804    0.000000
      3          1           0       -0.000515   -1.839229    0.000000
 ---------------------------------------------------------------------

 SCF Done:  E(UM062X) =  -100.839785967     A.U. after    1 cycles

 The electronic state is 2-A'.
 Alpha  occ. eigenvalues --  -25.28097  -1.31755  -0.65190  -0.51716  -0.51716
 Alpha  occ. eigenvalues --   -0.46708
 Alpha virt. eigenvalues --    0.21132   0.63668   0.99935   1.24902   1.24902
 Alpha virt. eigenvalues --    1.33048   1.74060   1.87245   1.87245   1.91981
 Alpha virt. eigenvalues --    1.91983   2.12328
  Beta  occ. eigenvalues --  -25.26207  -1.24835  -0.53355  -0.48493  -0.48493
  Beta virt. eigenvalues --   -0.15005   0.23048   0.64545   1.10456   1.26538
  Beta virt. eigenvalues --    1.26538   1.40208   1.77964   1.90648   1.90648
  Beta virt. eigenvalues --    1.92483   1.92485   2.19405

 Mulliken charges and spin densities:
               1          2
     1  H    0.111525  -0.104592
     2  F   -0.169437   0.761975
     3  H    0.057912   0.342617
 Sum of Mulliken charges =   0.00000   1.00000

 Dipole moment (field-independent basis, Debye):
    X=              0.0000    Y=             -1.1015    Z=              0.0000  Tot=              1.1015
 Quadrupole moment (field-independent basis, Debye-Ang):
   XX=             -6.6818   YY=             -4.4199   ZZ=             -6.6818
   XY=              0.0004   XZ=              0.0000   YZ=              0.0000

  Exact polarizability:   1.697   0.007  21.141  -0.000  -0.000   1.697
 Approx polarizability:   1.714   0.007  18.223  -0.000   0.000   1.714

 ******    1 imaginary frequencies (negative Signs) ******

                      1                      2                      3
                     A'                     A'                     A'
 Frequencies --  -1324.4017               223.3830              2935.8090
 Red. masses --      1.0973                 1.0127                 1.0173
 Frc consts  --      1.1340                 0.0298                 5.1659
 IR Inten    --    731.3499                 0.7105               952.7712

 - Thermochemistry -
 -------------------
 Temperature   298.150 Kelvin.  Pressure   1.00000 Atm.
 Atom     1 has atomic number  1 and mass   1.00783

 Molecular mass:    21.01405 amu.
 Principal axes and moments of inertia in atomic units:
                           1         2         3
     Eigenvalues --     0.00000  21.38587  21.38587
           X            0.00007   1.00000   0.00000
           Y            1.00000  -0.00007   0.00000
           Z            0.00000   0.00000   1.00000
 This molecule is an asymmetric top.
 Rotational symmetry number  1.
 Rotational temperatures (Kelvin) ************     4.05005     4.05005
 Rotational constants (GHZ):      ************    84.38943    84.38942
    1 imaginary frequencies ignored.
 Zero-point vibrational energy      18896.2 (Joules/Mol)
                                    4.51629 (Kcal/Mol)
 Warning -- explicit consideration of   1 degrees of freedom as
           vibrations may cause significant error
 Vibrational temperatures:    321.40  4223.97
          (Kelvin)

 Zero-point correction=                           0.007197 (Hartree/Particle)
 Thermal correction to Energy=                    0.010555
 Thermal correction to Enthalpy=                  0.011499
 Thermal correction to Gibbs Free Energy=        -0.007092
 Sum of electronic and zero-point Energies=           -100.832589
 Sum of electronic and thermal Energies=              -100.829231
 Sum of electronic and thermal Enthalpies=            -100.828287
 Sum of electronic and thermal Free Energies=         -100.846878

                     E (Thermal)             CV                S
                      KCal/Mol        Cal/Mol-Kelvin    Cal/Mol-Kelvin
 Total                    6.623              7.767             39.127
 Electronic               0.000              0.000              1.377
 Translational            0.889              2.981             35.068
 Rotational               0.889              2.981              0.750
 Vibrational              4.846              1.806              1.932
 Vibration     1          0.649              1.805              1.932

 Optimization completed.
    -- Stationary point found.

 1\1\GINC-NODE60\Freq\UM062X\6-31G(d)\F1H2(2)\RPEVERATI\07-Oct-2020\0\\
 #P Freq M062X/6-31G* 5D 7F Integral=UltraFineGrid SCF=(NoSymm,XQC,MaxC
 yc=120) IOp(1/33=1) Geom=Check Guess=Read\\TS search on BH76.\\0,2\H,-
 0.008669153,-1.0734610631,0.\F,0.0561072722,0.2938157023,0.\H,-0.04743
 81192,-1.8637339807,0.\\Version=ES64L-G16RevA.03\State=2-A'\HF=-100.83
 9786\S2=0.759982\S2-1=0.\S2A=0.750013\RMSD=0.000e+00\RMSF=8.719e-06\Ze
 roPoint=0.0071972\Thermal=0.0105547\Dipole=-0.0206637,-0.4328571,0.\Di
 poleDeriv=0.0661173,-0.060883,0.,-0.060275,-1.1991658,0.,0.,0.,0.06901

 Normal termination of Gaussian 16 at Wed Oct  7 13:33:28 2020.
