 Gaussian 16, Revision A.03,

 ----------------------------------------------------------------------
 #P Opt(TS,MaxCyc=50,NoEigenTest,MaxStep=10,AddRedundant) M062X/6-31G*
 5D 7F Integral=UltraFineGrid SCF=(NoSymm,XQC,MaxCyc=120) IOp(1/33=1)
 ----------------------------------------------------------------------

 TstMul:  Mul=     2
 TstMul:  ICh=     0
 TstMul:  Mul=     2
 Symbolic Z-matrix:
 Charge =  0 Multiplicity = 2

 SCF Done:  E(UM062X) =  -116.156659166     A.U. after   19 cycles
 SCF Done:  E(UM062X) =  -116.156782618     A.U. after   16 cycles
 SCF Done:  E(UM062X) =  -116.156912927     A.U. after   19 cycles
 SCF Done:  E(UM062X) =  -116.156920606     A.U. after   15 cycles
 SCF Done:  E(UM062X) =  -116.156904765     A.U. after   19 cycles
 SCF Done:  E(UM062X) =  -116.156909157     A.U. after   16 cycles
 SCF Done:  E(UM062X) =  -116.156911697     A.U. after   15 cycles
 SCF Done:  E(UM062X) =  -116.156912245     A.U. after   11 cycles
 SCF Done:  E(UM062X) =  -116.156912941     A.U. after   12 cycles
 SCF Done:  E(UM062X) =  -116.156911817     A.U. after   15 cycles
 Optimization completed.
    -- Stationary point found.
 Normal termination of Gaussian 16 at Wed Oct  7 13:33:59 2020.
 Gaussian 16:  ES64L-G16RevA.03 25-Dec-2016

 ----------------------------------------------------------------------
 #P Freq M062X/6-31G* 5D 7F Integral=UltraFineGrid SCF=(NoSymm,XQC,MaxC
 yc=120) IOp(1/33=1) Geom=Check Guess=Read
 ----------------------------------------------------------------------

 TstMul:  Mul=     2
 TstMul:  ICh=     0
 TstMul:  Mul=     2
 Structure from the checkpoint file:  "MN_81_RKT04_BH76_M062X_631Gs.chk"
 Charge =  0 Multiplicity = 2

                         Standard orientation:
 ---------------------------------------------------------------------
 Center     Atomic      Atomic             Coordinates (Angstroms)
 Number     Number       Type             X           Y           Z
 ---------------------------------------------------------------------
      1          6           0       -1.203381    0.008213    0.000115
      2          8           0        1.289546   -0.109130   -0.000026
      3          1           0        0.014733   -0.173092    0.007184
      4          1           0       -1.555847   -0.355317    0.964014
      5          1           0       -1.381314    1.074239   -0.134523
      6          1           0       -1.570608   -0.583124   -0.837219
      7          1           0        1.396958    0.861058    0.000062
 ---------------------------------------------------------------------

 SCF Done:  E(UM062X) =  -116.156911817     A.U. after    1 cycles

 The electronic state is 2-A.
 Alpha  occ. eigenvalues --  -19.65170 -10.54862  -1.10650  -0.80428  -0.56720
 Alpha  occ. eigenvalues --   -0.50151  -0.48454  -0.48134  -0.38756  -0.33578
 Alpha virt. eigenvalues --    0.13151   0.17806   0.20951   0.21221   0.33033
 Alpha virt. eigenvalues --    0.55993   0.56063   0.59716   0.82080   0.89026
 Alpha virt. eigenvalues --    0.94916   0.95084   0.97777   0.99221   1.03689

  Beta  occ. eigenvalues --  -19.63966 -10.54409  -1.06175  -0.78326  -0.52632
  Beta  occ. eigenvalues --   -0.47626  -0.47545  -0.43494  -0.36210
  Beta virt. eigenvalues --   -0.08210   0.13676   0.18214   0.21529   0.21774
  Beta virt. eigenvalues --    0.35433   0.56537   0.56696   0.62935   0.82139
  Beta virt. eigenvalues --    0.90824   0.96136   0.96274   0.98561   1.00562

 Mulliken charges and spin densities:
               1          2
     1  C   -0.687309   0.496579
     2  O   -0.639114   0.650226
     3  H    0.339568  -0.082916
     4  H    0.197867  -0.013521
     5  H    0.183251  -0.017724
     6  H    0.199255  -0.013046
     7  H    0.406481  -0.019598
 Sum of Mulliken charges =   0.00000   1.00000

 Dipole moment (field-independent basis, Debye):
    X=             -1.2839    Y=              1.5841    Z=              0.0016  Tot=              2.0390
 Quadrupole moment (field-independent basis, Debye-Ang):
   XX=            -14.6222   YY=            -12.5787   ZZ=            -14.4846
   XY=              2.6535   XZ=             -0.0013   YZ=              0.0083

  Exact polarizability:  36.363   1.063  18.032  -0.025  -0.009  14.575
 Approx polarizability:  32.519   0.173  18.969  -0.042  -0.012  14.654

 ******    1 imaginary frequencies (negative Signs) ******

                      1                      2                      3
                      A                      A                      A
 Frequencies --  -1462.3109                86.9956               282.1836
 Red. masses --      1.0872                 1.0450                 1.0689
 Frc consts  --      1.3698                 0.0047                 0.0501
 IR Inten    --    984.9924                87.3220                 8.8260

                      4                      5                      6
                      A                      A                      A
 Frequencies --    349.9368               691.6356               925.2083
 Red. masses --      1.1538                 3.0630                 1.1954
 Frc consts  --      0.0832                 0.8633                 0.6029
 IR Inten    --     11.4225                67.7169               140.6611

                      7                      8                      9
                      A                      A                      A
 Frequencies --   1179.5634              1285.6964              1446.0047
 Red. masses --      1.1097                 1.1374                 1.1132
 Frc consts  --      0.9097                 1.1077                 1.3714
 IR Inten    --     38.4366                 7.7484                35.6744

                     10                     11                     12
                      A                      A                      A
 Frequencies --   1484.3362              1520.8814              3122.0697
 Red. masses --      1.0513                 1.0171                 1.0232
 Frc consts  --      1.3647                 1.3862                 5.8764
 IR Inten    --      1.4050                22.6743                 1.9974

                     13                     14                     15
                      A                      A                      A
 Frequencies --   3245.8530              3251.6660              3747.6977
 Red. masses --      1.1080                 1.1087                 1.0666
 Frc consts  --      6.8778                 6.9069                 8.8265
 IR Inten    --      9.1422                 6.4821                23.0059

 - Thermochemistry -
 -------------------
 Temperature   298.150 Kelvin.  Pressure   1.00000 Atm.
 Atom     1 has atomic number  6 and mass  12.00000

 Molecular mass:    33.03404 amu.
 Principal axes and moments of inertia in atomic units:
                           1         2         3
     Eigenvalues --    15.06484 193.52539 196.72497
           X            0.99976   0.02200   0.00002
           Y           -0.02200   0.99976  -0.00002
           Z           -0.00002   0.00002   1.00000
 This molecule is an asymmetric top.
 Rotational symmetry number  1.
 Rotational temperatures (Kelvin)      5.74941     0.44756     0.44028
 Rotational constants (GHZ):         119.79823     9.32560     9.17393
    1 imaginary frequencies ignored.
 Zero-point vibrational energy     135296.0 (Joules/Mol)
                                   32.33653 (Kcal/Mol)
 Warning -- explicit consideration of   3 degrees of freedom as
           vibrations may cause significant error
 Vibrational temperatures:    125.17   406.00   503.48   995.11  1331.17
          (Kelvin)           1697.13  1849.83  2080.48  2135.63  2188.21
                             4491.96  4670.06  4678.42  5392.10

 Zero-point correction=                           0.051532 (Hartree/Particle)
 Thermal correction to Energy=                    0.056139
 Thermal correction to Enthalpy=                  0.057083
 Thermal correction to Gibbs Free Energy=         0.025849
 Sum of electronic and zero-point Energies=           -116.105380
 Sum of electronic and thermal Energies=              -116.100773
 Sum of electronic and thermal Enthalpies=            -116.099828
 Sum of electronic and thermal Free Energies=         -116.131063

                     E (Thermal)             CV                S
                      KCal/Mol        Cal/Mol-Kelvin    Cal/Mol-Kelvin
 Total                   35.228             13.127             65.739
 Electronic               0.000              0.000              1.377
 Translational            0.889              2.981             36.416
 Rotational               0.889              2.981             20.978
 Vibrational             33.450              7.165              6.968
 Vibration     1          0.601              1.958              3.727
 Vibration     2          0.681              1.707              1.520
 Vibration     3          0.727              1.575              1.166

                           ! Non-Optimized Parameters !
 Normal termination of Gaussian 16 at Wed Oct  7 13:34:37 2020.
