 Gaussian 16, Revision A.03,

 ----------------------------------------------------------------------
 #P Opt(TS,MaxCyc=50,NoEigenTest,MaxStep=10,AddRedundant) M062X/6-31G*
 5D 7F Integral=UltraFineGrid SCF=(NoSymm,XQC,MaxCyc=120) IOp(1/33=1)
 ----------------------------------------------------------------------

 TstMul:  Mul=     2
 TstMul:  ICh=     0
 TstMul:  Mul=     2
 Symbolic Z-matrix:
 Charge =  0 Multiplicity = 2

 SCF Done:  E(UM062X) =  -343.571279036     A.U. after   16 cycles
 SCF Done:  E(UM062X) =  -343.571281606     A.U. after   13 cycles
 SCF Done:  E(UM062X) =  -343.571334642     A.U. after   15 cycles
 SCF Done:  E(UM062X) =  -343.571419285     A.U. after   14 cycles
 SCF Done:  E(UM062X) =  -343.571219390     A.U. after   14 cycles
 SCF Done:  E(UM062X) =  -343.571222875     A.U. after   14 cycles
 SCF Done:  E(UM062X) =  -343.571225028     A.U. after   10 cycles
 SCF Done:  E(UM062X) =  -343.571225026     A.U. after    8 cycles
 Optimization completed.
    -- Stationary point found.
 Normal termination of Gaussian 16 at Wed Oct  7 13:33:04 2020.
 Gaussian 16:  ES64L-G16RevA.03 25-Dec-2016

 ----------------------------------------------------------------------
 #P Freq M062X/6-31G* 5D 7F Integral=UltraFineGrid SCF=(NoSymm,XQC,MaxC
 yc=120) IOp(1/33=1) Geom=Check Guess=Read
 ----------------------------------------------------------------------

 TstMul:  Mul=     2
 TstMul:  ICh=     0
 TstMul:  Mul=     2
 Structure from the checkpoint file:  "MN_88_RKT12_BH76_M062X_631Gs.chk"
 Charge =  0 Multiplicity = 2

                         Standard orientation:
 ---------------------------------------------------------------------
 Center     Atomic      Atomic             Coordinates (Angstroms)
 Number     Number       Type             X           Y           Z
 ---------------------------------------------------------------------
      1         15           0        0.220609    0.000002   -0.111977
      2          1           0        0.254686    1.028969    0.862375
      3          1           0        0.255084   -1.028733    0.862606
      4          1           0       -1.257796   -0.000272   -0.142095
      5          1           0       -2.561111    0.000000    0.096774
 ---------------------------------------------------------------------

 SCF Done:  E(UM062X) =  -343.571225026     A.U. after    1 cycles

 The electronic state is 2-A.
 Alpha  occ. eigenvalues --  -78.02553  -6.85284  -4.96716  -4.96475  -4.96270
 Alpha  occ. eigenvalues --   -0.73552  -0.48745  -0.44848  -0.35638  -0.29506
 Alpha virt. eigenvalues --    0.06914   0.07699   0.17641   0.32257   0.32910
 Alpha virt. eigenvalues --    0.36594   0.40659   0.70171   0.70522   0.71557
 Alpha virt. eigenvalues --    0.71748   0.75857   0.82802   1.05386   1.19431

  Beta  occ. eigenvalues --  -78.02336  -6.85212  -4.96401  -4.96286  -4.96009
  Beta  occ. eigenvalues --   -0.72655  -0.45305  -0.44670  -0.33272
  Beta virt. eigenvalues --   -0.07267   0.07068   0.08106   0.17625   0.32425
  Beta virt. eigenvalues --    0.32826   0.37679   0.40395   0.71165   0.71735
  Beta virt. eigenvalues --    0.72344   0.72885   0.73799   0.84228   1.04492

 Mulliken charges and spin densities:
               1          2
     1  P   -0.022217   0.263254
     2  H    0.039623  -0.006462
     3  H    0.039620  -0.006463
     4  H   -0.048149  -0.092725
     5  H   -0.008876   0.842395
 Sum of Mulliken charges =   0.00000   1.00000

 Dipole moment (field-independent basis, Debye):
    X=             -0.1103    Y=              0.0000    Z=              0.7676  Tot=              0.7755
 Quadrupole moment (field-independent basis, Debye-Ang):
   XX=            -17.9170   YY=            -15.8563   ZZ=            -17.5103
   XY=             -0.0001   XZ=              1.1241   YZ=              0.0000

  Exact polarizability:  40.705  -0.001  21.499  -0.579   0.000  19.703
 Approx polarizability:  42.518  -0.001  24.671  -0.381   0.000  21.700

 ******    1 imaginary frequencies (negative Signs) ******

                      1                      2                      3
                      A                      A                      A
 Frequencies --   -914.3161               354.0363               368.4498
 Red. masses --      1.0118                 1.0202                 1.0080
 Frc consts  --      0.4983                 0.0753                 0.0806
 IR Inten    --     59.0680                 3.6010                 3.8078

                      4                      5                      6
                      A                      A                      A
 Frequencies --   1018.1133              1159.0549              1172.8826
 Red. masses --      1.0840                 1.0237                 1.0298
 Frc consts  --      0.6620                 0.8102                 0.8347
 IR Inten    --     10.0487                15.5537                10.2282

                      7                      8                      9
                      A                      A                      A
 Frequencies --   1593.9440              2463.9508              2472.8039
 Red. masses --      1.0500                 1.0352                 1.0410
 Frc consts  --      1.5718                 3.7029                 3.7504
 IR Inten    --     45.8855                63.5150                98.4303

 - Thermochemistry -
 -------------------
 Temperature   298.150 Kelvin.  Pressure   1.00000 Atm.
 Atom     1 has atomic number 15 and mass  30.97376

 Molecular mass:    35.00506 amu.
 Principal axes and moments of inertia in atomic units:
                           1         2         3
     Eigenvalues --    14.12419  40.42947  41.54398
           X            0.99961  -0.00000   0.02792
           Y            0.00000   1.00000   0.00001
           Z           -0.02792  -0.00001   0.99961
 This molecule is an asymmetric top.
 Rotational symmetry number  1.
 Rotational temperatures (Kelvin)      6.13231     2.14235     2.08487
 Rotational constants (GHZ):         127.77657    44.63925    43.44170
    1 imaginary frequencies ignored.
 Zero-point vibrational energy      63421.4 (Joules/Mol)
                                   15.15809 (Kcal/Mol)
 Warning -- explicit consideration of   2 degrees of freedom as
           vibrations may cause significant error
 Vibrational temperatures:    509.38   530.12  1464.84  1667.62  1687.52
          (Kelvin)           2293.33  3545.08  3557.81

 Zero-point correction=                           0.024156 (Hartree/Particle)
 Thermal correction to Energy=                    0.027763
 Thermal correction to Enthalpy=                  0.028707
 Thermal correction to Gibbs Free Energy=         0.001053
 Sum of electronic and zero-point Energies=           -343.547069
 Sum of electronic and thermal Energies=              -343.543462
 Sum of electronic and thermal Enthalpies=            -343.542518
 Sum of electronic and thermal Free Energies=         -343.570173

                     E (Thermal)             CV                S
                      KCal/Mol        Cal/Mol-Kelvin    Cal/Mol-Kelvin
 Total                   17.421              9.937             58.204
 Electronic               0.000              0.000              1.377
 Translational            0.889              2.981             36.589
 Rotational               0.889              2.981             17.813
 Vibrational             15.644              3.976              2.425
 Vibration     1          0.730              1.567              1.148
 Vibration     2          0.741              1.537              1.086

 Optimization completed.
    -- Stationary point found.

 1\1\GINC-NODE27\Freq\UM062X\6-31G(d)\H4P1(2)\RPEVERATI\07-Oct-2020\0\\
 #P Freq M062X/6-31G* 5D 7F Integral=UltraFineGrid SCF=(NoSymm,XQC,MaxC
 yc=120) IOp(1/33=1) Geom=Check Guess=Read\\TS search on BH76.\\0,2\P,0
 .2286782012,0.0004847197,-0.1156583427\H,0.2613671828,1.0340098432,0.8
 539050139\H,0.2683401864,-1.0236579465,0.8635543034\H,-1.249774481,-0.
 004637926,-0.1428694629\H,-2.5526156803,-0.0074238425,0.0985566137\\Ve
 rsion=ES64L-G16RevA.03\State=2-A\HF=-343.571225\S2=0.757262\S2-1=0.\S2
 A=0.750004\RMSD=1.050e-09\RMSF=1.249e-05\ZeroPoint=0.0241559\Thermal=0

 Normal termination of Gaussian 16 at Wed Oct  7 13:33:29 2020.
