 Gaussian 16, Revision A.03,

 ----------------------------------------------------------------------
 #P Opt(TS,MaxCyc=50,NoEigenTest,MaxStep=10,AddRedundant) M062X/6-31G*
 5D 7F Integral=UltraFineGrid SCF=(NoSymm,XQC,MaxCyc=120) IOp(1/33=1)
 ----------------------------------------------------------------------

 TstMul:  Mul=     2
 TstMul:  ICh=     0
 TstMul:  Mul=     2
 Symbolic Z-matrix:
 Charge =  0 Multiplicity = 2

 SCF Done:  E(UM062X) =  -40.9522427016     A.U. after   15 cycles
 SCF Done:  E(UM062X) =  -40.9523917638     A.U. after   14 cycles
 SCF Done:  E(UM062X) =  -40.9520711952     A.U. after   14 cycles
 SCF Done:  E(UM062X) =  -40.9520385390     A.U. after   14 cycles
 SCF Done:  E(UM062X) =  -40.9520346029     A.U. after   10 cycles
 SCF Done:  E(UM062X) =  -40.9520469215     A.U. after    9 cycles
 SCF Done:  E(UM062X) =  -40.9520479288     A.U. after    9 cycles
 Optimization completed.
    -- Stationary point found.
 Normal termination of Gaussian 16 at Wed Oct  7 13:32:27 2020.
 Gaussian 16:  ES64L-G16RevA.03 25-Dec-2016

 ----------------------------------------------------------------------
 #P Freq M062X/6-31G* 5D 7F Integral=UltraFineGrid SCF=(NoSymm,XQC,MaxC
 yc=120) IOp(1/33=1) Geom=Check Guess=Read
 ----------------------------------------------------------------------

 TstMul:  Mul=     2
 TstMul:  ICh=     0
 TstMul:  Mul=     2
 Structure from the checkpoint file:  "MN_80_RKT03_BH76_M062X_631Gs.chk"
 Charge =  0 Multiplicity = 2

                         Standard orientation:
 ---------------------------------------------------------------------
 Center     Atomic      Atomic             Coordinates (Angstroms)
 Number     Number       Type             X           Y           Z
 ---------------------------------------------------------------------
      1          6           0        0.000000    0.272807    0.000000
      2          1           0        1.058170    0.519987    0.000000
      3          1           0       -0.529398    0.518901    0.916539
      4          1           0       -0.529398    0.518901   -0.916539
      5          1           0        0.000194   -1.157165    0.000000
      6          1           0        0.000431   -2.037465    0.000000
 ---------------------------------------------------------------------

 SCF Done:  E(UM062X) =  -40.9520479288     A.U. after    1 cycles

 The electronic state is 2-A'.
 Alpha  occ. eigenvalues --  -10.54646  -0.79037  -0.51119  -0.48177  -0.48175
 Alpha  occ. eigenvalues --   -0.25896
 Alpha virt. eigenvalues --    0.16707   0.21869   0.21869   0.24872   0.57075
 Alpha virt. eigenvalues --    0.57075   0.60999   0.73495   0.96314   0.96316
 Alpha virt. eigenvalues --    0.99394   1.04920   1.23306   1.68449   1.68450

  Beta  occ. eigenvalues --  -10.54016  -0.76260  -0.47016  -0.47014  -0.46407
  Beta virt. eigenvalues --   -0.02868   0.17102   0.22744   0.22745   0.25834
  Beta virt. eigenvalues --    0.57791   0.57791   0.66156   0.77432   0.98327
  Beta virt. eigenvalues --    0.98331   1.02087   1.10022   1.29720   1.73549

 Mulliken charges and spin densities:
               1          2
     1  C   -0.567203   0.767256
     2  H    0.189143  -0.028010
     3  H    0.189140  -0.028009
     4  H    0.189140  -0.028009
     5  H   -0.003335  -0.156255
     6  H    0.003116   0.473027
 Sum of Mulliken charges =  -0.00000   1.00000

 Dipole moment (field-independent basis, Debye):
    X=             -0.0003    Y=              0.6872    Z=              0.0000  Tot=              0.6872
 Quadrupole moment (field-independent basis, Debye-Ang):
   XX=             -9.2757   YY=            -11.1166   ZZ=             -9.2761
   XY=              0.0012   XZ=             -0.0000   YZ=              0.0000

  Exact polarizability:  12.407   0.005  27.904   0.000  -0.000  12.406
 Approx polarizability:  12.099   0.000  26.712   0.000   0.000  12.099

 ******    1 imaginary frequencies (negative Signs) ******

                      1                      2                      3
                     A'                     A'                     A"
 Frequencies --  -1474.6601               561.9755               564.2210
 Red. masses --      1.1389                 1.0468                 1.0467
 Frc consts  --      1.4592                 0.1948                 0.1963
 IR Inten    --      3.1182                 1.6567                 1.5752

                      4                      5                      6
                     A'                     A'                     A"
 Frequencies --   1086.4623              1178.4843              1178.6586
 Red. masses --      1.0850                 1.0470                 1.0471
 Frc consts  --      0.7546                 0.8567                 0.8571
 IR Inten    --      7.7285                 0.5389                 0.5269

                      7                      8                      9
                     A"                     A'                     A'
 Frequencies --   1462.7670              1463.0338              1860.8300
 Red. masses --      1.0749                 1.0751                 1.0904
 Frc consts  --      1.3551                 1.3558                 2.2245
 IR Inten    --      3.7434                 3.7412                22.9952

                     10                     11                     12
                     A'                     A"                     A'
 Frequencies --   3132.9411              3281.5004              3281.9373
 Red. masses --      1.0170                 1.1128                 1.1128
 Frc consts  --      5.8812                 7.0598                 7.0618
 IR Inten    --      0.2592                 9.0748                 9.0344

 - Thermochemistry -
 -------------------
 Temperature   298.150 Kelvin.  Pressure   1.00000 Atm.
 Atom     1 has atomic number  6 and mass  12.00000

 Molecular mass:    17.03913 amu.
 Principal axes and moments of inertia in atomic units:
                           1         2         3
     Eigenvalues --    12.09388  31.35401  31.35459
           X           -0.00005   1.00000   0.00000
           Y            1.00000   0.00005   0.00000
           Z            0.00000   0.00000   1.00000
 This molecule is an asymmetric top.
 Rotational symmetry number  1.
 Rotational temperatures (Kelvin)      7.16180     2.76245     2.76240
 Rotational constants (GHZ):         149.22769    57.56015    57.55908
    1 imaginary frequencies ignored.
 Zero-point vibrational energy     113961.1 (Joules/Mol)
                                   27.23736 (Kcal/Mol)
 Warning -- explicit consideration of   2 degrees of freedom as
           vibrations may cause significant error
 Vibrational temperatures:    808.56   811.79  1563.18  1695.58  1695.83
          (Kelvin)           2104.60  2104.98  2677.32  4507.60  4721.35
                             4721.98

 Zero-point correction=                           0.043405 (Hartree/Particle)
 Thermal correction to Energy=                    0.046676
 Thermal correction to Enthalpy=                  0.047620
 Thermal correction to Gibbs Free Energy=         0.021883
 Sum of electronic and zero-point Energies=            -40.908642
 Sum of electronic and thermal Energies=               -40.905372
 Sum of electronic and thermal Enthalpies=             -40.904427
 Sum of electronic and thermal Free Energies=          -40.930165

                     E (Thermal)             CV                S
                      KCal/Mol        Cal/Mol-Kelvin    Cal/Mol-Kelvin
 Total                   29.290              9.105             54.168
 Electronic               0.000              0.000              1.377
 Translational            0.889              2.981             34.443
 Rotational               0.889              2.981             17.126
 Vibrational             27.512              3.143              1.222
 Vibration     1          0.918              1.114              0.520
 Vibration     2          0.920              1.109              0.515

 Optimization completed.
    -- Stationary point found.

 1\1\GINC-NODE33\Freq\UM062X\6-31G(d)\C1H5(2)\RPEVERATI\07-Oct-2020\0\\
 #P Freq M062X/6-31G* 5D 7F Integral=UltraFineGrid SCF=(NoSymm,XQC,MaxC
 yc=120) IOp(1/33=1) Geom=Check Guess=Read\\TS search on BH76.\\0,2\C,-
 0.0003140722,0.2792102271,0.\H,1.0578738883,0.5263146512,0.\H,-0.52969
 43517,0.5253425369,0.916538785\H,-0.5296943517,0.5253425369,-0.9165387
 85\H,-0.0002217774,-1.1507616482,0.\H,-0.0000477953,-2.0310616527,0.\\
 Version=ES64L-G16RevA.03\State=2-A'\HF=-40.9520479\S2=0.759903\S2-1=0.
 \S2A=0.750036\RMSD=6.908e-10\RMSF=1.451e-05\ZeroPoint=0.0434055\Therma

 Normal termination of Gaussian 16 at Wed Oct  7 13:32:50 2020.
