 Gaussian 16, Revision A.03,

 ----------------------------------------------------------------------
 #P Opt(TS,MaxCyc=50,NoEigenTest,MaxStep=10,AddRedundant) M062X/6-31G*
 5D 7F Integral=UltraFineGrid SCF=(NoSymm,XQC,MaxCyc=120) IOp(1/33=1)
 ----------------------------------------------------------------------

 TstMul:  Mul=     2
 TstMul:  ICh=     0
 TstMul:  Mul=     2
 Symbolic Z-matrix:
 Charge =  0 Multiplicity = 2

 SCF Done:  E(UM062X) =  -500.561729685     A.U. after   18 cycles
 SCF Done:  E(UM062X) =  -500.562385485     A.U. after   17 cycles
 SCF Done:  E(UM062X) =  -500.562099176     A.U. after   17 cycles
 SCF Done:  E(UM062X) =  -500.561563140     A.U. after   15 cycles
 SCF Done:  E(UM062X) =  -500.561044792     A.U. after   15 cycles
 SCF Done:  E(UM062X) =  -500.560566459     A.U. after   15 cycles
 SCF Done:  E(UM062X) =  -500.560208032     A.U. after   15 cycles
 SCF Done:  E(UM062X) =  -500.560075860     A.U. after   14 cycles
 SCF Done:  E(UM062X) =  -500.560135767     A.U. after   11 cycles
 SCF Done:  E(UM062X) =  -500.560248104     A.U. after   14 cycles
 SCF Done:  E(UM062X) =  -500.560334983     A.U. after   14 cycles
 SCF Done:  E(UM062X) =  -500.560384700     A.U. after   14 cycles
 SCF Done:  E(UM062X) =  -500.560392369     A.U. after   11 cycles
 SCF Done:  E(UM062X) =  -500.560394117     A.U. after   10 cycles
 SCF Done:  E(UM062X) =  -500.560393806     A.U. after   10 cycles
 Optimization completed.
    -- Stationary point found.
 Normal termination of Gaussian 16 at Wed Oct  7 13:37:56 2020.
 Gaussian 16:  ES64L-G16RevA.03 25-Dec-2016

 ----------------------------------------------------------------------
 #P Freq M062X/6-31G* 5D 7F Integral=UltraFineGrid SCF=(NoSymm,XQC,MaxC
 yc=120) IOp(1/33=1) Geom=Check Guess=Read
 ----------------------------------------------------------------------

 TstMul:  Mul=     2
 TstMul:  ICh=     0
 TstMul:  Mul=     2
 Structure from the checkpoint file:  "MN_84_RKT08_BH76_M062X_631Gs.chk"
 Charge =  0 Multiplicity = 2

                         Standard orientation:
 ---------------------------------------------------------------------
 Center     Atomic      Atomic             Coordinates (Angstroms)
 Number     Number       Type             X           Y           Z
 ---------------------------------------------------------------------
      1          6           0        1.893723    0.000007   -0.000002
      2          1           0        2.073879   -0.828797    0.675907
      3          1           0        2.075088    0.999678    0.379402
      4          1           0        2.073126   -0.171349   -1.055795
      5          1           0        0.345494   -0.000003    0.000212
      6         17           0       -1.054701    0.000025    0.000017
 ---------------------------------------------------------------------

 SCF Done:  E(UM062X) =  -500.560393806     A.U. after    1 cycles

 The electronic state is 2-A.
 Alpha  occ. eigenvalues -- -102.62355 -10.59069  -9.78742  -7.51312  -7.50235
 Alpha  occ. eigenvalues --   -7.50235  -0.91376  -0.82097  -0.52911  -0.52349
 Alpha  occ. eigenvalues --   -0.52348  -0.37080  -0.37080  -0.32224
 Alpha virt. eigenvalues --    0.13769   0.16562   0.19383   0.19383   0.44052
 Alpha virt. eigenvalues --    0.47388   0.47392   0.48692   0.58223   0.58277
 Alpha virt. eigenvalues --    0.58282   0.88810   0.92418   0.92422   0.94162

  Beta  occ. eigenvalues -- -102.61994 -10.58481  -9.78620  -7.50365  -7.50121
  Beta  occ. eigenvalues --   -7.50121  -0.89638  -0.78443  -0.51102  -0.51100
  Beta  occ. eigenvalues --   -0.49315  -0.36463  -0.36463
  Beta virt. eigenvalues --   -0.09654   0.14570   0.19548   0.20414   0.20414
  Beta virt. eigenvalues --    0.44816   0.47709   0.47712   0.50572   0.58855
  Beta virt. eigenvalues --    0.58861   0.62580   0.90556   0.94382   0.94385

 Mulliken charges and spin densities:
               1          2
     1  C   -0.553084   0.890792
     2  H    0.221410  -0.034951
     3  H    0.221388  -0.034976
     4  H    0.221421  -0.034943
     5  H    0.101501  -0.071161
     6  Cl  -0.212637   0.285238
 Sum of Mulliken charges =  -0.00000   1.00000

 Dipole moment (field-independent basis, Debye):
    X=              3.1193    Y=             -0.0003    Z=             -0.0001  Tot=              3.1193
 Quadrupole moment (field-independent basis, Debye-Ang):
   XX=            -18.9763   YY=            -20.9499   ZZ=            -20.9502
   XY=              0.0008   XZ=              0.0009   YZ=             -0.0000

  Exact polarizability:  40.842   0.002  17.667   0.000   0.006  17.670
 Approx polarizability:  39.642   0.005  18.319   0.005  -0.000  18.319

 ******    1 imaginary frequencies (negative Signs) ******

                      1                      2                      3
                      A                      A                      A
 Frequencies --   -713.8497               334.9654               340.4208
 Red. masses --      2.1084                 1.0322                 1.0321
 Frc consts  --      0.6330                 0.0682                 0.0705
 IR Inten    --     31.3619                 1.7948                 1.7428

                      4                      5                      6
                      A                      A                      A
 Frequencies --    710.0005               815.2534               816.2428
 Red. masses --      1.3170                 1.0473                 1.0475
 Frc consts  --      0.3912                 0.4101                 0.4112
 IR Inten    --     54.0303                21.2722                21.5314

                      7                      8                      9
                      A                      A                      A
 Frequencies --   1216.1456              1445.2404              1445.6475
 Red. masses --      1.3337                 1.0919                 1.0919
 Frc consts  --      1.1622                 1.3438                 1.3445
 IR Inten    --     31.7802                 5.1032                 5.0857

                     10                     11                     12
                      A                      A                      A
 Frequencies --   3145.7410              3313.4769              3314.0402
 Red. masses --      1.0125                 1.1157                 1.1156
 Frc consts  --      5.9033                 7.2169                 7.2192
 IR Inten    --      0.7418                 0.1599                 0.1624

 - Thermochemistry -
 -------------------
 Temperature   298.150 Kelvin.  Pressure   1.00000 Atm.
 Atom     1 has atomic number  6 and mass  12.00000

 Molecular mass:    51.00015 amu.
 Principal axes and moments of inertia in atomic units:
                           1         2         3
     Eigenvalues --    12.34863 341.65907 341.65951
           X            1.00000   0.00000   0.00000
           Y           -0.00000   1.00000  -0.00003
           Z           -0.00000   0.00003   1.00000
 This molecule is an asymmetric top.
 Rotational symmetry number  1.
 Rotational temperatures (Kelvin)      7.01405     0.25351     0.25351
 Rotational constants (GHZ):         146.14906     5.28229     5.28228
    1 imaginary frequencies ignored.
 Zero-point vibrational energy     101067.5 (Joules/Mol)
                                   24.15572 (Kcal/Mol)
 Warning -- explicit consideration of   2 degrees of freedom as
           vibrations may cause significant error
 Vibrational temperatures:    481.94   489.79  1021.53  1172.97  1174.39
          (Kelvin)           1749.76  2079.38  2079.96  4526.02  4767.35
                             4768.16

 Zero-point correction=                           0.038495 (Hartree/Particle)
 Thermal correction to Energy=                    0.042362
 Thermal correction to Enthalpy=                  0.043306
 Thermal correction to Gibbs Free Energy=         0.012812
 Sum of electronic and zero-point Energies=           -500.521899
 Sum of electronic and thermal Energies=              -500.518032
 Sum of electronic and thermal Enthalpies=            -500.517088
 Sum of electronic and thermal Free Energies=         -500.547582

                     E (Thermal)             CV                S
                      KCal/Mol        Cal/Mol-Kelvin    Cal/Mol-Kelvin
 Total                   26.583             11.598             64.180
 Electronic               0.000              0.000              1.377
 Translational            0.889              2.981             37.711
 Rotational               0.889              2.981             21.893
 Vibrational             24.805              5.637              3.199
 Vibration     1          0.716              1.606              1.236
 Vibration     2          0.720              1.595              1.210

 Optimization completed.
    -- Stationary point found.
 Normal termination of Gaussian 16 at Wed Oct  7 13:38:46 2020.
