 Gaussian 16, Revision A.03,

 ----------------------------------------------------------------------
 #P Opt(TS,MaxCyc=50,NoEigenTest,MaxStep=10,AddRedundant) M062X/6-31G*
 5D 7F Integral=UltraFineGrid SCF=(NoSymm,XQC,MaxCyc=120) IOp(1/33=1)
 ----------------------------------------------------------------------

 TstMul:  Mul=     2
 TstMul:  ICh=     0
 TstMul:  Mul=     2
 Symbolic Z-matrix:
 Charge =  0 Multiplicity = 2

 SCF Done:  E(UM062X) =  -132.195773085     A.U. after   23 cycles
 SCF Done:  E(UM062X) =  -132.195851258     A.U. after   18 cycles
 SCF Done:  E(UM062X) =  -132.195772119     A.U. after   20 cycles
 SCF Done:  E(UM062X) =  -132.195728035     A.U. after   16 cycles
 SCF Done:  E(UM062X) =  -132.195726978     A.U. after   14 cycles
 SCF Done:  E(UM062X) =  -132.195789986     A.U. after   19 cycles
 SCF Done:  E(UM062X) =  -132.195821249     A.U. after   19 cycles
 SCF Done:  E(UM062X) =  -132.195985711     A.U. after   18 cycles
 SCF Done:  E(UM062X) =  -132.196067326     A.U. after   19 cycles
 SCF Done:  E(UM062X) =  -132.196169163     A.U. after   20 cycles
 SCF Done:  E(UM062X) =  -132.196216092     A.U. after   21 cycles
 SCF Done:  E(UM062X) =  -132.196236167     A.U. after   19 cycles
 SCF Done:  E(UM062X) =  -132.196250915     A.U. after   14 cycles
 SCF Done:  E(UM062X) =  -132.196275402     A.U. after   19 cycles
 SCF Done:  E(UM062X) =  -132.196284075     A.U. after   16 cycles
 SCF Done:  E(UM062X) =  -132.196284985     A.U. after   14 cycles
 Optimization completed.
    -- Stationary point found.
 Normal termination of Gaussian 16 at Wed Oct  7 13:36:02 2020.
 Gaussian 16:  ES64L-G16RevA.03 25-Dec-2016

 ----------------------------------------------------------------------
 #P Freq M062X/6-31G* 5D 7F Integral=UltraFineGrid SCF=(NoSymm,XQC,MaxC
 yc=120) IOp(1/33=1) Geom=Check Guess=Read
 ----------------------------------------------------------------------

 TstMul:  Mul=     2
 TstMul:  ICh=     0
 TstMul:  Mul=     2
 Structure from the checkpoint file:  "MN_83_RKT07_BH76_M062X_631Gs.chk"
 Charge =  0 Multiplicity = 2

                         Standard orientation:
 ---------------------------------------------------------------------
 Center     Atomic      Atomic             Coordinates (Angstroms)
 Number     Number       Type             X           Y           Z
 ---------------------------------------------------------------------
      1          7           0       -1.140424   -0.022112   -0.109113
      2          8           0        1.158307   -0.102288    0.009829
      3          1           0       -1.269335   -0.655583    0.682146
      4          1           0       -1.278711    0.920820    0.259830
      5          1           0       -0.045632   -0.139566   -0.422228
      6          1           0        1.310189    0.847416    0.165412
 ---------------------------------------------------------------------

 SCF Done:  E(UM062X) =  -132.196284985     A.U. after    1 cycles

 The electronic state is 2-A.
 Alpha  occ. eigenvalues --  -19.64599 -14.77487  -1.10738  -0.97430  -0.59946
 Alpha  occ. eigenvalues --   -0.55971  -0.50100  -0.41996  -0.38260  -0.34945
 Alpha virt. eigenvalues --    0.10487   0.16558   0.19729   0.31809   0.67689
 Alpha virt. eigenvalues --    0.69394   0.75003   0.88379   0.89536   0.90721
 Alpha virt. eigenvalues --    0.95251   1.01943   1.04121   1.16158   1.29163

  Beta  occ. eigenvalues --  -19.63476 -14.76796  -1.06860  -0.94367  -0.56519
  Beta  occ. eigenvalues --   -0.54461  -0.47185  -0.36014  -0.34242
  Beta virt. eigenvalues --   -0.09068   0.11170   0.17261   0.20418   0.33142
  Beta virt. eigenvalues --    0.69096   0.69624   0.79058   0.88908   0.90288
  Beta virt. eigenvalues --    0.93007   0.96632   1.03186   1.06553   1.18754

 Mulliken charges and spin densities:
               1          2
     1  N   -0.841671   0.537126
     2  O   -0.689029   0.576540
     3  H    0.346732  -0.021132
     4  H    0.329187  -0.021782
     5  H    0.450121  -0.052301
     6  H    0.404660  -0.018451
 Sum of Mulliken charges =  -0.00000   1.00000

 Dipole moment (field-independent basis, Debye):
    X=             -0.8621    Y=              1.9684    Z=              1.5124  Tot=              2.6277
 Quadrupole moment (field-independent basis, Debye-Ang):
   XX=            -14.6762   YY=            -10.7081   ZZ=            -13.9248
   XY=              1.7222   XZ=             -2.2048   YZ=             -0.0381

  Exact polarizability:  48.183   0.914  14.826   0.780   0.161  10.102
 Approx polarizability:  41.123  -0.442  15.835   1.433   0.193  10.499

 ******    1 imaginary frequencies (negative Signs) ******

                      1                      2                      3
                      A                      A                      A
 Frequencies --  -1288.1242               205.1513               427.0715
 Red. masses --      1.0635                 1.0641                 2.2168
 Frc consts  --      1.0397                 0.0264                 0.2382
 IR Inten    --    975.7035                78.1784                17.5464

                      4                      5                      6
                      A                      A                      A
 Frequencies --    533.1307               861.2040               917.0780
 Red. masses --      1.0245                 1.5009                 1.1573
 Frc consts  --      0.1716                 0.6559                 0.5735
 IR Inten    --     44.2058               130.0107                95.7749

                      7                      8                      9
                      A                      A                      A
 Frequencies --   1580.6674              1631.5455              1737.7773
 Red. masses --      1.1230                 1.0950                 1.0220
 Frc consts  --      1.6532                 1.7173                 1.8183
 IR Inten    --    232.7142                70.2689               151.1080

                     10                     11                     12
                      A                      A                      A
 Frequencies --   3491.2936              3588.0836              3765.2339
 Red. masses --      1.0508                 1.0908                 1.0666
 Frc consts  --      7.5465                 8.2743                 8.9092
 IR Inten    --      9.9731                 4.1569                42.2781

 - Thermochemistry -
 -------------------
 Temperature   298.150 Kelvin.  Pressure   1.00000 Atm.
 Atom     1 has atomic number  7 and mass  14.00307

 Molecular mass:    34.02929 amu.
 Principal axes and moments of inertia in atomic units:
                           1         2         3
     Eigenvalues --    10.86443 162.62703 167.22829
           X            0.99960   0.01705  -0.02247
           Y           -0.01715   0.99984  -0.00452
           Z            0.02239   0.00490   0.99974
 This molecule is an asymmetric top.
 Rotational symmetry number  1.
 Rotational temperatures (Kelvin)      7.97225     0.53259     0.51794
 Rotational constants (GHZ):         166.11472    11.09742    10.79208
    1 imaginary frequencies ignored.
 Zero-point vibrational energy     112079.5 (Joules/Mol)
                                   26.78765 (Kcal/Mol)
 Warning -- explicit consideration of   3 degrees of freedom as
           vibrations may cause significant error
 Vibrational temperatures:    295.17   614.46   767.06  1239.08  1319.47
          (Kelvin)           2274.23  2347.43  2500.27  5023.19  5162.45
                             5417.33

 Zero-point correction=                           0.042689 (Hartree/Particle)
 Thermal correction to Energy=                    0.046680
 Thermal correction to Enthalpy=                  0.047624
 Thermal correction to Gibbs Free Energy=         0.018143
 Sum of electronic and zero-point Energies=           -132.153596
 Sum of electronic and thermal Energies=              -132.149605
 Sum of electronic and thermal Enthalpies=            -132.148661
 Sum of electronic and thermal Free Energies=         -132.178142

                     E (Thermal)             CV                S
                      KCal/Mol        Cal/Mol-Kelvin    Cal/Mol-Kelvin
 Total                   29.292             11.550             62.048
 Electronic               0.000              0.000              1.377
 Translational            0.889              2.981             36.505
 Rotational               0.889              2.981             20.319
 Vibrational             27.515              5.588              3.848
 Vibration     1          0.640              1.833              2.086
 Vibration     2          0.789              1.411              0.868
 Vibration     3          0.888              1.177              0.580

 Optimization completed.
    -- Stationary point found.
 Normal termination of Gaussian 16 at Wed Oct  7 13:36:36 2020.
