 Gaussian 16, Revision A.03,

 ----------------------------------------------------------------------
 #P Opt(TS,MaxCyc=50,NoEigenTest,MaxStep=10,AddRedundant) M062X/6-31G*
 5D 7F Integral=UltraFineGrid SCF=(NoSymm,XQC,MaxCyc=120) IOp(1/33=1)
 ----------------------------------------------------------------------

 TstMul:  Mul=     3
 TstMul:  ICh=     0
 TstMul:  Mul=     3
 Symbolic Z-matrix:
 Charge =  0 Multiplicity = 3

 SCF Done:  E(UM062X) =  -115.488285434     A.U. after   15 cycles
 SCF Done:  E(UM062X) =  -115.488713253     A.U. after   13 cycles
 SCF Done:  E(UM062X) =  -115.488071755     A.U. after   14 cycles
 SCF Done:  E(UM062X) =  -115.487582459     A.U. after   14 cycles
 SCF Done:  E(UM062X) =  -115.487553903     A.U. after   13 cycles
 SCF Done:  E(UM062X) =  -115.487576332     A.U. after   12 cycles
 SCF Done:  E(UM062X) =  -115.487588208     A.U. after   11 cycles
 Optimization completed.
    -- Stationary point found.
 Normal termination of Gaussian 16 at Wed Oct  7 13:32:50 2020.
 Gaussian 16:  ES64L-G16RevA.03 25-Dec-2016

 ----------------------------------------------------------------------
 #P Freq M062X/6-31G* 5D 7F Integral=UltraFineGrid SCF=(NoSymm,XQC,MaxC
 yc=120) IOp(1/33=1) Geom=Check Guess=Read
 ----------------------------------------------------------------------

 TstMul:  Mul=     3
 TstMul:  ICh=     0
 TstMul:  Mul=     3
 Structure from the checkpoint file:  "MN_87_RKT11_BH76_M062X_631Gs.chk"
 Charge =  0 Multiplicity = 3

                         Standard orientation:
 ---------------------------------------------------------------------
 Center     Atomic      Atomic             Coordinates (Angstroms)
 Number     Number       Type             X           Y           Z
 ---------------------------------------------------------------------
      1          6           0        0.000443   -1.155046   -0.000000
      2          1           0       -1.063087   -1.382105   -0.000000
      3          1           0        0.523270   -1.410289    0.918051
      4          1           0        0.523270   -1.410289   -0.918051
      5          1           0        0.010344    0.219780    0.000000
      6          8           0        0.000443    1.364148    0.000000
 ---------------------------------------------------------------------

 SCF Done:  E(UM062X) =  -115.487588208     A.U. after    1 cycles

 The electronic state is 3-A'.
 Alpha  occ. eigenvalues --  -19.69488 -10.56705  -1.10175  -0.81077  -0.55933
 Alpha  occ. eigenvalues --   -0.50464  -0.50293  -0.47502  -0.41156  -0.32963
 Alpha virt. eigenvalues --    0.15081   0.20305   0.20394   0.29818   0.54718
 Alpha virt. eigenvalues --    0.55047   0.58177   0.76028   0.92777   0.94467
 Alpha virt. eigenvalues --    0.94481   0.95272   0.97576   1.01135   1.19281

  Beta  occ. eigenvalues --  -19.66956 -10.56129  -0.98320  -0.77930  -0.49104
  Beta  occ. eigenvalues --   -0.49036  -0.46307  -0.36001
  Beta virt. eigenvalues --   -0.07614  -0.05394   0.15419   0.21216   0.21270
  Beta virt. eigenvalues --    0.32970   0.55849   0.55926   0.62751   0.77240
  Beta virt. eigenvalues --    0.96342   0.96418   0.96919   0.99358   1.01242

 Mulliken charges and spin densities:
               1          2
     1  C   -0.653819   0.734879
     2  H    0.206312  -0.025741
     3  H    0.207025  -0.026556
     4  H    0.207025  -0.026556
     5  H    0.387457  -0.097290
     6  O   -0.353999   1.441265
 Sum of Mulliken charges =   0.00000   2.00000

 Dipole moment (field-independent basis, Debye):
    X=             -0.0003    Y=             -2.1279    Z=              0.0000  Tot=              2.1279
 Quadrupole moment (field-independent basis, Debye-Ang):
   XX=            -12.4181   YY=            -15.3058   ZZ=            -13.5454
   XY=             -0.0015   XZ=              0.0000   YZ=             -0.0000

  Exact polarizability:  14.500  -0.070  31.879   0.000  -0.000  14.193
 Approx polarizability:  14.625  -0.079  29.769   0.000  -0.000  14.138

 ******    1 imaginary frequencies (negative Signs) ******

                      1                      2                      3
                     A'                     A"                     A'
 Frequencies --  -1529.7350               286.0518               388.1742
 Red. masses --      1.0993                 1.0579                 1.0700
 Frc consts  --      1.5157                 0.0510                 0.0950
 IR Inten    --    686.1900                 6.5298                 4.0983

                      4                      5                      6
                     A'                     A"                     A'
 Frequencies --    578.7436               975.5533              1129.2099
 Red. masses --      4.0581                 1.0717                 1.0667
 Frc consts  --      0.8008                 0.6009                 0.8014
 IR Inten    --      0.0438                36.6460                41.6708

                      7                      8                      9
                     A'                     A"                     A'
 Frequencies --   1224.8007              1456.5836              1458.1406
 Red. masses --      1.2509                 1.0790                 1.0759
 Frc consts  --      1.1056                 1.3488                 1.3478
 IR Inten    --     26.9991                 4.2263                 3.7761

                     10                     11                     12
                     A'                     A'                     A"
 Frequencies --   3129.9043              3275.9087              3281.6893
 Red. masses --      1.0173                 1.1120                 1.1125
 Frc consts  --      5.8719                 7.0310                 7.0593
 IR Inten    --      0.0086                 3.6231                 3.2615

 - Thermochemistry -
 -------------------
 Temperature   298.150 Kelvin.  Pressure   1.00000 Atm.
 Atom     1 has atomic number  6 and mass  12.00000

 Molecular mass:    32.02621 amu.
 Principal axes and moments of inertia in atomic units:
                           1         2         3
     Eigenvalues --    12.10535 189.13221 189.16010
           X           -0.00003   0.00000   1.00000
           Y            1.00000   0.00000   0.00003
           Z            0.00000   1.00000   0.00000
 This molecule is an asymmetric top.
 Rotational symmetry number  1.
 Rotational temperatures (Kelvin)      7.15501     0.45795     0.45789
 Rotational constants (GHZ):         149.08620     9.54222     9.54081
    1 imaginary frequencies ignored.
 Zero-point vibrational energy     102787.7 (Joules/Mol)
                                   24.56685 (Kcal/Mol)
 Warning -- explicit consideration of   3 degrees of freedom as
           vibrations may cause significant error
 Vibrational temperatures:    411.56   558.50   832.68  1403.60  1624.68
          (Kelvin)           1762.22  2095.70  2097.94  4503.23  4713.30
                             4721.62

 Zero-point correction=                           0.039150 (Hartree/Particle)
 Thermal correction to Energy=                    0.043003
 Thermal correction to Enthalpy=                  0.043947
 Thermal correction to Gibbs Free Energy=         0.014288
 Sum of electronic and zero-point Energies=           -115.448438
 Sum of electronic and thermal Energies=              -115.444585
 Sum of electronic and thermal Enthalpies=            -115.443641
 Sum of electronic and thermal Free Energies=         -115.473300

                     E (Thermal)             CV                S
                      KCal/Mol        Cal/Mol-Kelvin    Cal/Mol-Kelvin
 Total                   26.985             11.258             62.422
 Electronic               0.000              0.000              2.183
 Translational            0.889              2.981             36.324
 Rotational               0.889              2.981             20.699
 Vibrational             25.207              5.296              3.216
 Vibration     1          0.684              1.700              1.497
 Vibration     2          0.756              1.495              1.007
 Vibration     3          0.935              1.077              0.488

 Optimization completed.
    -- Stationary point found.
 Normal termination of Gaussian 16 at Wed Oct  7 13:33:16 2020.
