 Gaussian 16, Revision A.03,

 ----------------------------------------------------------------------
 #P Opt(TS,MaxCyc=50,NoEigenTest,MaxStep=10,AddRedundant) M062X/6-31G*
 5D 7F Integral=UltraFineGrid SCF=(NoSymm,XQC,MaxCyc=120) IOp(1/33=1)
 ----------------------------------------------------------------------

 TstMul:  Mul=     1
 TstMul:  ICh=     0
 TstMul:  Mul=     1
 Symbolic Z-matrix:
 Charge =  0 Multiplicity = 1

 SCF Done:  E(RM062X) =  -195.135148682     A.U. after   13 cycles
 SCF Done:  E(RM062X) =  -195.135243619     A.U. after   10 cycles
 SCF Done:  E(RM062X) =  -195.135239008     A.U. after    8 cycles
 SCF Done:  E(RM062X) =  -195.135232346     A.U. after    9 cycles
 SCF Done:  E(RM062X) =  -195.135220521     A.U. after    9 cycles
 SCF Done:  E(RM062X) =  -195.135203370     A.U. after   10 cycles
 SCF Done:  E(RM062X) =  -195.135208751     A.U. after   11 cycles
 SCF Done:  E(RM062X) =  -195.135258606     A.U. after    9 cycles
 SCF Done:  E(RM062X) =  -195.135260851     A.U. after   12 cycles
 SCF Done:  E(RM062X) =  -195.135267201     A.U. after    9 cycles
 SCF Done:  E(RM062X) =  -195.135270189     A.U. after    9 cycles
 SCF Done:  E(RM062X) =  -195.135270806     A.U. after    8 cycles
 SCF Done:  E(RM062X) =  -195.135271081     A.U. after    8 cycles
 Optimization completed.
    -- Stationary point found.
 Normal termination of Gaussian 16 at Wed Oct  7 13:39:07 2020.
 Gaussian 16:  ES64L-G16RevA.03 25-Dec-2016

 ----------------------------------------------------------------------
 #P Freq M062X/6-31G* 5D 7F Integral=UltraFineGrid SCF=(NoSymm,XQC,MaxC
 yc=120) IOp(1/33=1) Geom=Check Guess=Read
 ----------------------------------------------------------------------

 TstMul:  Mul=     1
 TstMul:  ICh=     0
 TstMul:  Mul=     1
 Structure from the checkpoint file:  "MN_96_RKT22_BH76_M062X_631Gs.chk"
 Charge =  0 Multiplicity = 1

                         Standard orientation:
 ---------------------------------------------------------------------
 Center     Atomic      Atomic             Coordinates (Angstroms)
 Number     Number       Type             X           Y           Z
 ---------------------------------------------------------------------
      1          6           0       -1.303035   -0.903754   -0.020625
      2          6           0       -1.206130    0.505189   -0.014000
      3          6           0        0.000048    1.183101    0.155470
      4          6           0        1.206236    0.505111   -0.014073
      5          6           0        1.303011   -0.903786   -0.020461
      6          1           0        2.174131   -1.329157   -0.517583
      7          1           0        1.040565   -1.454768    0.879983
      8          1           0        2.039204    1.088122   -0.402824
      9          1           0        0.000038    2.266815    0.086417
     10          1           0       -2.039165    1.088310   -0.402439
     11          1           0       -2.174492   -1.328700   -0.517533
     12          1           0       -0.000159   -1.190920   -0.523726
     13          1           0       -1.040908   -1.454869    0.879843
 ---------------------------------------------------------------------

 SCF Done:  E(RM062X) =  -195.135271081     A.U. after    1 cycles

 The electronic state is 1-A.
 Alpha  occ. eigenvalues --  -10.54693 -10.54692 -10.53750 -10.53714 -10.53713
 Alpha  occ. eigenvalues --   -0.92323  -0.83111  -0.77853  -0.66708  -0.60315
 Alpha  occ. eigenvalues --   -0.56568  -0.48896  -0.47518  -0.47383  -0.44960
 Alpha  occ. eigenvalues --   -0.42067  -0.40574  -0.30715  -0.26822
 Alpha virt. eigenvalues --    0.01784   0.07175   0.14092   0.17155   0.19227
 Alpha virt. eigenvalues --    0.22333   0.23440   0.23611   0.26926   0.28671
 Alpha virt. eigenvalues --    0.32270   0.34404   0.39499   0.46663   0.55371

 Mulliken charges:
               1
     1  C   -0.512403
     2  C   -0.103920
     3  C   -0.163895
     4  C   -0.103904
     5  C   -0.512370
     6  H    0.166482
     7  H    0.196567
     8  H    0.165141
     9  H    0.153354
    10  H    0.165138
    11  H    0.166464
    12  H    0.186800
    13  H    0.196547
 Sum of Mulliken charges =   0.00000

 Dipole moment (field-independent basis, Debye):
    X=             -0.0001    Y=             -0.0272    Z=             -0.1696  Tot=              0.1718
 Quadrupole moment (field-independent basis, Debye-Ang):
   XX=            -30.1645   YY=            -29.8749   ZZ=            -33.8448
   XY=             -0.0005   XZ=             -0.0010   YZ=             -1.3983

  Exact polarizability:  72.534   0.000  62.283  -0.001  -0.728  29.403
 Approx polarizability:  94.926   0.001  81.659  -0.000   2.212  37.093

 ******    1 imaginary frequencies (negative Signs) ******

                      1                      2                      3
                      A                      A                      A
 Frequencies --  -1487.1896               272.2713               478.4889
 Red. masses --      1.2268                 2.1256                 2.3258
 Frc consts  --      1.5987                 0.0928                 0.3137
 IR Inten    --      8.8254                 0.1476                 0.8585

                      4                      5                      6
                      A                      A                      A
 Frequencies --    519.0803               562.3918               632.1017
 Red. masses --      2.5911                 3.5151                 1.2839
 Frc consts  --      0.4113                 0.6550                 0.3022
 IR Inten    --      3.0140                 3.6931                29.3623

                      7                      8                      9
                      A                      A                      A
 Frequencies --    751.7074               819.0344               833.6443
 Red. masses --      2.0287                 1.2378                 1.2330
 Frc consts  --      0.6754                 0.4892                 0.5048
 IR Inten    --     12.2849                 3.6132                44.5518

                     10                     11                     12
                      A                      A                      A
 Frequencies --    994.8313              1009.6191              1022.3912
 Red. masses --      1.3360                 1.2809                 1.3726
 Frc consts  --      0.7790                 0.7693                 0.8453
 IR Inten    --     14.8471                 0.6714                 0.2841

                     13                     14                     15
                      A                      A                      A
 Frequencies --   1028.0975              1030.5105              1119.4907
 Red. masses --      2.1928                 1.4593                 1.3164
 Frc consts  --      1.3656                 0.9131                 0.9720
 IR Inten    --      1.8426                14.3271                 2.8545

                     16                     17                     18
                      A                      A                      A
 Frequencies --   1149.4857              1213.0926              1275.5295
 Red. masses --      1.6276                 1.1439                 1.4614
 Frc consts  --      1.2671                 0.9918                 1.4009
 IR Inten    --      1.6313                 2.1789                 7.0978

                     19                     20                     21
                      A                      A                      A
 Frequencies --   1290.5087              1429.7281              1459.1732
 Red. masses --      1.2293                 1.1075                 1.3343
 Frc consts  --      1.2063                 1.3339                 1.6738
 IR Inten    --     12.1313                10.3971                 1.7536

                     22                     23                     24
                      A                      A                      A
 Frequencies --   1501.0573              1550.8697              1574.1147
 Red. masses --      1.0805                 1.4728                 1.4009
 Frc consts  --      1.4344                 2.0871                 2.0451
 IR Inten    --      5.8979                 0.0488                 0.3848

                     25                     26                     27
                      A                      A                      A
 Frequencies --   1604.1605              1638.2923              3155.8738
 Red. masses --      5.2686                 1.9851                 1.0574
 Frc consts  --      7.9881                 3.1391                 6.2051
 IR Inten    --     16.7008                 4.4742                 7.0522

                     28                     29                     30
                      A                      A                      A
 Frequencies --   3156.7702              3191.5529              3195.0616
 Red. masses --      1.0575                 1.0878                 1.0915
 Frc consts  --      6.2088                 6.5286                 6.5651
 IR Inten    --     18.3508                 0.4550                 7.9018

                     31                     32                     33
                      A                      A                      A
 Frequencies --   3220.7040              3225.9874              3230.6519
 Red. masses --      1.1134                 1.1059                 1.0985
 Frc consts  --      6.8048                 6.7807                 6.7548
 IR Inten    --     18.8464                12.4035                17.1781

 - Thermochemistry -
 -------------------
 Temperature   298.150 Kelvin.  Pressure   1.00000 Atm.
 Atom     1 has atomic number  6 and mass  12.00000

 Molecular mass:    68.06260 amu.
 Principal axes and moments of inertia in atomic units:
                           1         2         3
     Eigenvalues --   222.40524 352.62877 553.70698
           X            1.00000   0.00000  -0.00001
           Y           -0.00000   0.99977  -0.02157
           Z            0.00001   0.02157   0.99977
 This molecule is an asymmetric top.
 Rotational symmetry number  1.
 Rotational temperatures (Kelvin)      0.38944     0.24562     0.15643
 Rotational constants (GHZ):           8.11465     5.11796     3.25938
    1 imaginary frequencies ignored.
 Zero-point vibrational energy     293900.2 (Joules/Mol)
                                   70.24383 (Kcal/Mol)
 Warning -- explicit consideration of   4 degrees of freedom as
           vibrations may cause significant error
 Vibrational temperatures:    391.74   688.44   746.84   809.16   909.45
          (Kelvin)           1081.54  1178.41  1199.43  1431.34  1452.62
                             1470.99  1479.20  1482.67  1610.70  1653.85
                             1745.37  1835.20  1856.75  2057.06  2099.42
                             2159.69  2231.36  2264.80  2308.03  2357.14
                             4540.60  4541.89  4591.93  4596.98  4633.87
                             4641.48  4648.19

 Zero-point correction=                           0.111941 (Hartree/Particle)
 Thermal correction to Energy=                    0.116528
 Thermal correction to Enthalpy=                  0.117472
 Thermal correction to Gibbs Free Energy=         0.084681
 Sum of electronic and zero-point Energies=           -195.023330
 Sum of electronic and thermal Energies=              -195.018743
 Sum of electronic and thermal Enthalpies=            -195.017799
 Sum of electronic and thermal Free Energies=         -195.050590

                     E (Thermal)             CV                S
                      KCal/Mol        Cal/Mol-Kelvin    Cal/Mol-Kelvin
 Total                   73.122             17.503             69.014
 Electronic               0.000              0.000              0.000
 Translational            0.889              2.981             38.571
 Rotational               0.889              2.981             25.277
 Vibrational             71.345             11.542              5.166
 Vibration     1          0.675              1.724              1.582
 Vibration     2          0.835              1.298              0.714
 Vibration     3          0.874              1.208              0.612
 Vibration     4          0.918              1.113              0.519

 Optimization completed.
    -- Stationary point found.
 Normal termination of Gaussian 16 at Wed Oct  7 13:41:14 2020.
