 Gaussian 16, Revision A.03,

 ----------------------------------------------------------------------
 #P Opt(TS,MaxCyc=50,NoEigenTest,MaxStep=10,AddRedundant) M062X/6-31G*
 5D 7F Integral=UltraFineGrid SCF=(NoSymm,XQC,MaxCyc=120) IOp(1/33=1)
 ----------------------------------------------------------------------

 TstMul:  Mul=     2
 TstMul:  ICh=     0
 TstMul:  Mul=     2
 Symbolic Z-matrix:
 Charge =  0 Multiplicity = 2

 SCF Done:  E(UM062X) =  -96.2968147409     A.U. after   17 cycles
 SCF Done:  E(UM062X) =  -96.2968154870     A.U. after   12 cycles
 SCF Done:  E(UM062X) =  -96.2968156596     A.U. after   13 cycles
 SCF Done:  E(UM062X) =  -96.2969560296     A.U. after   15 cycles
 SCF Done:  E(UM062X) =  -96.2969811464     A.U. after   14 cycles
 SCF Done:  E(UM062X) =  -96.2970586279     A.U. after   14 cycles
 SCF Done:  E(UM062X) =  -96.2970613181     A.U. after   11 cycles
 Optimization completed.
    -- Stationary point found.
 Normal termination of Gaussian 16 at Sun Oct 11 10:50:53 2020.
 Gaussian 16:  ES64L-G16RevA.03 25-Dec-2016

 ----------------------------------------------------------------------
 #P Freq M062X/6-31G* 5D 7F Integral=UltraFineGrid SCF=(NoSymm,XQC,MaxC
 yc=120) IOp(1/33=1) Geom=Check Guess=Read
 ----------------------------------------------------------------------

 TstMul:  Mul=     2
 TstMul:  ICh=     0
 TstMul:  Mul=     2
 Structure from the checkpoint file:  "MN_95_RKT21_BH76_M062X_631Gs.chk"
 Charge =  0 Multiplicity = 2

                         Standard orientation:
 ---------------------------------------------------------------------
 Center     Atomic      Atomic             Coordinates (Angstroms)
 Number     Number       Type             X           Y           Z
 ---------------------------------------------------------------------
      1          6           0       -1.250940   -0.000014    0.012787
      2          7           0        1.310237   -0.000013   -0.138588
      3          1           0       -1.604480    0.910302   -0.468846
      4          1           0       -1.413052   -0.004073    1.089129
      5          1           0       -1.606656   -0.905643   -0.476039
      6          1           0        0.048766   -0.000845   -0.212796
      7          1           0        1.454186    0.807200    0.480790
      8          1           0        1.455218   -0.806761    0.481157
 ---------------------------------------------------------------------

 SCF Done:  E(UM062X) =  -96.2970613181     A.U. after    1 cycles

 The electronic state is 2-A.
 Alpha  occ. eigenvalues --  -14.75163 -10.53703  -0.95359  -0.78489  -0.52887
 Alpha  occ. eigenvalues --   -0.51639  -0.47488  -0.47270  -0.36743  -0.27710
 Alpha virt. eigenvalues --    0.13118   0.18378   0.20593   0.21686   0.22345
 Alpha virt. eigenvalues --    0.33824   0.55021   0.56248   0.61097   0.77465
 Alpha virt. eigenvalues --    0.77757   0.78192   0.95093   0.95817   0.96135

  Beta  occ. eigenvalues --  -14.74396 -10.53166  -0.92197  -0.76248  -0.51645
  Beta  occ. eigenvalues --   -0.47371  -0.46296  -0.46041  -0.33267
  Beta virt. eigenvalues --   -0.04825   0.13549   0.18733   0.21252   0.22364
  Beta virt. eigenvalues --    0.22985   0.36011   0.55493   0.57093   0.65401
  Beta virt. eigenvalues --    0.77931   0.77956   0.81849   0.94967   0.97289

 Mulliken charges and spin densities:
               1          2
     1  C   -0.668008   0.583301
     2  N   -0.787565   0.612207
     3  H    0.188908  -0.018025
     4  H    0.176473  -0.022347
     5  H    0.188957  -0.017978
     6  H    0.280401  -0.095389
     7  H    0.310416  -0.020888
     8  H    0.310418  -0.020881
 Sum of Mulliken charges =   0.00000   1.00000

 Dipole moment (field-independent basis, Debye):
    X=             -0.6761    Y=              0.0002    Z=              1.7736  Tot=              1.8981
 Quadrupole moment (field-independent basis, Debye-Ang):
   XX=            -16.3400   YY=            -13.6227   ZZ=            -15.5944
   XY=              0.0000   XZ=              3.1496   YZ=              0.0002

  Exact polarizability:  42.681   0.001  21.519   0.665   0.000  19.076
 Approx polarizability:  37.501   0.001  22.336   0.134   0.001  19.791

 ******    2 imaginary frequencies (negative Signs) ******

                      1                      2                      3
                      A                      A                      A
 Frequencies --  -1633.7448               -24.7263               369.0471
 Red. masses --      1.0756                 1.0256                 1.1999
 Frc consts  --      1.6914                 0.0004                 0.0963
 IR Inten    --    589.1254                38.4198                10.6637

                      4                      5                      6
                      A                      A                      A
 Frequencies --    384.3408               591.5867               821.5849
 Red. masses --      1.0244                 2.5131                 1.1128
 Frc consts  --      0.0892                 0.5182                 0.4425
 IR Inten    --      4.1012                 7.7173                 5.9621

                      7                      8                      9
                      A                      A                      A
 Frequencies --    900.5244              1204.3861              1410.4410
 Red. masses --      1.2641                 1.1641                 1.1196
 Frc consts  --      0.6040                 0.9949                 1.3122
 IR Inten    --    118.0282                 5.5173               134.4754

                     10                     11                     12
                      A                      A                      A
 Frequencies --   1457.3021              1483.2978              1556.7562
 Red. masses --      1.0977                 1.0466                 1.0249
 Frc consts  --      1.3735                 1.3567                 1.4634
 IR Inten    --     10.8306                15.8335                 7.2071

                     13                     14                     15
                      A                      A                      A
 Frequencies --   1631.6847              3120.3878              3251.7623
 Red. masses --      1.0652                 1.0215                 1.1095
 Frc consts  --      1.6709                 5.8598                 6.9124
 IR Inten    --     24.2682                 2.2334                10.2331

                     16                     17                     18
                      A                      A                      A
 Frequencies --   3251.7903              3409.8208              3511.6760
 Red. masses --      1.1096                 1.0500                 1.0894
 Frc consts  --      6.9127                 7.1927                 7.9154
 IR Inten    --     10.8188                 8.1003                 1.1639

 - Thermochemistry -
 -------------------
 Temperature   298.150 Kelvin.  Pressure   1.00000 Atm.
 Atom     1 has atomic number  6 and mass  12.00000

 Molecular mass:    32.05002 amu.
 Principal axes and moments of inertia in atomic units:
                           1         2         3
     Eigenvalues --    19.08711 202.16449 204.32082
           X            0.99968   0.00000   0.02528
           Y           -0.00000   1.00000  -0.00001
           Z           -0.02528   0.00001   0.99968
 This molecule is an asymmetric top.
 Rotational symmetry number  1.
 Rotational temperatures (Kelvin)      4.53782     0.42843     0.42391
 Rotational constants (GHZ):          94.55286     8.92709     8.83288
    2 imaginary frequencies ignored.
 Zero-point vibrational energy     169608.9 (Joules/Mol)
                                   40.53749 (Kcal/Mol)
 Warning -- explicit consideration of   3 degrees of freedom as
           vibrations may cause significant error
 Vibrational temperatures:    530.98   552.98   851.16  1182.08  1295.65
          (Kelvin)           1732.84  2029.31  2096.73  2134.13  2239.82
                             2347.63  4489.54  4678.56  4678.60  4905.97
                             5052.52

 Zero-point correction=                           0.064601 (Hartree/Particle)
 Thermal correction to Energy=                    0.068431
 Thermal correction to Enthalpy=                  0.069375
 Thermal correction to Gibbs Free Energy=         0.039918
 Sum of electronic and zero-point Energies=            -96.232461
 Sum of electronic and thermal Energies=               -96.228630
 Sum of electronic and thermal Enthalpies=             -96.227686
 Sum of electronic and thermal Free Energies=          -96.257143

                     E (Thermal)             CV                S
                      KCal/Mol        Cal/Mol-Kelvin    Cal/Mol-Kelvin
 Total                   42.941             11.745             61.998
 Electronic               0.000              0.000              1.377
 Translational            0.889              2.981             36.326
 Rotational               0.889              2.981             21.294
 Vibrational             41.164              5.783              3.000
 Vibration     1          0.741              1.536              1.084
 Vibration     2          0.753              1.504              1.022
 Vibration     3          0.949              1.050              0.464

                           ! Non-Optimized Parameters !
 Normal termination of Gaussian 16 at Sun Oct 11 10:51:20 2020.
