 Gaussian 16, Revision A.03,

 ----------------------------------------------------------------------
 #P Opt(TS,MaxCyc=50,NoEigenTest,MaxStep=10,AddRedundant) M062X/6-31G*
 5D 7F Integral=UltraFineGrid SCF=(NoSymm,XQC,MaxCyc=120) IOp(1/33=1)
 ----------------------------------------------------------------------

 TstMul:  Mul=     3
 TstMul:  ICh=     0
 TstMul:  Mul=     3
 Symbolic Z-matrix:
 Charge =  0 Multiplicity = 3

 SCF Done:  E(UM062X) =  -134.928811934     A.U. after   18 cycles
 SCF Done:  E(UM062X) =  -134.928832534     A.U. after   13 cycles
 SCF Done:  E(UM062X) =  -134.928849555     A.U. after   12 cycles
 SCF Done:  E(UM062X) =  -134.929325860     A.U. after   17 cycles
 SCF Done:  E(UM062X) =  -134.929874582     A.U. after   15 cycles
 SCF Done:  E(UM062X) =  -134.930397264     A.U. after   16 cycles
 SCF Done:  E(UM062X) =  -134.929883046     A.U. after   19 cycles
 SCF Done:  E(UM062X) =  -134.929458502     A.U. after   18 cycles
 SCF Done:  E(UM062X) =  -134.929165235     A.U. after   19 cycles
 SCF Done:  E(UM062X) =  -134.928768203     A.U. after   18 cycles
 SCF Done:  E(UM062X) =  -134.929248771     A.U. after   18 cycles
 SCF Done:  E(UM062X) =  -134.929249572     A.U. after   16 cycles
 SCF Done:  E(UM062X) =  -134.929248451     A.U. after   18 cycles
 SCF Done:  E(UM062X) =  -134.929249857     A.U. after   16 cycles
 SCF Done:  E(UM062X) =  -134.929249816     A.U. after   12 cycles
 SCF Done:  E(UM062X) =  -134.929249162     A.U. after   17 cycles
 SCF Done:  E(UM062X) =  -134.929249831     A.U. after   16 cycles
 SCF Done:  E(UM062X) =  -134.929249818     A.U. after   11 cycles
 SCF Done:  E(UM062X) =  -134.929249826     A.U. after   10 cycles
 Optimization completed.
    -- Stationary point found.
 Normal termination of Gaussian 16 at Sun Oct 11 10:57:38 2020.
 Gaussian 16:  ES64L-G16RevA.03 25-Dec-2016

 ----------------------------------------------------------------------
 #P Freq M062X/6-31G* 5D 7F Integral=UltraFineGrid SCF=(NoSymm,XQC,MaxC
 yc=120) IOp(1/33=1) Geom=Check Guess=Read
 ----------------------------------------------------------------------

 TstMul:  Mul=     3
 TstMul:  ICh=     0
 TstMul:  Mul=     3
 Structure from the checkpoint file:  "MN_93_RKT19_BH76_M062X_631Gs.chk"
 Charge =  0 Multiplicity = 3

                         Standard orientation:
 ---------------------------------------------------------------------
 Center     Atomic      Atomic             Coordinates (Angstroms)
 Number     Number       Type             X           Y           Z
 ---------------------------------------------------------------------
      1          6           0       -1.313972   -0.507598   -0.008560
      2          6           0       -0.486369    0.749513    0.023482
      3          7           0        1.938236   -0.217056   -0.129686
      4          1           0       -1.149566   -1.065990   -0.934614
      5          1           0       -1.073654   -1.166647    0.831271
      6          1           0       -2.386434   -0.279574    0.052085
      7          1           0       -0.579294    1.407124   -0.840843
      8          1           0       -0.472137    1.293124    0.968271
      9          1           0        0.864193    0.295713   -0.141903
     10          1           0        2.031294   -0.415845    0.883997
 ---------------------------------------------------------------------

 SCF Done:  E(UM062X) =  -134.929249826     A.U. after    1 cycles

 The electronic state is 3-A.
 Alpha  occ. eigenvalues --  -14.78308 -10.55120 -10.53799  -0.94353  -0.85724
 Alpha  occ. eigenvalues --   -0.70476  -0.53985  -0.52296  -0.47756  -0.44950
 Alpha  occ. eigenvalues --   -0.42211  -0.41434  -0.37493  -0.26705
 Alpha virt. eigenvalues --    0.13254   0.17651   0.19193   0.19763   0.21532
 Alpha virt. eigenvalues --    0.23673   0.27687   0.33209   0.53359   0.56352
 Alpha virt. eigenvalues --    0.58736   0.63734   0.66823   0.71986   0.76840

  Beta  occ. eigenvalues --  -14.76565 -10.54520 -10.53830  -0.86740  -0.83131
  Beta  occ. eigenvalues --   -0.68711  -0.51669  -0.49962  -0.45497  -0.44011
  Beta  occ. eigenvalues --   -0.41677  -0.34863
  Beta virt. eigenvalues --   -0.03418  -0.02476   0.13854   0.18384   0.19589
  Beta virt. eigenvalues --    0.20306   0.21738   0.24207   0.28736   0.36427
  Beta virt. eigenvalues --    0.54531   0.56803   0.59932   0.66966   0.68696

 Mulliken charges and spin densities:
               1          2
     1  C   -0.483101  -0.036301
     2  C   -0.450922   0.712907
     3  N   -0.520762   1.509320
     4  H    0.179913   0.005752
     5  H    0.165840   0.005651
     6  H    0.177106   0.033025
     7  H    0.185932  -0.025452
     8  H    0.175029  -0.027900
     9  H    0.273887  -0.121468
    10  H    0.297081  -0.055533
 Sum of Mulliken charges =  -0.00000   2.00000

 Dipole moment (field-independent basis, Debye):
    X=             -1.4679    Y=              0.2100    Z=              1.4364  Tot=              2.0645
 Quadrupole moment (field-independent basis, Debye-Ang):
   XX=            -24.4391   YY=            -20.8902   ZZ=            -20.3288
   XY=              0.3231   XZ=              3.5295   YZ=             -0.6745

  Exact polarizability:  50.542  -6.072  29.700   0.482  -0.787  29.816
 Approx polarizability:  47.085  -6.661  30.323  -0.434  -0.780  32.574

 ******    2 imaginary frequencies (negative Signs) ******

                      1                      2                      3
                      A                      A                      A
 Frequencies --  -1531.9560               -69.4113               114.6097
 Red. masses --      1.1155                 1.0744                 3.0928
 Frc consts  --      1.5425                 0.0030                 0.0239
 IR Inten    --    771.1636                79.1524                 5.1621

                      4                      5                      6
                      A                      A                      A
 Frequencies --    157.2541               391.4858               568.9886
 Red. masses --      1.0883                 1.0639                 2.6771
 Frc consts  --      0.0159                 0.0961                 0.5107
 IR Inten    --      1.8220                15.5829                 1.3171

                      7                      8                      9
                      A                      A                      A
 Frequencies --    769.3174               845.9986               880.2636
 Red. masses --      1.1507                 1.0749                 1.0767
 Frc consts  --      0.4013                 0.4533                 0.4916
 IR Inten    --     25.6519                18.4868                 2.3367

                     10                     11                     12
                      A                      A                      A
 Frequencies --   1046.9955              1128.3408              1214.7848
 Red. masses --      2.1253                 1.4429                 1.3634
 Frc consts  --      1.3726                 1.0823                 1.1855
 IR Inten    --     10.3131                14.2858                 5.4630

                     13                     14                     15
                      A                      A                      A
 Frequencies --   1234.5896              1430.0550              1493.9124
 Red. masses --      1.3999                 1.2062                 1.1642
 Frc consts  --      1.2572                 1.4533                 1.5308
 IR Inten    --      1.5323                 3.0374                 0.9751

                     16                     17                     18
                      A                      A                      A
 Frequencies --   1521.0279              1522.3258              1529.5656
 Red. masses --      1.0467                 1.0405                 1.0512
 Frc consts  --      1.4267                 1.4207                 1.4491
 IR Inten    --      1.3122                 7.7306                99.5140

                     19                     20                     21
                      A                      A                      A
 Frequencies --   3063.0971              3128.9106              3143.3858
 Red. masses --      1.0425                 1.0896                 1.0570
 Frc consts  --      5.7628                 6.2848                 6.1533
 IR Inten    --     18.9358                 8.9809                22.3303

                     22                     23                     24
                      A                      A                      A
 Frequencies --   3159.6364              3227.0790              3365.0175
 Red. masses --      1.1029                 1.1126                 1.0729
 Frc consts  --      6.4874                 6.8265                 7.1576
 IR Inten    --     13.1512                19.3280                17.3090

 - Thermochemistry -
 -------------------
 Temperature   298.150 Kelvin.  Pressure   1.00000 Atm.
 Atom     1 has atomic number  6 and mass  12.00000

 Molecular mass:    45.05785 amu.
 Principal axes and moments of inertia in atomic units:
                           1         2         3
     Eigenvalues --    75.89810 335.62957 381.30043
           X            0.99968   0.01593   0.01955
           Y           -0.01547   0.99960  -0.02367
           Z           -0.01992   0.02336   0.99953
 This molecule is an asymmetric top.
 Rotational symmetry number  1.
 Rotational temperatures (Kelvin)      1.14119     0.25806     0.22715
 Rotational constants (GHZ):          23.77848     5.37718     4.73312
    2 imaginary frequencies ignored.
 Zero-point vibrational energy     208967.5 (Joules/Mol)
                                   49.94444 (Kcal/Mol)
 Warning -- explicit consideration of   4 degrees of freedom as
           vibrations may cause significant error
 Vibrational temperatures:    164.90   226.25   563.26   818.65  1106.88
          (Kelvin)           1217.20  1266.50  1506.39  1623.43  1747.80
                             1776.30  2057.53  2149.41  2188.42  2190.29
                             2200.70  4407.11  4501.80  4522.63  4546.01
                             4643.05  4841.51

 Zero-point correction=                           0.079592 (Hartree/Particle)
 Thermal correction to Energy=                    0.084578
 Thermal correction to Enthalpy=                  0.085522
 Thermal correction to Gibbs Free Energy=         0.051592
 Sum of electronic and zero-point Energies=           -134.849658
 Sum of electronic and thermal Energies=              -134.844672
 Sum of electronic and thermal Enthalpies=            -134.843728
 Sum of electronic and thermal Free Energies=         -134.877658

                     E (Thermal)             CV                S
                      KCal/Mol        Cal/Mol-Kelvin    Cal/Mol-Kelvin
 Total                   53.073             15.531             71.411
 Electronic               0.000              0.000              2.183
 Translational            0.889              2.981             37.342
 Rotational               0.889              2.981             23.789
 Vibrational             51.296              9.569              8.098
 Vibration     1          0.608              1.937              3.189
 Vibration     2          0.621              1.895              2.583
 Vibration     3          0.759              1.488              0.994
 Vibration     4          0.925              1.098              0.506

 Optimization completed.
    -- Stationary point found.
 Normal termination of Gaussian 16 at Sun Oct 11 10:58:33 2020.
