 Gaussian 16, Revision A.03,

 ----------------------------------------------------------------------
 #P Opt(TS,MaxCyc=50,NoEigenTest,MaxStep=10,AddRedundant) M062X/6-31G*
 5D 7F Integral=UltraFineGrid SCF=(NoSymm,XQC,MaxCyc=120) IOp(1/33=1)
 ----------------------------------------------------------------------

 TstMul:  Mul=     2
 TstMul:  ICh=     0
 TstMul:  Mul=     2
 Symbolic Z-matrix:
 Charge =  0 Multiplicity = 2

 SCF Done:  E(UM062X) =  -399.823615907     A.U. after   16 cycles
 SCF Done:  E(UM062X) =  -399.823706168     A.U. after   13 cycles
 SCF Done:  E(UM062X) =  -399.823989663     A.U. after   14 cycles
 SCF Done:  E(UM062X) =  -399.823650764     A.U. after   14 cycles
 SCF Done:  E(UM062X) =  -399.823450959     A.U. after   14 cycles
 SCF Done:  E(UM062X) =  -399.823443222     A.U. after   10 cycles
 SCF Done:  E(UM062X) =  -399.823443128     A.U. after    9 cycles
 Optimization completed.
    -- Stationary point found.
 Normal termination of Gaussian 16 at Wed Oct  7 13:32:47 2020.
 Gaussian 16:  ES64L-G16RevA.03 25-Dec-2016

 ----------------------------------------------------------------------
 #P Freq M062X/6-31G* 5D 7F Integral=UltraFineGrid SCF=(NoSymm,XQC,MaxC
 yc=120) IOp(1/33=1) Geom=Check Guess=Read
 ----------------------------------------------------------------------

 TstMul:  Mul=     2
 TstMul:  ICh=     0
 TstMul:  Mul=     2
 Structure from the checkpoint file:  "MN_90_RKT16_BH76_M062X_631Gs.chk"
 Charge =  0 Multiplicity = 2

                         Standard orientation:
 ---------------------------------------------------------------------
 Center     Atomic      Atomic             Coordinates (Angstroms)
 Number     Number       Type             X           Y           Z
 ---------------------------------------------------------------------
      1          1           0        1.277897   -0.189468    0.000000
      2         16           0        0.000000    0.225108    0.000000
      3          1           0       -0.476932   -1.111174    0.000000
      4          1           0       -0.800965   -2.301090    0.000000
 ---------------------------------------------------------------------

 SCF Done:  E(UM062X) =  -399.823443128     A.U. after    1 cycles

 The electronic state is 2-A'.
 Alpha  occ. eigenvalues --  -89.90477  -8.27050  -6.19149  -6.18729  -6.18138
 Alpha  occ. eigenvalues --   -0.83522  -0.54101  -0.45102  -0.33976  -0.31987
 Alpha virt. eigenvalues --    0.07300   0.13637   0.36118   0.37743   0.40535
 Alpha virt. eigenvalues --    0.40681   0.73627   0.76908   0.78723   0.81357
 Alpha virt. eigenvalues --    0.82083   0.94435   1.05530   1.23253
  Beta  occ. eigenvalues --  -89.90180  -8.26954  -6.18675  -6.18291  -6.18039
  Beta  occ. eigenvalues --   -0.82335  -0.51170  -0.43000  -0.31345
  Beta virt. eigenvalues --   -0.10856   0.07506   0.13144   0.36206   0.38245
  Beta virt. eigenvalues --    0.40843   0.41550   0.72221   0.77309   0.80146
  Beta virt. eigenvalues --    0.82637   0.83353   0.94237   1.05381   1.23977

 Mulliken charges and spin densities:
               1          2
     1  H    0.124447  -0.004909
     2  S   -0.161148   0.287790
     3  H   -0.010119  -0.104018
     4  H    0.046821   0.821136
 Sum of Mulliken charges =  -0.00000   1.00000

 Dipole moment (field-independent basis, Debye):
    X=              0.6699    Y=             -1.2549    Z=              0.0000  Tot=              1.4225
 Quadrupole moment (field-independent basis, Debye-Ang):
   XX=            -13.7769   YY=            -14.7977   ZZ=            -17.9038
   XY=              0.4891   XZ=              0.0000   YZ=              0.0000

  Exact polarizability:  18.842   5.608  31.345  -0.000  -0.000  11.368
 Approx polarizability:  20.991   5.499  33.429   0.000   0.000  12.051

 ******    1 imaginary frequencies (negative Signs) ******

                      1                      2                      3
                     A'                     A'                     A"
 Frequencies --  -1107.1055               462.7390               508.1830
 Red. masses --      1.0093                 1.0171                 1.0139
 Frc consts  --      0.7288                 0.1283                 0.1543
 IR Inten    --      9.7056                 5.7121                 9.9454

                      4                      5                      6
                     A'                     A'                     A'
 Frequencies --   1205.4614              1554.9589              2757.3321
 Red. masses --      1.0437                 1.0587                 1.0381
 Frc consts  --      0.8936                 1.5083                 4.6501
 IR Inten    --      6.0591                 1.8904                 8.2067

 - Thermochemistry -
 -------------------
 Temperature   298.150 Kelvin.  Pressure   1.00000 Atm.
 Atom     1 has atomic number  1 and mass   1.00783

 Molecular mass:    34.99555 amu.
 Principal axes and moments of inertia in atomic units:
                           1         2         3
     Eigenvalues --     6.30790  30.81374  37.12165
           X            0.33174   0.94337   0.00000
           Y            0.94337  -0.33174   0.00000
           Z            0.00000   0.00000   1.00000
 This molecule is an asymmetric top.
 Rotational symmetry number  1.
 Rotational temperatures (Kelvin)     13.73102     2.81089     2.33325
 Rotational constants (GHZ):         286.10804    58.56936    48.61695
    1 imaginary frequencies ignored.
 Zero-point vibrational energy      38810.9 (Joules/Mol)
                                    9.27603 (Kcal/Mol)
 Warning -- explicit consideration of   2 degrees of freedom as
           vibrations may cause significant error
 Vibrational temperatures:    665.78   731.16  1734.39  2237.24  3967.19
          (Kelvin)

 Zero-point correction=                           0.014782 (Hartree/Particle)
 Thermal correction to Energy=                    0.018106
 Thermal correction to Enthalpy=                  0.019051
 Thermal correction to Gibbs Free Energy=        -0.007577
 Sum of electronic and zero-point Energies=           -399.808661
 Sum of electronic and thermal Energies=              -399.805337
 Sum of electronic and thermal Enthalpies=            -399.804392
 Sum of electronic and thermal Free Energies=         -399.831020

                     E (Thermal)             CV                S
                      KCal/Mol        Cal/Mol-Kelvin    Cal/Mol-Kelvin
 Total                   11.362              8.790             56.042
 Electronic               0.000              0.000              1.377
 Translational            0.889              2.981             36.588
 Rotational               0.889              2.981             16.630
 Vibrational              9.585              2.828              1.446
 Vibration     1          0.820              1.333              0.758
 Vibration     2          0.863              1.232              0.638

 Optimization completed.
    -- Stationary point found.

 1\1\GINC-NODE22\Freq\UM062X\6-31G(d)\H3S1(2)\RPEVERATI\07-Oct-2020\0\\
 #P Freq M062X/6-31G* 5D 7F Integral=UltraFineGrid SCF=(NoSymm,XQC,MaxC
 yc=120) IOp(1/33=1) Geom=Check Guess=Read\\TS search on BH76.\\0,2\H,1
 .2810295382,-0.1882916435,0.\S,0.0051412824,0.2324249128,0.\H,-0.47821
 04828,-1.1015484007,0.\H,-0.8079613961,-2.2898926697,0.\\Version=ES64L
 -G16RevA.03\State=2-A'\HF=-399.8234431\S2=0.757466\S2-1=0.\S2A=0.75000
 4\RMSD=6.263e-10\RMSF=9.459e-06\ZeroPoint=0.0147823\Thermal=0.0181065\
 Dipole=0.2611969,-0.4949773,0.\DipoleDeriv=-0.0449218,0.0352122,0.,0.1

 Normal termination of Gaussian 16 at Wed Oct  7 13:33:10 2020.
