 Gaussian 16, Revision A.03,

 ----------------------------------------------------------------------
 #P Opt(TS,MaxCyc=50,NoEigenTest,MaxStep=10,AddRedundant) M062X/6-31G*
 5D 7F Integral=UltraFineGrid SCF=(NoSymm,XQC,MaxCyc=120) IOp(1/33=1)
 ----------------------------------------------------------------------

 TstMul:  Mul=     2
 TstMul:  ICh=     0
 TstMul:  Mul=     2
 Symbolic Z-matrix:
 Charge =  0 Multiplicity = 2

 SCF Done:  E(UM062X) =  -135.590334797     A.U. after   16 cycles
 SCF Done:  E(UM062X) =  -135.590436953     A.U. after   14 cycles
 SCF Done:  E(UM062X) =  -135.590419513     A.U. after   14 cycles
 SCF Done:  E(UM062X) =  -135.590492317     A.U. after   15 cycles
 SCF Done:  E(UM062X) =  -135.590510271     A.U. after   13 cycles
 SCF Done:  E(UM062X) =  -135.590481458     A.U. after   15 cycles
 SCF Done:  E(UM062X) =  -135.590482906     A.U. after   14 cycles
 SCF Done:  E(UM062X) =  -135.590488167     A.U. after   12 cycles
 SCF Done:  E(UM062X) =  -135.590480286     A.U. after   14 cycles
 SCF Done:  E(UM062X) =  -135.590480904     A.U. after   10 cycles
 SCF Done:  E(UM062X) =  -135.590481064     A.U. after    9 cycles
 SCF Done:  E(UM062X) =  -135.590481057     A.U. after   10 cycles
 SCF Done:  E(UM062X) =  -135.590481081     A.U. after    8 cycles
 SCF Done:  E(UM062X) =  -135.590481111     A.U. after    8 cycles
 SCF Done:  E(UM062X) =  -135.590481132     A.U. after    8 cycles
 SCF Done:  E(UM062X) =  -135.590481159     A.U. after    7 cycles
 Optimization completed.
    -- Stationary point found.
 Normal termination of Gaussian 16 at Wed Oct  7 13:38:33 2020.
 Gaussian 16:  ES64L-G16RevA.03 25-Dec-2016

 ----------------------------------------------------------------------
 #P Freq M062X/6-31G* 5D 7F Integral=UltraFineGrid SCF=(NoSymm,XQC,MaxC
 yc=120) IOp(1/33=1) Geom=Check Guess=Read
 ----------------------------------------------------------------------

 TstMul:  Mul=     2
 TstMul:  ICh=     0
 TstMul:  Mul=     2
 Structure from the checkpoint file:  "MN_94_RKT20_BH76_M062X_631Gs.chk"
 Charge =  0 Multiplicity = 2

                         Standard orientation:
 ---------------------------------------------------------------------
 Center     Atomic      Atomic             Coordinates (Angstroms)
 Number     Number       Type             X           Y           Z
 ---------------------------------------------------------------------
      1          6           0       -1.498367   -0.438512   -0.011508
      2          6           0       -0.495335    0.692049    0.018457
      3          7           0        1.875742   -0.340139   -0.038278
      4          1           0       -1.386439   -1.037836   -0.919089
      5          1           0       -1.367873   -1.103714    0.846585
      6          1           0       -2.527217   -0.058591    0.014348
      7          1           0       -0.524065    1.345813   -0.855827
      8          1           0       -0.496103    1.275293    0.941575
      9          1           0        0.654027    0.118430   -0.035818
     10          1           0        2.309803    0.351811   -0.662921
     11          1           0        2.169889   -0.031454    0.897403
 ---------------------------------------------------------------------

 SCF Done:  E(UM062X) =  -135.590481159     A.U. after    1 cycles

 The electronic state is 2-A.
 Alpha  occ. eigenvalues --  -14.74845 -10.54050 -10.52848  -0.94765  -0.85107
 Alpha  occ. eigenvalues --   -0.69979  -0.52757  -0.52618  -0.50976  -0.45254
 Alpha  occ. eigenvalues --   -0.43569  -0.41096  -0.36304  -0.26704
 Alpha virt. eigenvalues --    0.12951   0.16942   0.19659   0.20251   0.21718
 Alpha virt. eigenvalues --    0.22353   0.24078   0.28293   0.34881   0.54372
 Alpha virt. eigenvalues --    0.56688   0.59534   0.65326   0.65553   0.72589

  Beta  occ. eigenvalues --  -14.74052 -10.53546 -10.52867  -0.91533  -0.83973
  Beta  occ. eigenvalues --   -0.68700  -0.51505  -0.50213  -0.49753  -0.43186
  Beta  occ. eigenvalues --   -0.42280  -0.40748  -0.32794
  Beta virt. eigenvalues --   -0.04328   0.13352   0.17190   0.20187   0.20522
  Beta virt. eigenvalues --    0.22080   0.22490   0.24553   0.29032   0.37218
  Beta virt. eigenvalues --    0.54968   0.56954   0.59953   0.65699   0.68991

 Mulliken charges and spin densities:
               1          2
     1  C   -0.473177  -0.021862
     2  C   -0.469762   0.524737
     3  N   -0.775047   0.644285
     4  H    0.175648   0.003862
     5  H    0.171397   0.003854
     6  H    0.167893   0.024768
     7  H    0.171610  -0.017231
     8  H    0.168820  -0.018197
     9  H    0.247751  -0.099103
    10  H    0.307683  -0.022566
    11  H    0.307183  -0.022548
 Sum of Mulliken charges =  -0.00000   1.00000

 Dipole moment (field-independent basis, Debye):
    X=             -0.1919    Y=              1.7649    Z=              0.4450  Tot=              1.8302
 Quadrupole moment (field-independent basis, Debye-Ang):
   XX=            -20.5426   YY=            -23.2686   ZZ=            -20.2264
   XY=              3.6175   XZ=              0.8991   YZ=             -0.6184

  Exact polarizability:  55.918  -4.988  31.124  -0.149  -0.586  31.000
 Approx polarizability:  49.917  -5.787  33.035  -0.366  -0.637  33.947

 ******    1 imaginary frequencies (negative Signs) ******

                      1                      2                      3
                      A                      A                      A
 Frequencies --  -1676.2068                30.7662               125.0105
 Red. masses --      1.0856                 1.0852                 2.6407
 Frc consts  --      1.7972                 0.0006                 0.0243
 IR Inten    --    819.6940                54.4521                 7.0723

                      4                      5                      6
                      A                      A                      A
 Frequencies --    157.4216               412.8889               499.5200
 Red. masses --      1.0829                 1.0280                 2.2173
 Frc consts  --      0.0158                 0.1033                 0.3260
 IR Inten    --      0.8161                 2.9635                 0.2289

                      7                      8                      9
                      A                      A                      A
 Frequencies --    760.3352               793.2461               904.6426
 Red. masses --      1.1968                 1.2597                 1.0625
 Frc consts  --      0.4077                 0.4670                 0.5123
 IR Inten    --     19.4192                44.0286                 1.7595

                     10                     11                     12
                      A                      A                      A
 Frequencies --    959.4471              1073.9065              1221.4127
 Red. masses --      1.2602                 2.8195                 1.4128
 Frc consts  --      0.6835                 1.9158                 1.2418
 IR Inten    --    114.1924                10.4046                 3.1609

                     13                     14                     15
                      A                      A                      A
 Frequencies --   1242.8383              1371.6217              1433.8571
 Red. masses --      1.3896                 1.0886                 1.2044
 Frc consts  --      1.2647                 1.2067                 1.4589
 IR Inten    --      0.4704                96.7250                 0.2719

                     16                     17                     18
                      A                      A                      A
 Frequencies --   1495.3203              1521.9214              1525.7256
 Red. masses --      1.1411                 1.0335                 1.0471
 Frc consts  --      1.5033                 1.4104                 1.4361
 IR Inten    --      0.7595                 3.4678                 4.2068

                     19                     20                     21
                      A                      A                      A
 Frequencies --   1537.5344              1622.0611              3072.5916
 Red. masses --      1.0412                 1.0730                 1.0408
 Frc consts  --      1.4502                 1.6634                 5.7894
 IR Inten    --      9.1013                22.0306                21.9583

                     22                     23                     24
                      A                      A                      A
 Frequencies --   3123.6990              3143.0101              3164.6775
 Red. masses --      1.0579                 1.0925                 1.1034
 Frc consts  --      6.0818                 6.3586                 6.5109
 IR Inten    --     11.9087                23.6101                 7.2985

                     25                     26                     27
                      A                      A                      A
 Frequencies --   3200.1276              3401.3943              3504.7931
 Red. masses --      1.1094                 1.0499                 1.0894
 Frc consts  --      6.6938                 7.1565                 7.8843
 IR Inten    --     32.4890                 7.2705                 2.0330

 - Thermochemistry -
 -------------------
 Temperature   298.150 Kelvin.  Pressure   1.00000 Atm.
 Atom     1 has atomic number  6 and mass  12.00000

 Molecular mass:    46.06567 amu.
 Principal axes and moments of inertia in atomic units:
                           1         2         3
     Eigenvalues --    71.37974 375.04047 414.41321
           X            0.99954   0.02997   0.00420
           Y           -0.02990   0.99942  -0.01637
           Z           -0.00469   0.01624   0.99986
 This molecule is an asymmetric top.
 Rotational symmetry number  1.
 Rotational temperatures (Kelvin)      1.21342     0.23095     0.20900
 Rotational constants (GHZ):          25.28366     4.81212     4.35493
    1 imaginary frequencies ignored.
 Zero-point vibrational energy     247027.5 (Joules/Mol)
                                   59.04099 (Kcal/Mol)
 Warning -- explicit consideration of   5 degrees of freedom as
           vibrations may cause significant error
 Vibrational temperatures:     44.27   179.86   226.49   594.06   718.70
          (Kelvin)           1093.95  1141.30  1301.58  1380.43  1545.11
                             1757.34  1788.17  1973.46  2063.00  2151.43
                             2189.71  2195.18  2212.17  2333.78  4420.77
                             4494.31  4522.09  4553.27  4604.27  4893.85
                             5042.62

 Zero-point correction=                           0.094088 (Hartree/Particle)
 Thermal correction to Energy=                    0.099996
 Thermal correction to Enthalpy=                  0.100940
 Thermal correction to Gibbs Free Energy=         0.064548
 Sum of electronic and zero-point Energies=           -135.496393
 Sum of electronic and thermal Energies=              -135.490485
 Sum of electronic and thermal Enthalpies=            -135.489541
 Sum of electronic and thermal Free Energies=         -135.525933

                     E (Thermal)             CV                S
                      KCal/Mol        Cal/Mol-Kelvin    Cal/Mol-Kelvin
 Total                   62.749             17.971             76.593
 Electronic               0.000              0.000              1.377
 Translational            0.889              2.981             37.408
 Rotational               0.889              2.981             23.921
 Vibrational             60.971             12.009             13.887
 Vibration     1          0.594              1.984              5.779
 Vibration     2          0.610              1.928              3.021
 Vibration     3          0.621              1.894              2.581
 Vibration     4          0.777              1.442              0.916
 Vibration     5          0.855              1.251              0.659

                           ! Non-Optimized Parameters !
 Normal termination of Gaussian 16 at Wed Oct  7 13:39:57 2020.
