 Gaussian 16, Revision A.03,

 ----------------------------------------------------------------------
 #P Opt(TS,MaxCyc=50,NoEigenTest,MaxStep=10,AddRedundant) M062X/6-31G*
 5D 7F Integral=UltraFineGrid SCF=(NoSymm,XQC,MaxCyc=120) IOp(1/33=1)
 ----------------------------------------------------------------------

 TstMul:  Mul=     3
 TstMul:  ICh=     0
 TstMul:  Mul=     3
 Symbolic Z-matrix:
 Charge =  0 Multiplicity = 3

 SCF Done:  E(UM062X) =  -95.6351865290     A.U. after   17 cycles
 SCF Done:  E(UM062X) =  -95.6353285577     A.U. after   15 cycles
 SCF Done:  E(UM062X) =  -95.6359070302     A.U. after   17 cycles
 SCF Done:  E(UM062X) =  -95.6352368620     A.U. after   17 cycles
 SCF Done:  E(UM062X) =  -95.6348977524     A.U. after   18 cycles
 SCF Done:  E(UM062X) =  -95.6346308315     A.U. after   18 cycles
 SCF Done:  E(UM062X) =  -95.6343976406     A.U. after   19 cycles
 SCF Done:  E(UM062X) =  -95.6343500326     A.U. after   19 cycles
 SCF Done:  E(UM062X) =  -95.6343537066     A.U. after   12 cycles
 SCF Done:  E(UM062X) =  -95.6343541707     A.U. after   11 cycles
 SCF Done:  E(UM062X) =  -95.6343547765     A.U. after   12 cycles
 SCF Done:  E(UM062X) =  -95.6343556620     A.U. after   16 cycles
 SCF Done:  E(UM062X) =  -95.6343591218     A.U. after   16 cycles
 SCF Done:  E(UM062X) =  -95.6344169299     A.U. after   19 cycles
 SCF Done:  E(UM062X) =  -95.6344143377     A.U. after   19 cycles
 SCF Done:  E(UM062X) =  -95.6344340237     A.U. after   18 cycles
 SCF Done:  E(UM062X) =  -95.6344349139     A.U. after   16 cycles
 SCF Done:  E(UM062X) =  -95.6344350721     A.U. after   11 cycles
 SCF Done:  E(UM062X) =  -95.6344351282     A.U. after   11 cycles
 Optimization completed.
    -- Stationary point found.
 Normal termination of Gaussian 16 at Wed Oct  7 13:36:58 2020.
 Gaussian 16:  ES64L-G16RevA.03 25-Dec-2016

 ----------------------------------------------------------------------
 #P Freq M062X/6-31G* 5D 7F Integral=UltraFineGrid SCF=(NoSymm,XQC,MaxC
 yc=120) IOp(1/33=1) Geom=Check Guess=Read
 ----------------------------------------------------------------------

 TstMul:  Mul=     3
 TstMul:  ICh=     0
 TstMul:  Mul=     3
 Structure from the checkpoint file:  "MN_92_RKT18_BH76_M062X_631Gs.chk"
 Charge =  0 Multiplicity = 3

                         Standard orientation:
 ---------------------------------------------------------------------
 Center     Atomic      Atomic             Coordinates (Angstroms)
 Number     Number       Type             X           Y           Z
 ---------------------------------------------------------------------
      1          6           0       -1.218269   -0.012384    0.000004
      2          7           0        1.411830    0.127804    0.000041
      3          1           0       -1.412966   -0.587460    0.901459
      4          1           0       -1.416586   -0.534143   -0.932580
      5          1           0       -1.554023    1.020717    0.030677
      6          1           0        0.252259    0.178512    0.000198
      7          1           0        1.558122   -0.897953   -0.000063
 ---------------------------------------------------------------------

 SCF Done:  E(UM062X) =  -95.6344351282     A.U. after    1 cycles

 The electronic state is 3-A.
 Alpha  occ. eigenvalues --  -14.78588 -10.55068  -0.94843  -0.78828  -0.53574
 Alpha  occ. eigenvalues --   -0.48802  -0.48674  -0.42334  -0.37888  -0.28425
 Alpha virt. eigenvalues --    0.14234   0.17815   0.21327   0.21522   0.32069
 Alpha virt. eigenvalues --    0.55182   0.55209   0.59903   0.75149   0.76078
 Alpha virt. eigenvalues --    0.76757   0.89109   0.95753   0.95810   0.97141

  Beta  occ. eigenvalues --  -14.76882 -10.54446  -0.86339  -0.75552  -0.49187
  Beta  occ. eigenvalues --   -0.47528  -0.47216  -0.35552
  Beta virt. eigenvalues --   -0.04213  -0.02685   0.14987   0.18810   0.22281
  Beta virt. eigenvalues --    0.22431   0.35259   0.56140   0.56872   0.65433
  Beta virt. eigenvalues --    0.75840   0.80511   0.81450   0.90084   0.97841

 Mulliken charges and spin densities:
               1          2
     1  C   -0.632702   0.787510
     2  N   -0.530763   1.478248
     3  H    0.188087  -0.030476
     4  H    0.188514  -0.030351
     5  H    0.197642  -0.028882
     6  H    0.289170  -0.121730
     7  H    0.300052  -0.054318
 Sum of Mulliken charges =   0.00000   2.00000

 Dipole moment (field-independent basis, Debye):
    X=             -1.2990    Y=             -1.4692    Z=             -0.0003  Tot=              1.9611
 Quadrupole moment (field-independent basis, Debye-Ang):
   XX=            -16.8266   YY=            -13.8331   ZZ=            -14.2399
   XY=             -2.8571   XZ=             -0.0006   YZ=              0.0013

  Exact polarizability:  40.649  -0.791  20.394  -0.002  -0.001  16.356
 Approx polarizability:  35.395  -0.053  20.964  -0.001  -0.001  15.948

 ******    1 imaginary frequencies (negative Signs) ******

                      1                      2                      3
                      A                      A                      A
 Frequencies --  -1401.0887               108.9273               334.0085
 Red. masses --      1.1602                 1.0486                 1.0706
 Frc consts  --      1.3419                 0.0073                 0.0704
 IR Inten    --    786.1376                65.3463                14.8667

                      4                      5                      6
                      A                      A                      A
 Frequencies --    397.5226               597.1891               785.9376
 Red. masses --      1.0792                 2.1645                 1.2227
 Frc consts  --      0.1005                 0.4548                 0.4450
 IR Inten    --      7.9260                 9.2083                19.5981

                      7                      8                      9
                      A                      A                      A
 Frequencies --   1076.4744              1181.9676              1455.2601
 Red. masses --      1.0609                 1.3221                 1.0880
 Frc consts  --      0.7243                 1.0882                 1.3576
 IR Inten    --     45.6076                17.2157                 8.2515

                     10                     11                     12
                      A                      A                      A
 Frequencies --   1458.9954              1547.3978              3131.2185
 Red. masses --      1.0803                 1.0487                 1.0166
 Frc consts  --      1.3548                 1.4795                 5.8723
 IR Inten    --      3.9066               154.0705                 0.4089

                     13                     14                     15
                      A                      A                      A
 Frequencies --   3279.4019              3281.9131              3375.7192
 Red. masses --      1.1127                 1.1126                 1.0727
 Frc consts  --      7.0505                 7.0606                 7.2021
 IR Inten    --      8.9404                 5.6428                15.1143

 - Thermochemistry -
 -------------------
 Temperature   298.150 Kelvin.  Pressure   1.00000 Atm.
 Atom     1 has atomic number  6 and mass  12.00000

 Molecular mass:    31.04220 amu.
 Principal axes and moments of inertia in atomic units:
                           1         2         3
     Eigenvalues --    15.72803 200.75973 204.37152
           X            0.99970  -0.02464  -0.00001
           Y            0.02464   0.99970  -0.00002
           Z            0.00001   0.00002   1.00000
 This molecule is an asymmetric top.
 Rotational symmetry number  1.
 Rotational temperatures (Kelvin)      5.50698     0.43143     0.42381
 Rotational constants (GHZ):         114.74679     8.98956     8.83069
    1 imaginary frequencies ignored.
 Zero-point vibrational energy     131660.6 (Joules/Mol)
                                   31.46764 (Kcal/Mol)
 Warning -- explicit consideration of   4 degrees of freedom as
           vibrations may cause significant error
 Vibrational temperatures:    156.72   480.56   571.95   859.22  1130.79
          (Kelvin)           1548.81  1700.59  2093.79  2099.17  2226.36
                             4505.12  4718.33  4721.94  4856.91

 Zero-point correction=                           0.050147 (Hartree/Particle)
 Thermal correction to Energy=                    0.054693
 Thermal correction to Enthalpy=                  0.055638
 Thermal correction to Gibbs Free Energy=         0.024358
 Sum of electronic and zero-point Energies=            -95.584288
 Sum of electronic and thermal Energies=               -95.579742
 Sum of electronic and thermal Enthalpies=             -95.578798
 Sum of electronic and thermal Free Energies=          -95.610077

                     E (Thermal)             CV                S
                      KCal/Mol        Cal/Mol-Kelvin    Cal/Mol-Kelvin
 Total                   34.321             13.454             65.834
 Electronic               0.000              0.000              2.183
 Translational            0.889              2.981             36.231
 Rotational               0.889              2.981             21.095
 Vibrational             32.543              7.492              6.325
 Vibration     1          0.606              1.942              3.288
 Vibration     2          0.716              1.608              1.241
 Vibration     3          0.764              1.475              0.972
 Vibration     4          0.955              1.038              0.455

                           ! Non-Optimized Parameters !
 Normal termination of Gaussian 16 at Wed Oct  7 13:37:35 2020.
