 Gaussian 16, Revision A.03,
 Gaussian 16:  ES64L-G16RevA.03 25-Dec-2016

 ----------------------------------------------------------------------
 #P Opt(MaxCyc=150) PM3 5D 7F Integral=UltraFineGrid SCF=(NoSymm,XQC,Ma
 xCyc=120) IOp(1/33=1)
 ----------------------------------------------------------------------

 TstMul:  Mul=     1
 TstMul:  ICh=     0
 TstMul:  Mul=     1
 Symbolic Z-matrix:
 Charge =  0 Multiplicity = 1

 SCF Done:  E(RPM3) =  0.269493599557E-01 A.U. after    9 cycles
 SCF Done:  E(RPM3) =  0.265601447525E-01 A.U. after    8 cycles
 SCF Done:  E(RPM3) =  0.264668253418E-01 A.U. after    8 cycles
 SCF Done:  E(RPM3) =  0.264660396952E-01 A.U. after    7 cycles
 Optimization completed.
    -- Stationary point found.

                         Standard orientation:
 ---------------------------------------------------------------------
 Center     Atomic      Atomic             Coordinates (Angstroms)
 Number     Number       Type             X           Y           Z
 ---------------------------------------------------------------------
      1          6           0        0.000000    0.000000    0.660916
      2          6           0        0.000000    0.000000   -0.660916
      3          1           0        0.000000    0.909840    1.254050
      4          1           0       -0.000000   -0.909840    1.254050
      5          1           0        0.000000    0.909840   -1.254050
      6          1           0       -0.000000   -0.909840   -1.254050
 ---------------------------------------------------------------------

 The electronic state is 1-AG.
 Alpha  occ. eigenvalues --   -1.21091  -0.77144  -0.59322  -0.55978  -0.43888
 Alpha  occ. eigenvalues --   -0.39112
 Alpha virt. eigenvalues --    0.04517   0.13337   0.14266   0.15501   0.20168
 Alpha virt. eigenvalues --    0.21109

 Mulliken charges:
               1
     1  C   -0.152575
     2  C   -0.152575
     3  H    0.076288
     4  H    0.076288
     5  H    0.076288
     6  H    0.076288
 Sum of Mulliken charges =  -0.00000

 Dipole moment (field-independent basis, Debye):
    X=             -0.0000    Y=             -0.0000    Z=             -0.0000  Tot=              0.0000
 N-N= 2.657947884947D+01 E-N=-2.907444412881D+01  KE=-1.610089903823D+01
 Leave Link  601 at Wed Oct 21 14:19:35 2020, MaxMem=  2684354560 cpu:               2.9 elap:               0.8
 (Enter /udrive/faculty/rpeverati/g16/g16/l9999.exe)

 Test job not archived.
 1\1\GINC-NODE52\FOpt\RPM3\ZDO\C2H4\RPEVERATI\21-Oct-2020\0\\#P Opt(Max
 Cyc=150) PM3 5D 7F Integral=UltraFineGrid SCF=(NoSymm,XQC,MaxCyc=120)
 IOp(1/33=1)\\TS search on BH76.\\0,1\C,0.,0.,0.6609163302\C,0.,0.,-0.6
 609163302\H,0.,0.9098402574,1.2540498173\H,0.,-0.9098402574,1.25404981
 73\H,0.,0.9098402574,-1.2540498173\H,0.,-0.9098402574,-1.2540498173\\V

 Normal termination of Gaussian 16 at Wed Oct 21 14:19:37 2020.
