 Gaussian 16, Revision A.03,
 Gaussian 16:  ES64L-G16RevA.03 25-Dec-2016

 ----------------------------------------------------------------------
 #P Opt(MaxCyc=150) PM3 5D 7F Integral=UltraFineGrid SCF=(NoSymm,XQC,Ma
 xCyc=120) IOp(1/33=1)
 ----------------------------------------------------------------------

 TstMul:  Mul=     2
 TstMul:  ICh=     0
 TstMul:  Mul=     2
 Symbolic Z-matrix:
 Charge =  0 Multiplicity = 2

 SCF Done:  E(UPM3) =  0.243305034111E-01 A.U. after   15 cycles
 SCF Done:  E(UPM3) =  0.232139512995E-01 A.U. after   14 cycles
 SCF Done:  E(UPM3) =  0.231348803011E-01 A.U. after   13 cycles
 SCF Done:  E(UPM3) =  0.231240977779E-01 A.U. after   12 cycles
 Optimization completed.
    -- Stationary point found.

                         Standard orientation:
 ---------------------------------------------------------------------
 Center     Atomic      Atomic             Coordinates (Angstroms)
 Number     Number       Type             X           Y           Z
 ---------------------------------------------------------------------
      1          6           0       -0.004020   -0.681378   -0.000000
      2          6           0       -0.004020    0.775294    0.000000
      3          1           0        1.033129   -1.050132   -0.000000
      4          1           0       -0.499753   -1.096659    0.887175
      5          1           0       -0.499753   -1.096659   -0.887175
      6          1           0        0.007306    1.339977   -0.923087
      7          1           0        0.007306    1.339977    0.923087
 ---------------------------------------------------------------------

 The electronic state is 2-A'.
 Alpha  occ. eigenvalues --   -1.23299  -0.82065  -0.57663  -0.53085  -0.52738
 Alpha  occ. eigenvalues --   -0.44817  -0.34372
 Alpha virt. eigenvalues --    0.12099   0.14764   0.15320   0.16092   0.18429
 Alpha virt. eigenvalues --    0.18811
  Beta  occ. eigenvalues --   -1.21009  -0.78947  -0.56775  -0.51793  -0.50904
  Beta  occ. eigenvalues --   -0.44349
  Beta virt. eigenvalues --    0.03871   0.14453   0.15020   0.16225   0.16768
  Beta virt. eigenvalues --    0.19994   0.20135

 Mulliken charges and spin densities:
               1          2
     1  C   -0.070590  -0.131459
     2  C   -0.221708   1.169938
     3  H    0.047679   0.069713
     4  H    0.041487   0.024398
     5  H    0.041487   0.024398
     6  H    0.080823  -0.078494
     7  H    0.080823  -0.078494
 Sum of Mulliken charges =   0.00000   1.00000

 Dipole moment (field-independent basis, Debye):
    X=              0.0741    Y=             -0.2177    Z=              0.0000  Tot=              0.2300
 N-N= 2.999329696273D+01 E-N=-3.472261579721D+01  KE=-1.669956536303D+01
 Leave Link  601 at Wed Oct 21 14:19:42 2020, MaxMem=  2684354560 cpu:               2.1 elap:               1.0
 (Enter /udrive/faculty/rpeverati/g16/g16/l9999.exe)

 Test job not archived.
 1\1\GINC-NODE56\FOpt\UPM3\ZDO\C2H5(2)\RPEVERATI\21-Oct-2020\0\\#P Opt(
 MaxCyc=150) PM3 5D 7F Integral=UltraFineGrid SCF=(NoSymm,XQC,MaxCyc=12
 0) IOp(1/33=1)\\TS search on BH76.\\0,2\C,-0.0111263101,-0.684760393,0
 .\C,0.0279400699,0.7713880443,0.\H,1.0157602973,-1.0811962415,0.\H,-0.
 5178181441,-1.0865963786,0.8871751306\H,-0.5178181441,-1.0865963786,-0

 Normal termination of Gaussian 16 at Wed Oct 21 14:19:45 2020.
