 Gaussian 16, Revision A.03,
 Gaussian 16:  ES64L-G16RevA.03 25-Dec-2016

 ----------------------------------------------------------------------
 #P Opt(MaxCyc=150) PM3 5D 7F Integral=UltraFineGrid SCF=(NoSymm,XQC,Ma
 xCyc=120) IOp(1/33=1)
 ----------------------------------------------------------------------

 TstMul:  Mul=     1
 TstMul:  ICh=     0
 TstMul:  Mul=     1
 Symbolic Z-matrix:
 Charge =  0 Multiplicity = 1

 SCF Done:  E(RPM3) = -0.230532097036E-01 A.U. after   12 cycles
 SCF Done:  E(RPM3) = -0.233453541104E-01 A.U. after   10 cycles
 SCF Done:  E(RPM3) = -0.234092528674E-01 A.U. after   10 cycles
 SCF Done:  E(RPM3) = -0.234192263884E-01 A.U. after    9 cycles
 Optimization completed.
    -- Stationary point found.

                         Standard orientation:
 ---------------------------------------------------------------------
 Center     Atomic      Atomic             Coordinates (Angstroms)
 Number     Number       Type             X           Y           Z
 ---------------------------------------------------------------------
      1          6           0        0.000000    0.000000   -1.110689
      2         17           0        0.000000    0.000000    0.653869
      3          1           0        0.000000    1.028727   -1.483878
      4          1           0        0.890904   -0.514364   -1.483878
      5          1           0       -0.890904   -0.514364   -1.483878
 ---------------------------------------------------------------------

 The electronic state is 1-A1.
 Alpha  occ. eigenvalues --   -2.03134  -1.02457  -0.54423  -0.54423  -0.50966
 Alpha  occ. eigenvalues --   -0.38502  -0.38502
 Alpha virt. eigenvalues --    0.04875   0.13412   0.13839   0.13839

 Mulliken charges:
               1
     1  C   -0.085705
     2  Cl  -0.063754
     3  H    0.049820
     4  H    0.049820
     5  H    0.049820
 Sum of Mulliken charges =  -0.00000

 Dipole moment (field-independent basis, Debye):
    X=              0.0000    Y=             -0.0000    Z=             -1.3767  Tot=              1.3767
 N-N= 3.456290272084D+01 E-N=-3.218423537309D+01  KE=-2.614027388259D+01
 Leave Link  601 at Wed Oct 21 14:20:45 2020, MaxMem=  2684354560 cpu:               2.9 elap:               0.7
 (Enter /udrive/faculty/rpeverati/g16/g16/l9999.exe)

 Test job not archived.
 1\1\GINC-NODE06\FOpt\RPM3\ZDO\C1H3Cl1\RPEVERATI\21-Oct-2020\0\\#P Opt(
 MaxCyc=150) PM3 5D 7F Integral=UltraFineGrid SCF=(NoSymm,XQC,MaxCyc=12
 0) IOp(1/33=1)\\TS search on BH76.\\0,1\C,0.,0.,-0.1289348408\Cl,0.,0.
 ,1.6356223752\H,-0.5143635487,-0.8909037999,-0.5021236431\H,-0.5143635
 487,0.8909037999,-0.5021236431\H,1.0287270973,0.,-0.5021236431\\Versio

 Normal termination of Gaussian 16 at Wed Oct 21 14:20:47 2020.
