 Gaussian 16, Revision A.03,
 Gaussian 16:  ES64L-G16RevA.03 25-Dec-2016

 ----------------------------------------------------------------------
 #P Opt(MaxCyc=150) PM3 5D 7F Integral=UltraFineGrid SCF=(NoSymm,XQC,Ma
 xCyc=120) IOp(1/33=1)
 ----------------------------------------------------------------------

 TstMul:  Mul=     2
 TstMul:  ICh=     0
 TstMul:  Mul=     2
 Symbolic Z-matrix:
 Charge =  0 Multiplicity = 2

 SCF Done:  E(UPM3) =  0.179396800448E-01 A.U. after   15 cycles
 SCF Done:  E(UPM3) =  0.165707677664E-01 A.U. after   14 cycles
 SCF Done:  E(UPM3) =  0.164486258450E-01 A.U. after   12 cycles
 SCF Done:  E(UPM3) =  0.164351742899E-01 A.U. after   12 cycles
 Optimization completed.
    -- Stationary point found.

                         Standard orientation:
 ---------------------------------------------------------------------
 Center     Atomic      Atomic             Coordinates (Angstroms)
 Number     Number       Type             X           Y           Z
 ---------------------------------------------------------------------
      1          6           0        1.179683   -0.285403    0.000049
      2          6           0       -0.065106    0.579840   -0.000049
      3          6           0       -1.274736   -0.253386   -0.000006
      4          1           0        1.219979   -0.934628    0.884229
      5          1           0        1.219987   -0.934819   -0.883991
      6          1           0        2.088815    0.328994   -0.000012
      7          1           0       -0.065581    1.248100   -0.883903
      8          1           0       -0.065595    1.248281    0.883666
      9          1           0       -1.718551   -0.600760    0.923770
     10          1           0       -1.718103   -0.601477   -0.923728
 ---------------------------------------------------------------------

 The electronic state is 2-A.
 Alpha  occ. eigenvalues --   -1.32723  -0.97244  -0.76839  -0.59940  -0.56375
 Alpha  occ. eigenvalues --   -0.51893  -0.49726  -0.46348  -0.42561  -0.34967
 Alpha virt. eigenvalues --    0.11818   0.13925   0.14167   0.15294   0.16232
 Alpha virt. eigenvalues --    0.16651   0.17515   0.18794   0.19011
  Beta  occ. eigenvalues --   -1.31444  -0.94342  -0.75399  -0.59372  -0.55526
  Beta  occ. eigenvalues --   -0.50842  -0.49052  -0.45658  -0.42376
  Beta virt. eigenvalues --    0.03681   0.13955   0.14071   0.14993   0.15613
  Beta virt. eigenvalues --    0.16883   0.17026   0.17754   0.20041   0.20226

 Mulliken charges and spin densities:
               1          2
     1  C   -0.100181   0.062855
     2  C   -0.064126  -0.114564
     3  C   -0.209882   1.185970
     4  H    0.038367  -0.005302
     5  H    0.038367  -0.005302
     6  H    0.036761  -0.003372
     7  H    0.050196   0.018864
     8  H    0.050192   0.018834
     9  H    0.080154  -0.078991
    10  H    0.080152  -0.078992
 Sum of Mulliken charges =   0.00000   1.00000

 Dipole moment (field-independent basis, Debye):
    X=              0.1946    Y=             -0.0065    Z=             -0.0000  Tot=              0.1947
 N-N= 5.457324529024D+01 E-N=-7.185966683049D+01  KE=-2.472768262535D+01
 Leave Link  601 at Wed Oct 21 14:21:11 2020, MaxMem=  2684354560 cpu:               2.3 elap:               1.6
 (Enter /udrive/faculty/rpeverati/g16/g16/l9999.exe)

 Test job not archived.
 1\1\GINC-NODE56\FOpt\UPM3\ZDO\C3H7(2)\RPEVERATI\21-Oct-2020\0\\#P Opt(
 MaxCyc=150) PM3 5D 7F Integral=UltraFineGrid SCF=(NoSymm,XQC,MaxCyc=12
 0) IOp(1/33=1)\\TS search on BH76.\\0,2\C,1.1860469027,-0.2871301266,0
 .0000522372\C,-0.0606745583,0.5753261159,-0.0000454395\C,-1.2684374167
 ,-0.260602847,-0.000002508\H,1.2277944071,-0.9362636994,0.8842318411\H

 Normal termination of Gaussian 16 at Wed Oct 21 14:21:15 2020.
