 Gaussian 16, Revision A.03,
 Gaussian 16:  ES64L-G16RevA.03 25-Dec-2016

 ----------------------------------------------------------------------
 #P Opt(MaxCyc=150) PM3 5D 7F Integral=UltraFineGrid SCF=(NoSymm,XQC,Ma
 xCyc=120) IOp(1/33=1)
 ----------------------------------------------------------------------

 TstMul:  Mul=     2
 TstMul:  ICh=     0
 TstMul:  Mul=     2
 Symbolic Z-matrix:
 Charge =  0 Multiplicity = 2

 SCF Done:  E(UPM3) =  0.243009956699E-01 A.U. after   15 cycles
 SCF Done:  E(UPM3) =  0.232099690962E-01 A.U. after   14 cycles
 SCF Done:  E(UPM3) =  0.231339914783E-01 A.U. after   13 cycles
 SCF Done:  E(UPM3) =  0.231240461901E-01 A.U. after   12 cycles
 Optimization completed.
    -- Stationary point found.

                         Standard orientation:
 ---------------------------------------------------------------------
 Center     Atomic      Atomic             Coordinates (Angstroms)
 Number     Number       Type             X           Y           Z
 ---------------------------------------------------------------------
      1          6           0        0.775275    0.000107   -0.005795
      2          6           0       -0.681401    0.000126   -0.002392
      3          1           0       -1.098197    0.893249   -0.485911
      4          1           0        1.339713   -0.923155    0.004030
      5          1           0       -1.047963   -0.013432    1.035436
      6          1           0       -1.097147   -0.881011   -0.508459
      7          1           0        1.340347    0.922949    0.004025
 ---------------------------------------------------------------------

 The electronic state is 2-A.
 Alpha  occ. eigenvalues --   -1.23299  -0.82066  -0.57663  -0.53084  -0.52738
 Alpha  occ. eigenvalues --   -0.44817  -0.34372
 Alpha virt. eigenvalues --    0.12099   0.14764   0.15320   0.16092   0.18429
 Alpha virt. eigenvalues --    0.18811
  Beta  occ. eigenvalues --   -1.21009  -0.78947  -0.56776  -0.51792  -0.50904
  Beta  occ. eigenvalues --   -0.44349
  Beta virt. eigenvalues --    0.03870   0.14453   0.15021   0.16225   0.16768
  Beta virt. eigenvalues --    0.19994   0.20135

 Mulliken charges and spin densities:
               1          2
     1  C   -0.221708   1.169945
     2  C   -0.070582  -0.131461
     3  H    0.041376   0.023779
     4  H    0.080774  -0.078511
     5  H    0.047691   0.069692
     6  H    0.041591   0.025035
     7  H    0.080859  -0.078479
 Sum of Mulliken charges =  -0.00000   1.00000

 Dipole moment (field-independent basis, Debye):
    X=             -0.2175    Y=             -0.0020    Z=              0.0742  Tot=              0.2299
 N-N= 2.999332203864D+01 E-N=-3.472264870859D+01  KE=-1.669956551716D+01
 Leave Link  601 at Wed Oct 21 14:19:49 2020, MaxMem=  2684354560 cpu:               1.6 elap:               0.6
 (Enter /udrive/faculty/rpeverati/g16/g16/l9999.exe)

 Test job not archived.
 1\1\GINC-NODE34\FOpt\UPM3\ZDO\C2H5(2)\RPEVERATI\21-Oct-2020\0\\#P Opt(
 MaxCyc=150) PM3 5D 7F Integral=UltraFineGrid SCF=(NoSymm,XQC,MaxCyc=12
 0) IOp(1/33=1)\\TS search on BH76.\\0,2\C,0.7715274158,-0.0001026754,0
 .0171123127\C,-0.6850400644,0.0003522324,-0.0009776458\H,-1.094391361,
 0.8936589839,-0.4904793776\H,1.3354841766,-0.923534804,0.0351465912\H,

 Normal termination of Gaussian 16 at Wed Oct 21 14:19:51 2020.
