 Gaussian 16, Revision A.03,
 Gaussian 16:  ES64L-G16RevA.03 25-Dec-2016

 ----------------------------------------------------------------------
 #P Opt(MaxCyc=150) PM3 5D 7F Integral=UltraFineGrid SCF=(NoSymm,XQC,Ma
 xCyc=120) IOp(1/33=1)
 ----------------------------------------------------------------------

 TstMul:  Mul=     1
 TstMul:  ICh=     0
 TstMul:  Mul=     1
 Symbolic Z-matrix:
 Charge =  0 Multiplicity = 1

 SCF Done:  E(RPM3) = -0.284702478694E-01 A.U. after    9 cycles
 SCF Done:  E(RPM3) = -0.288956087222E-01 A.U. after    7 cycles
 SCF Done:  E(RPM3) = -0.289330802886E-01 A.U. after    8 cycles
 SCF Done:  E(RPM3) = -0.289350065340E-01 A.U. after    8 cycles
 Optimization completed.
    -- Stationary point found.

                         Standard orientation:
 ---------------------------------------------------------------------
 Center     Atomic      Atomic             Coordinates (Angstroms)
 Number     Number       Type             X           Y           Z
 ---------------------------------------------------------------------
      1          6           0        0.739422   -0.024460   -0.135676
      2          6           0       -0.739422    0.024460    0.135676
      3          1           0       -1.247819   -0.877521   -0.229020
      4          1           0        0.951299   -0.105855   -1.209698
      5          1           0       -1.212574    0.885095   -0.354706
      6          1           0       -0.951311    0.105285    1.209739
      7          1           0        1.247735    0.877773    0.228515
      8          1           0        1.212670   -0.884777    0.355172
 ---------------------------------------------------------------------

 The electronic state is 1-A.
 Alpha  occ. eigenvalues --   -1.26032  -0.84448  -0.55813  -0.55813  -0.50718
 Alpha  occ. eigenvalues --   -0.44010  -0.44010
 Alpha virt. eigenvalues --    0.14304   0.14797   0.14797   0.15974   0.17919
 Alpha virt. eigenvalues --    0.18093   0.18093

 Mulliken charges:
               1
     1  C   -0.105425
     2  C   -0.105425
     3  H    0.035142
     4  H    0.035142
     5  H    0.035142
     6  H    0.035142
     7  H    0.035142
     8  H    0.035142
 Sum of Mulliken charges =  -0.00000

 Dipole moment (field-independent basis, Debye):
    X=              0.0000    Y=             -0.0000    Z=              0.0000  Tot=              0.0000
 N-N= 3.388260743182D+01 E-N=-4.122391052512D+01  KE=-1.738228287205D+01
 Leave Link  601 at Wed Oct 21 14:20:51 2020, MaxMem=  2684354560 cpu:               8.7 elap:               1.8
 (Enter /udrive/faculty/rpeverati/g16/g16/l9999.exe)

 Test job not archived.
 1\1\GINC-NODE52\FOpt\RPM3\ZDO\C2H6\RPEVERATI\21-Oct-2020\0\\#P Opt(Max
 Cyc=150) PM3 5D 7F Integral=UltraFineGrid SCF=(NoSymm,XQC,MaxCyc=120)
 IOp(1/33=1)\\TS search on BH76.\\0,1\C,-0.7521648047,-0.0000003909,0.0
 000004677\C,0.7521647923,-0.0000002828,0.0000014051\H,1.1568329772,-0.
 4449905558,-0.9182944559\H,-1.1568323684,-1.0177218129,-0.0743448441\H

 Normal termination of Gaussian 16 at Wed Oct 21 14:20:54 2020.
