 Gaussian 16, Revision A.03,
 Gaussian 16:  ES64L-G16RevA.03 25-Dec-2016

 ----------------------------------------------------------------------
 #P Opt(MaxCyc=150) PM3 5D 7F Integral=UltraFineGrid SCF=(NoSymm,XQC,Ma
 xCyc=120) IOp(1/33=1)
 ----------------------------------------------------------------------

 TstMul:  Mul=     1
 TstMul:  ICh=     0
 TstMul:  Mul=     1
 Symbolic Z-matrix:
 Charge =  0 Multiplicity = 1

 SCF Done:  E(RPM3) =  0.362735020420E-01 A.U. after   12 cycles
 SCF Done:  E(RPM3) =  0.338756652472E-01 A.U. after   11 cycles
 SCF Done:  E(RPM3) =  0.339293479326E-01 A.U. after   11 cycles
 SCF Done:  E(RPM3) =  0.336244824247E-01 A.U. after   10 cycles
 SCF Done:  E(RPM3) =  0.334966664764E-01 A.U. after    9 cycles
 SCF Done:  E(RPM3) =  0.334896741839E-01 A.U. after    9 cycles
 Optimization completed.
    -- Stationary point found.

                         Standard orientation:
 ---------------------------------------------------------------------
 Center     Atomic      Atomic             Coordinates (Angstroms)
 Number     Number       Type             X           Y           Z
 ---------------------------------------------------------------------
      1          6           0       -1.956614   -0.641640    0.000000
      2          6           0       -1.237419    0.650048    0.000050
      3          6           0        0.094960    0.777291    0.000034
      4          6           0        1.006227   -0.356307   -0.000035
      5          6           0        2.329507   -0.213680   -0.000042
      6          1           0       -2.598931   -0.727404    0.886402
      7          1           0       -2.598972   -0.727314   -0.886381
      8          1           0       -1.266837   -1.502377   -0.000059
      9          1           0       -1.869674    1.546281    0.000102
     10          1           0        0.550571    1.775683    0.000073
     11          1           0        0.532009   -1.351776   -0.000082
     12          1           0        3.007756   -1.061230   -0.000093
     13          1           0        2.824116    0.753866    0.000003
 ---------------------------------------------------------------------

 The electronic state is 1-A.
 Alpha  occ. eigenvalues --   -1.37088  -1.16244  -0.96284  -0.78401  -0.67625
 Alpha  occ. eigenvalues --   -0.62258  -0.58199  -0.52721  -0.52375  -0.48769
 Alpha  occ. eigenvalues --   -0.47897  -0.42844  -0.42794  -0.33737
 Alpha virt. eigenvalues --    0.00940   0.07911   0.12264   0.12926   0.13603
 Alpha virt. eigenvalues --    0.14581   0.14962   0.16107   0.16162   0.16400
 Alpha virt. eigenvalues --    0.18794   0.19760   0.22113   0.22396

 Mulliken charges:
               1
     1  C   -0.084762
     2  C   -0.127782
     3  C   -0.124218
     4  C   -0.111919
     5  C   -0.149411
     6  H    0.047143
     7  H    0.047143
     8  H    0.048203
     9  H    0.093796
    10  H    0.098994
    11  H    0.104174
    12  H    0.078038
    13  H    0.080601
 Sum of Mulliken charges =  -0.00000

 Dipole moment (field-independent basis, Debye):
    X=             -0.2851    Y=             -0.1403    Z=             -0.0000  Tot=              0.3177
 N-N= 9.904180939546D+01 E-N=-1.403523785450D+02  KE=-3.891955307706D+01
 Leave Link  601 at Wed Oct 21 14:21:12 2020, MaxMem=  2684354560 cpu:               4.4 elap:               1.0
 (Enter /udrive/faculty/rpeverati/g16/g16/l9999.exe)

 Test job not archived.
 1\1\GINC-NODE34\FOpt\RPM3\ZDO\C5H8\RPEVERATI\21-Oct-2020\0\\#P Opt(Max
 Cyc=150) PM3 5D 7F Integral=UltraFineGrid SCF=(NoSymm,XQC,MaxCyc=120)
 IOp(1/33=1)\\TS search on BH76.\\0,1\C,-1.9715710942,-0.6110846702,0.0
 000012904\C,-1.2383705161,0.6727056237,0.0000507106\C,0.095313341,0.78
 54508089,0.0000347562\C,0.994198372,-0.3579910439,-0.0000342314\C,2.31

 Normal termination of Gaussian 16 at Wed Oct 21 14:21:14 2020.
