 Gaussian 16, Revision A.03,

 ----------------------------------------------------------------------
 #P Opt(TS,MaxCyc=50,NoEigenTest,MaxStep=10,AddRedundant) PM3 5D 7F Int
 egral=UltraFineGrid SCF=(NoSymm,XQC,MaxCyc=120) IOp(1/33=1)
 ----------------------------------------------------------------------

 TstMul:  Mul=     2
 TstMul:  ICh=     0
 TstMul:  Mul=     2
 Symbolic Z-matrix:
 Charge =  0 Multiplicity = 2

 SCF Done:  E(UPM3) =  0.790490681217E-01 A.U. after   17 cycles
 SCF Done:  E(UPM3) =  0.778785555146E-01 A.U. after   14 cycles
 SCF Done:  E(UPM3) =  0.776801961802E-01 A.U. after   14 cycles
 SCF Done:  E(UPM3) =  0.776700877385E-01 A.U. after   15 cycles
 SCF Done:  E(UPM3) =  0.774506223826E-01 A.U. after   15 cycles
 SCF Done:  E(UPM3) =  0.777406740868E-01 A.U. after   16 cycles
 SCF Done:  E(UPM3) =  0.776221015825E-01 A.U. after   15 cycles
 SCF Done:  E(UPM3) =  0.774882092202E-01 A.U. after   15 cycles
 SCF Done:  E(UPM3) =  0.774775031520E-01 A.U. after   14 cycles
 SCF Done:  E(UPM3) =  0.774694199337E-01 A.U. after   14 cycles
 SCF Done:  E(UPM3) =  0.774652124882E-01 A.U. after   13 cycles
 SCF Done:  E(UPM3) =  0.774648309449E-01 A.U. after   12 cycles
 SCF Done:  E(UPM3) =  0.774639235149E-01 A.U. after   13 cycles
 SCF Done:  E(UPM3) =  0.774634349095E-01 A.U. after   12 cycles
 SCF Done:  E(UPM3) =  0.774625459437E-01 A.U. after   13 cycles
 SCF Done:  E(UPM3) =  0.774617260011E-01 A.U. after   13 cycles
 SCF Done:  E(UPM3) =  0.774613797843E-01 A.U. after   13 cycles
 SCF Done:  E(UPM3) =  0.774612703126E-01 A.U. after   12 cycles
 Optimization completed.
    -- Stationary point found.
 Normal termination of Gaussian 16 at Wed Oct 21 14:26:30 2020.
 Gaussian 16:  ES64L-G16RevA.03 25-Dec-2016

 ----------------------------------------------------------------------
 #P Freq PM3 5D 7F Integral=UltraFineGrid SCF=(NoSymm,XQC,MaxCyc=120) I
 Op(1/33=1) Geom=Check Guess=Read
 ----------------------------------------------------------------------

 TstMul:  Mul=     2
 TstMul:  ICh=     0
 TstMul:  Mul=     2
 Structure from the checkpoint file:  "MN_17_c3h7ts_BH76_PM3_SE.chk"
 Charge =  0 Multiplicity = 2

                         Standard orientation:
 ---------------------------------------------------------------------
 Center     Atomic      Atomic             Coordinates (Angstroms)
 Number     Number       Type             X           Y           Z
 ---------------------------------------------------------------------
      1          6           0       -0.486187    0.694375   -0.000017
      2          6           0       -1.270120   -0.401324    0.000017
      3          1           0       -0.239390    1.229815   -0.914767
      4          1           0       -0.239726    1.230090    0.914657
      5          1           0       -1.604940   -0.883572    0.912868
      6          1           0       -1.604365   -0.884027   -0.912806
      7          6           0        1.525786   -0.248283    0.000036
      8          1           0        2.113743    0.652340   -0.005864
      9          1           0        1.476377   -0.811041   -0.914981
     10          1           0        1.481422   -0.802210    0.920675
 ---------------------------------------------------------------------

 SCF Done:  E(UPM3) =  0.774612703127E-01 A.U. after    2 cycles

 The electronic state is 2-A.
 Alpha  occ. eigenvalues --   -1.24882  -1.00182  -0.76719  -0.59441  -0.55643
 Alpha  occ. eigenvalues --   -0.51332  -0.51322  -0.43926  -0.41621  -0.33402
 Alpha virt. eigenvalues --    0.05240   0.13200   0.13838   0.14671   0.15704
 Alpha virt. eigenvalues --    0.17431   0.17497   0.20214   0.20991
  Beta  occ. eigenvalues --   -1.24020  -0.95985  -0.76351  -0.59273  -0.55374
  Beta  occ. eigenvalues --   -0.50085  -0.50071  -0.43844  -0.38800
  Beta virt. eigenvalues --    0.02428   0.07705   0.13405   0.14699   0.15801
  Beta virt. eigenvalues --    0.16104   0.19094   0.19131   0.20340   0.21171

 Mulliken charges and spin densities:
               1          2
     1  C   -0.114554  -0.475935
     2  C   -0.174029   0.593162
     3  H    0.077591   0.037241
     4  H    0.077586   0.037229
     5  H    0.078230  -0.040874
     6  H    0.078227  -0.040874
     7  C   -0.188619   1.086233
     8  H    0.054226  -0.064418
     9  H    0.055687  -0.065892
    10  H    0.055656  -0.065872
 Sum of Mulliken charges =  -0.00000   1.00000

 Dipole moment (field-independent basis, Debye):
    X=              0.1528    Y=              0.0483    Z=             -0.0003  Tot=              0.1603
 N-N= 5.269217765045D+01 E-N=-6.819992230119D+01  KE=-2.470676929493D+01
  Exact polarizability:  29.374   9.183  23.793   0.000  -0.001  20.236
 Approx polarizability:  18.000   7.123  17.147   0.001  -0.000  12.342
 Leave Link  601 at Wed Oct 21 14:27:05 2020, MaxMem=  2684354560 cpu:               3.3 elap:               1.3
 (Enter /udrive/faculty/rpeverati/g16/g16/l701.exe)
 ... and contract with generalized density number  0.
 Compute integral second derivatives.
 Leave Link  701 at Wed Oct 21 14:27:07 2020, MaxMem=  2684354560 cpu:               5.4 elap:               1.5
 (Enter /udrive/faculty/rpeverati/g16/g16/l702.exe)
 L702 exits ... SP integral derivatives will be done elsewhere.

 ******    1 imaginary frequencies (negative Signs) ******

                      1                      2                      3
                      A                      A                      A
 Frequencies --   -435.6381                56.2396               177.7570
 Red. masses --     11.1043                 1.0833                 2.9125
 Frc consts  --      1.2416                 0.0020                 0.0542
 IR Inten    --      0.9133                 0.0008                 0.2910

                      4                      5                      6
                      A                      A                      A
 Frequencies --    330.8484               503.0441               517.8687
 Red. masses --      1.0773                 1.0659                 1.0594
 Frc consts  --      0.0695                 0.1589                 0.1674
 IR Inten    --      0.2055                 2.9861                 3.1883

                      7                      8                      9
                      A                      A                      A
 Frequencies --    818.0106               866.0464               880.1343
 Red. masses --      1.0484                 1.0130                 1.0415
 Frc consts  --      0.4133                 0.4477                 0.4753
 IR Inten    --      0.0051                 0.2124                 3.6127

                     10                     11                     12
                      A                      A                      A
 Frequencies --    935.8225               960.3290              1090.3927
 Red. masses --      1.2102                 1.3684                 1.5207
 Frc consts  --      0.6244                 0.7435                 1.0652
 IR Inten    --     73.3045                 5.2761                 0.0446

                     13                     14                     15
                      A                      A                      A
 Frequencies --   1282.4977              1292.9039              1296.3900
 Red. masses --      1.0764                 1.0983                 1.0979
 Frc consts  --      1.0431                 1.0817                 1.0871
 IR Inten    --      0.0269                 0.0747                 0.1677

                     16                     17                     18
                      A                      A                      A
 Frequencies --   1316.7929              1583.6105              3118.3469
 Red. masses --      1.1115                 4.6354                 1.0538
 Frc consts  --      1.1355                 6.8491                 6.0373
 IR Inten    --      0.3033                 1.0289                 7.4771

                     19                     20                     21
                      A                      A                      A
 Frequencies --   3120.8755              3144.4030              3148.7350
 Red. masses --      1.1129                 1.0597                 1.1132
 Frc consts  --      6.3867                 6.1732                 6.5026
 IR Inten    --      1.2582                 6.7832                 6.5019

                     22                     23                     24
                      A                      A                      A
 Frequencies --   3196.3547              3245.2814              3245.6711
 Red. masses --      1.0124                 1.1125                 1.1126
 Frc consts  --      6.0944                 6.9034                 6.9055
 IR Inten    --      2.2972                 1.5437                 1.5914

 - Thermochemistry -
 -------------------
 Temperature   298.150 Kelvin.  Pressure   1.00000 Atm.
 Atom     1 has atomic number  6 and mass  12.00000

 Molecular mass:    43.05478 amu.
 Principal axes and moments of inertia in atomic units:
                           1         2         3
     Eigenvalues --    70.90247 247.82837 282.56220
           X            0.99970   0.02467  -0.00000
           Y           -0.02467   0.99970   0.00002
           Z            0.00000  -0.00002   1.00000
 This molecule is an asymmetric top.
 Rotational symmetry number  1.
 Rotational temperatures (Kelvin)      1.22159     0.34949     0.30653
 Rotational constants (GHZ):          25.45386     7.28222     6.38706
    1 imaginary frequencies ignored.
 Zero-point vibrational energy     216095.6 (Joules/Mol)
                                   51.64808 (Kcal/Mol)
 Warning -- explicit consideration of   5 degrees of freedom as
           vibrations may cause significant error
 Vibrational temperatures:     80.92   255.75   476.02   723.77   745.10
          (Kelvin)           1176.93  1246.05  1266.32  1346.44  1381.70
                             1568.83  1845.23  1860.20  1865.22  1894.57
                             2278.46  4486.61  4490.24  4524.09  4530.33
                             4598.84  4669.24  4669.80

 Zero-point correction=                           0.082306 (Hartree/Particle)
 Thermal correction to Energy=                    0.087731
 Thermal correction to Enthalpy=                  0.088675
 Thermal correction to Gibbs Free Energy=         0.054426
 Sum of electronic and zero-point Energies=              0.159768
 Sum of electronic and thermal Energies=                 0.165192
 Sum of electronic and thermal Enthalpies=               0.166136
 Sum of electronic and thermal Free Energies=            0.131888

                     E (Thermal)             CV                S
                      KCal/Mol        Cal/Mol-Kelvin    Cal/Mol-Kelvin
 Total                   55.052             17.390             72.083
 Electronic               0.000              0.000              1.377
 Translational            0.889              2.981             37.206
 Rotational               0.889              2.981             23.122
 Vibrational             53.275             11.428             10.377
 Vibration     1          0.596              1.975              4.585
 Vibration     2          0.628              1.870              2.352
 Vibration     3          0.713              1.614              1.256
 Vibration     4          0.858              1.243              0.651
 Vibration     5          0.873              1.210              0.615

                           ! Non-Optimized Parameters !
 Normal termination of Gaussian 16 at Wed Oct 21 14:27:17 2020.
