 Gaussian 16, Revision A.03,
 Gaussian 16:  ES64L-G16RevA.03 25-Dec-2016

 ----------------------------------------------------------------------
 #P Opt(MaxCyc=150) PM3 5D 7F Integral=UltraFineGrid SCF=(NoSymm,XQC,Ma
 xCyc=120) IOp(1/33=1)
 ----------------------------------------------------------------------

 TstMul:  Mul=     1
 TstMul:  ICh=     0
 TstMul:  Mul=     1
 Symbolic Z-matrix:
 Charge =  0 Multiplicity = 1

 SCF Done:  E(RPM3) = -0.334202737605E-01 A.U. after    9 cycles
 SCF Done:  E(RPM3) = -0.343714594902E-01 A.U. after    7 cycles
 SCF Done:  E(RPM3) = -0.345784278239E-01 A.U. after    7 cycles
 Optimization completed.
    -- Stationary point found.

                         Standard orientation:
 ---------------------------------------------------------------------
 Center     Atomic      Atomic             Coordinates (Angstroms)
 Number     Number       Type             X           Y           Z
 ---------------------------------------------------------------------
      1          9           0        0.000000    0.000000   -1.034653
      2         17           0        0.000000    0.000000    0.547758
 ---------------------------------------------------------------------

 The electronic state is 1-SG.
 Alpha  occ. eigenvalues --   -2.01210  -0.78532  -0.63094  -0.62160  -0.62160
 Alpha  occ. eigenvalues --   -0.40888  -0.40888
 Alpha virt. eigenvalues --    0.02110

 Mulliken charges:
               1
     1  F   -0.193140
     2  Cl   0.193140
 Sum of Mulliken charges =  -0.00000

 Dipole moment (field-independent basis, Debye):
    X=             -0.0000    Y=              0.0000    Z=              1.4154  Tot=              1.4154
 N-N= 4.130534544852D+01 E-N=-2.614099419511D+01  KE=-4.556019170685D+01
 Leave Link  601 at Wed Oct 21 14:21:57 2020, MaxMem=  2684354560 cpu:               4.6 elap:               1.0
 (Enter /udrive/faculty/rpeverati/g16/g16/l9999.exe)

 Test job not archived.
 1\1\GINC-NODE37\FOpt\RPM3\ZDO\Cl1F1\RPEVERATI\21-Oct-2020\0\\#P Opt(Ma
 xCyc=150) PM3 5D 7F Integral=UltraFineGrid SCF=(NoSymm,XQC,MaxCyc=120)
  IOp(1/33=1)\\TS search on BH76.\\0,1\F,0.,0.,-1.042024931\Cl,0.,0.,0.
 5403861022\\Version=ES64L-G16RevA.03\State=1-SG\HF=-0.0345784\RMSD=1.5
 67e-09\RMSF=6.719e-05\Dipole=0.,0.,0.5568726\PG=C*V [C*(F1Cl1)]\\@

 Normal termination of Gaussian 16 at Wed Oct 21 14:22:00 2020.
