 Gaussian 16, Revision A.03,
 Gaussian 16:  ES64L-G16RevA.03 25-Dec-2016

 ----------------------------------------------------------------------
 #P Opt(MaxCyc=150) PM3 5D 7F Integral=UltraFineGrid SCF=(NoSymm,XQC,Ma
 xCyc=120) IOp(1/33=1)
 ----------------------------------------------------------------------

 TstMul:  Mul=     1
 TstMul:  ICh=     0
 TstMul:  Mul=     1
 Symbolic Z-matrix:
 Charge =  0 Multiplicity = 1

 SCF Done:  E(RPM3) = -0.818627924404E-01 A.U. after   12 cycles
 SCF Done:  E(RPM3) = -0.825934416630E-01 A.U. after   10 cycles
 SCF Done:  E(RPM3) = -0.826554238091E-01 A.U. after   10 cycles
 SCF Done:  E(RPM3) = -0.826569347171E-01 A.U. after    9 cycles
 Optimization completed.
    -- Stationary point found.

                         Standard orientation:
 ---------------------------------------------------------------------
 Center     Atomic      Atomic             Coordinates (Angstroms)
 Number     Number       Type             X           Y           Z
 ---------------------------------------------------------------------
      1          6           0       -0.045166    0.652126    0.000000
      2          8           0       -0.045166   -0.742724    0.000000
      3          1           0       -1.104110    0.925487    0.000000
      4          1           0        0.859842   -1.027375    0.000000
      5          1           0        0.438296    1.065461    0.893672
      6          1           0        0.438296    1.065461   -0.893672
 ---------------------------------------------------------------------

 The electronic state is 1-A'.
 Alpha  occ. eigenvalues --   -1.40314  -0.97372  -0.66163  -0.57049  -0.57033
 Alpha  occ. eigenvalues --   -0.45794  -0.40937
 Alpha virt. eigenvalues --    0.12896   0.14308   0.15538   0.16131   0.20751

 Mulliken charges:
               1
     1  C    0.069974
     2  O   -0.308870
     3  H    0.040878
     4  H    0.180933
     5  H    0.008543
     6  H    0.008543
 Sum of Mulliken charges =   0.00000

 Dipole moment (field-independent basis, Debye):
    X=              1.2232    Y=              0.8468    Z=             -0.0000  Tot=              1.4877
 N-N= 3.841923915242D+01 E-N=-3.948777056102D+01  KE=-2.742278689427D+01
 Leave Link  601 at Wed Oct 21 14:21:36 2020, MaxMem=  2684354560 cpu:               3.1 elap:               1.0
 (Enter /udrive/faculty/rpeverati/g16/g16/l9999.exe)

 Test job not archived.
 1\1\GINC-NODE59\FOpt\RPM3\ZDO\C1H4O1\RPEVERATI\21-Oct-2020\0\\#P Opt(M
 axCyc=150) PM3 5D 7F Integral=UltraFineGrid SCF=(NoSymm,XQC,MaxCyc=120
 ) IOp(1/33=1)\\TS search on BH76.\\0,1\C,-0.0383977801,0.6591226321,0.
 \O,-0.0563821408,-0.7356119445,0.\H,-1.0937292873,0.9461140947,0.\H,0.
 8448804942,-1.03190797,0.\H,0.4503532379,1.0661890965,0.8936718525\H,0

 Normal termination of Gaussian 16 at Wed Oct 21 14:21:38 2020.
