 Gaussian 16, Revision A.03,
 Gaussian 16:  ES64L-G16RevA.03 25-Dec-2016

 ----------------------------------------------------------------------
 #P Opt(MaxCyc=150) PM3 5D 7F Integral=UltraFineGrid SCF=(NoSymm,XQC,Ma
 xCyc=120) IOp(1/33=1)
 ----------------------------------------------------------------------

 TstMul:  Mul=     1
 TstMul:  ICh=     0
 TstMul:  Mul=     1
 Symbolic Z-matrix:
 Charge =  0 Multiplicity = 1

 SCF Done:  E(RPM3) = -0.847379484197E-01 A.U. after   11 cycles
 SCF Done:  E(RPM3) = -0.857098089260E-01 A.U. after    9 cycles
 SCF Done:  E(RPM3) = -0.857426582969E-01 A.U. after    9 cycles
 Optimization completed.
    -- Stationary point found.

                         Standard orientation:
 ---------------------------------------------------------------------
 Center     Atomic      Atomic             Coordinates (Angstroms)
 Number     Number       Type             X           Y           Z
 ---------------------------------------------------------------------
      1          6           0        0.000000    0.000000   -0.617807
      2          9           0        0.000000    0.000000    0.733264
      3          1           0        0.000000    1.035233   -0.964177
      4          1           0        0.896538   -0.517616   -0.964177
      5          1           0       -0.896538   -0.517616   -0.964177
 ---------------------------------------------------------------------

 The electronic state is 1-A1.
 Alpha  occ. eigenvalues --   -1.16454  -0.74370  -0.65720  -0.65720  -0.63461
 Alpha  occ. eigenvalues --   -0.47500  -0.47500
 Alpha virt. eigenvalues --    0.10835   0.14037   0.14037   0.15169

 Mulliken charges:
               1
     1  C    0.053390
     2  F   -0.151066
     3  H    0.032559
     4  H    0.032559
     5  H    0.032559
 Sum of Mulliken charges =   0.00000

 Dipole moment (field-independent basis, Debye):
    X=             -0.0000    Y=             -0.0000    Z=             -1.4369  Tot=              1.4369
 N-N= 4.034699742230D+01 E-N=-3.428346068913D+01  KE=-3.696750861850D+01
 Leave Link  601 at Wed Oct 21 14:21:25 2020, MaxMem=  2684354560 cpu:               4.2 elap:               1.7
 (Enter /udrive/faculty/rpeverati/g16/g16/l9999.exe)

 Test job not archived.
 1\1\GINC-NODE52\FOpt\RPM3\ZDO\C1H3F1\RPEVERATI\21-Oct-2020\0\\#P Opt(M
 axCyc=150) PM3 5D 7F Integral=UltraFineGrid SCF=(NoSymm,XQC,MaxCyc=120
 ) IOp(1/33=1)\\TS search on BH76.\\0,1\C,0.,0.,0.062376193\F,0.,0.,-1.
 2886945844\H,0.5176164287,-0.8965379534,0.4087462687\H,0.5176164287,0.
 8965379534,0.4087462687\H,-1.0352328574,0.,0.4087462687\\Version=ES64L

 Normal termination of Gaussian 16 at Wed Oct 21 14:21:29 2020.
