 Gaussian 16, Revision A.03,
 Gaussian 16:  ES64L-G16RevA.03 25-Dec-2016

 ----------------------------------------------------------------------
 #P Opt(MaxCyc=150) PM3 5D 7F Integral=UltraFineGrid SCF=(NoSymm,XQC,Ma
 xCyc=120) IOp(1/33=1)
 ----------------------------------------------------------------------

 TstMul:  Mul=     1
 TstMul:  ICh=    -1
 TstMul:  Mul=     1
 Symbolic Z-matrix:
 Charge = -1 Multiplicity = 1

 SCF Done:  E(RPM3) = -0.116891894081     A.U. after   12 cycles
 SCF Done:  E(RPM3) = -0.117524361351     A.U. after    9 cycles
 SCF Done:  E(RPM3) = -0.118320666938     A.U. after    9 cycles
 SCF Done:  E(RPM3) = -0.118881679221     A.U. after   10 cycles
 SCF Done:  E(RPM3) = -0.119058457366     A.U. after    9 cycles
 SCF Done:  E(RPM3) = -0.119183927647     A.U. after   10 cycles
 SCF Done:  E(RPM3) = -0.119191068708     A.U. after    9 cycles
 SCF Done:  E(RPM3) = -0.119199191794     A.U. after    9 cycles
 SCF Done:  E(RPM3) = -0.119199603538     A.U. after    8 cycles
 Optimization completed.
    -- Stationary point found.

                         Standard orientation:
 ---------------------------------------------------------------------
 Center     Atomic      Atomic             Coordinates (Angstroms)
 Number     Number       Type             X           Y           Z
 ---------------------------------------------------------------------
      1         17           0        0.000000    0.000000   -2.241052
      2          6           0        0.000000    0.000000   -0.435037
      3          1           0       -0.000000    1.031768   -0.074759
      4          1           0       -0.893538   -0.515884   -0.074759
      5          1           0        0.893538   -0.515884   -0.074759
      6         17           0        0.000000    0.000000    2.407787
 ---------------------------------------------------------------------

 The electronic state is 1-A1.
 Alpha  occ. eigenvalues --   -1.91169  -1.74570  -0.86228  -0.38361  -0.38361
 Alpha  occ. eigenvalues --   -0.36353  -0.26521  -0.26521  -0.14931  -0.14931
 Alpha  occ. eigenvalues --   -0.14728
 Alpha virt. eigenvalues --    0.17901   0.30533   0.30533   0.30655

 Mulliken charges:
               1
     1  Cl  -0.233549
     2  C   -0.004518
     3  H    0.074698
     4  H    0.074698
     5  H    0.074698
     6  Cl  -0.986027
 Sum of Mulliken charges =  -1.00000

 Dipole moment (field-independent basis, Debye):
    X=              0.0000    Y=              0.0000    Z=             -8.5879  Tot=              8.5879
 N-N= 6.026395618101D+01 E-N=-6.200823776404D+01  KE=-4.550458066696D+01
 Leave Link  601 at Wed Oct 21 14:23:32 2020, MaxMem=  2684354560 cpu:               3.5 elap:               0.8
 (Enter /udrive/faculty/rpeverati/g16/g16/l9999.exe)

 Test job not archived.
 1\1\GINC-NODE21\FOpt\RPM3\ZDO\C1H3Cl2(1-)\RPEVERATI\21-Oct-2020\0\\#P
 Opt(MaxCyc=150) PM3 5D 7F Integral=UltraFineGrid SCF=(NoSymm,XQC,MaxCy
 c=120) IOp(1/33=1)\\TS search on BH76.\\-1,1\Cl,0.,0.,-2.1589555094\C,
 0.,0.,-0.3529400859\H,-0.5158841182,0.8935375035,0.0073372678\H,-0.515
 8841182,-0.8935375035,0.0073372678\H,1.0317682364,0.,0.0073372678\Cl,0

 Normal termination of Gaussian 16 at Wed Oct 21 14:23:35 2020.
