 Gaussian 16, Revision A.03,

 ----------------------------------------------------------------------
 #P Opt(TS,MaxCyc=50,NoEigenTest,MaxStep=10,AddRedundant) PM3 5D 7F Int
 egral=UltraFineGrid SCF=(NoSymm,XQC,MaxCyc=120) IOp(1/33=1)
 ----------------------------------------------------------------------

 TstMul:  Mul=     1
 TstMul:  ICh=    -1
 TstMul:  Mul=     1
 Symbolic Z-matrix:
 Charge = -1 Multiplicity = 1

 SCF Done:  E(RPM3) = -0.973032973715E-01 A.U. after   12 cycles
 SCF Done:  E(RPM3) = -0.997500881927E-01 A.U. after   11 cycles
 SCF Done:  E(RPM3) = -0.101351972394     A.U. after   11 cycles
 SCF Done:  E(RPM3) = -0.102807758626     A.U. after   11 cycles
 SCF Done:  E(RPM3) = -0.103738884864     A.U. after   10 cycles
 SCF Done:  E(RPM3) = -0.103811461876     A.U. after    9 cycles
 SCF Done:  E(RPM3) = -0.103812133688     A.U. after    8 cycles
 Optimization completed.
    -- Stationary point found.
 Normal termination of Gaussian 16 at Wed Oct 21 14:22:35 2020.
 Gaussian 16:  ES64L-G16RevA.03 25-Dec-2016

 ----------------------------------------------------------------------
 #P Freq PM3 5D 7F Integral=UltraFineGrid SCF=(NoSymm,XQC,MaxCyc=120) I
 Op(1/33=1) Geom=Check Guess=Read
 ----------------------------------------------------------------------

 TstMul:  Mul=     1
 TstMul:  ICh=    -1
 TstMul:  Mul=     1
 Structure from the checkpoint file:  "MN_28_clch3clts_BH76_PM3_SE.chk"
 Charge = -1 Multiplicity = 1

                         Standard orientation:
 ---------------------------------------------------------------------
 Center     Atomic      Atomic             Coordinates (Angstroms)
 Number     Number       Type             X           Y           Z
 ---------------------------------------------------------------------
      1         17           0        2.188761   -0.000001   -0.000014
      2          6           0       -0.000003    0.000003    0.000034
      3          1           0        0.000013    0.926108   -0.558192
      4          1           0        0.000002   -0.946581   -0.522713
      5          1           0        0.000015    0.020492    1.081183
      6         17           0       -2.188762   -0.000001   -0.000014
 ---------------------------------------------------------------------

 SCF Done:  E(RPM3) = -0.103812133688     A.U. after    2 cycles

 The electronic state is 1-A.
 Alpha  occ. eigenvalues --   -1.84270  -1.81111  -0.85957  -0.39094  -0.39092
 Alpha  occ. eigenvalues --   -0.28278  -0.21819  -0.21819  -0.21141  -0.21141
 Alpha  occ. eigenvalues --   -0.17899
 Alpha virt. eigenvalues --    0.16400   0.27043   0.31429   0.31430

 Mulliken charges:
               1
     1  Cl  -0.750540
     2  C    0.355979
     3  H    0.048371
     4  H    0.048372
     5  H    0.048343
     6  Cl  -0.750526
 Sum of Mulliken charges =  -1.00000

 Dipole moment (field-independent basis, Debye):
    X=             -0.0001    Y=              0.0000    Z=              0.0002  Tot=              0.0002
 N-N= 6.103957199925D+01 E-N=-6.353009975143D+01  KE=-4.552425455933D+01
  Exact polarizability:  91.800   0.000   7.532   0.000   0.000   7.530
 Approx polarizability:  47.976   0.000   4.327   0.000   0.000   4.326
 Leave Link  601 at Wed Oct 21 14:22:58 2020, MaxMem=  2684354560 cpu:               2.7 elap:               0.9
 (Enter /udrive/faculty/rpeverati/g16/g16/l701.exe)
 ... and contract with generalized density number  0.
 Compute integral second derivatives.
 Leave Link  701 at Wed Oct 21 14:22:59 2020, MaxMem=  2684354560 cpu:               4.9 elap:               1.1
 (Enter /udrive/faculty/rpeverati/g16/g16/l702.exe)
 L702 exits ... SP integral derivatives will be done elsewhere.

 ******    1 imaginary frequencies (negative Signs) ******

                      1                      2                      3
                      A                      A                      A
 Frequencies --   -510.1826               220.7554               220.7706
 Red. masses --     11.9961                 4.2104                 4.2106
 Frc consts  --      1.8397                 0.1209                 0.1209
 IR Inten    --   2918.1148                31.3532                31.3514

                      4                      5                      6
                      A                      A                      A
 Frequencies --    299.9842              1091.9786              1092.0115
 Red. masses --     34.8728                 1.0130                 1.0130
 Frc consts  --      1.8490                 0.7117                 0.7117
 IR Inten    --      0.0000                 0.0000                 0.0000

                      7                      8                      9
                      A                      A                      A
 Frequencies --   1194.9881              1245.8435              1246.0006
 Red. masses --      1.0524                 1.1195                 1.1195
 Frc consts  --      0.8855                 1.0238                 1.0240
 IR Inten    --    197.8723                 5.3727                 5.3755

                     10                     11                     12
                      A                      A                      A
 Frequencies --   3089.1000              3196.9021              3197.0113
 Red. masses --      1.0079                 1.1173                 1.1173
 Frc consts  --      5.6667                 6.7279                 6.7285
 IR Inten    --      0.0000                 0.9562                 0.9599

 - Thermochemistry -
 -------------------
 Temperature   298.150 Kelvin.  Pressure   1.00000 Atm.
 Atom     1 has atomic number 17 and mass  34.96885

 Molecular mass:    84.96118 amu.
 Principal axes and moments of inertia in atomic units:
                           1         2         3
     Eigenvalues --    12.624871202.793571202.79483
           X            1.00000   0.00000   0.00000
           Y           -0.00000   1.00000  -0.00000
           Z           -0.00000   0.00000   1.00000
 This molecule is an asymmetric top.
 Rotational symmetry number  1.
 Rotational temperatures (Kelvin)      6.86058     0.07201     0.07201
 Rotational constants (GHZ):         142.95122     1.50046     1.50046
    1 imaginary frequencies ignored.
 Zero-point vibrational energy      96271.5 (Joules/Mol)
                                   23.00945 (Kcal/Mol)
 Warning -- explicit consideration of   3 degrees of freedom as
           vibrations may cause significant error
 Vibrational temperatures:    317.62   317.64   431.61  1571.11  1571.16
          (Kelvin)           1719.32  1792.49  1792.72  4444.53  4599.63
                             4599.79

 Zero-point correction=                           0.036668 (Hartree/Particle)
 Thermal correction to Energy=                    0.041075
 Thermal correction to Enthalpy=                  0.042019
 Thermal correction to Gibbs Free Energy=         0.009135
 Sum of electronic and zero-point Energies=             -0.067144
 Sum of electronic and thermal Energies=                -0.062737
 Sum of electronic and thermal Enthalpies=              -0.061793
 Sum of electronic and thermal Free Energies=           -0.094677

                     E (Thermal)             CV                S
                      KCal/Mol        Cal/Mol-Kelvin    Cal/Mol-Kelvin
 Total                   25.775             12.390             69.211
 Electronic               0.000              0.000              0.000
 Translational            0.889              2.981             39.232
 Rotational               0.889              2.981             24.416
 Vibrational             23.997              6.428              5.562
 Vibration     1          0.647              1.809              1.953
 Vibration     2          0.647              1.809              1.953
 Vibration     3          0.693              1.674              1.417

 Optimization completed.
    -- Stationary point found.
 Normal termination of Gaussian 16 at Wed Oct 21 14:23:06 2020.
