 Gaussian 16, Revision A.03,
 Gaussian 16:  ES64L-G16RevA.03 25-Dec-2016

 ----------------------------------------------------------------------
 #P Opt(MaxCyc=150) PM3 5D 7F Integral=UltraFineGrid SCF=(NoSymm,XQC,Ma
 xCyc=120) IOp(1/33=1)
 ----------------------------------------------------------------------

 TstMul:  Mul=     1
 TstMul:  ICh=     0
 TstMul:  Mul=     1
 Symbolic Z-matrix:
 Charge =  0 Multiplicity = 1

 SCF Done:  E(RPM3) = -0.207548540800E-01 A.U. after    6 cycles

 The electronic state is 1-A1.
 Alpha  occ. eigenvalues --   -1.09779  -0.50129  -0.50129  -0.50129
 Alpha virt. eigenvalues --    0.15591   0.16877   0.16877   0.16877

 Mulliken charges:
               1
     1  C   -0.110568
     2  H    0.027642
     3  H    0.027642
     4  H    0.027642
     5  H    0.027642
 Sum of Mulliken charges =  -0.00000

 Dipole moment (field-independent basis, Debye):
    X=             -0.0000    Y=             -0.0000    Z=             -0.0000  Tot=              0.0000
 N-N= 1.412232453238D+01 E-N=-1.375141662207D+01  KE=-9.331414044809D+00
 Leave Link  601 at Wed Oct 21 14:21:13 2020, MaxMem=  2684354560 cpu:              11.4 elap:               2.3
 (Enter /udrive/faculty/rpeverati/g16/g16/l701.exe)
 ... and contract with generalized density number  0.
 Compute integral first derivatives.
 Leave Link  701 at Wed Oct 21 14:21:17 2020, MaxMem=  2684354560 cpu:               8.3 elap:               2.9
 (Enter /udrive/faculty/rpeverati/g16/g16/l702.exe)
 L702 exits ... SP integral derivatives will be done elsewhere.
 Leave Link  702 at Wed Oct 21 14:21:19 2020, MaxMem=  2684354560 cpu:               2.9 elap:               1.0
 (Enter /udrive/faculty/rpeverati/g16/g16/l703.exe)

 Optimization completed.
    -- Stationary point found.

                         Standard orientation:
 ---------------------------------------------------------------------
 Center     Atomic      Atomic             Coordinates (Angstroms)
 Number     Number       Type             X           Y           Z
 ---------------------------------------------------------------------
      1          6           0        0.000000    0.000000    0.000000
      2          1           0        0.627837    0.627837    0.627837
      3          1           0       -0.627837   -0.627837    0.627837
      4          1           0        0.627837   -0.627837   -0.627837
      5          1           0       -0.627837    0.627837   -0.627837
 ---------------------------------------------------------------------

 Normal termination of Gaussian 16 at Wed Oct 21 14:21:31 2020.
