 Gaussian 16, Revision A.03,
 Gaussian 16:  ES64L-G16RevA.03 25-Dec-2016

 ----------------------------------------------------------------------
 #P Opt(MaxCyc=150) PM3 5D 7F Integral=UltraFineGrid SCF=(NoSymm,XQC,Ma
 xCyc=120) IOp(1/33=1)
 ----------------------------------------------------------------------

 TstMul:  Mul=     2
 TstMul:  ICh=     0
 TstMul:  Mul=     2
 Symbolic Z-matrix:
 Charge =  0 Multiplicity = 2

 SCF Done:  E(UPM3) =  0.446140486420E-01 A.U. after   10 cycles
 SCF Done:  E(UPM3) =  0.445488399127E-01 A.U. after    7 cycles
 Optimization completed.
    -- Stationary point found.

                         Standard orientation:
 ---------------------------------------------------------------------
 Center     Atomic      Atomic             Coordinates (Angstroms)
 Number     Number       Type             X           Y           Z
 ---------------------------------------------------------------------
      1          6           0        0.000000    0.000000    0.000000
      2          1           0        0.000000    1.071419    0.000000
      3          1           0        0.927876   -0.535709    0.000000
      4          1           0       -0.927876   -0.535709    0.000000
 ---------------------------------------------------------------------

 The electronic state is 2-A2".
 Alpha  occ. eigenvalues --   -1.03776  -0.52666  -0.52666  -0.36746
 Alpha virt. eigenvalues --    0.12580   0.17474   0.17474
  Beta  occ. eigenvalues --   -0.98196  -0.51284  -0.51284
  Beta virt. eigenvalues --    0.04080   0.15642   0.19072   0.19072

 Mulliken charges and spin densities:
               1          2
     1  C   -0.195565   1.241885
     2  H    0.065188  -0.080628
     3  H    0.065188  -0.080628
     4  H    0.065188  -0.080628
 Sum of Mulliken charges =   0.00000   1.00000

 Dipole moment (field-independent basis, Debye):
    X=              0.0000    Y=              0.0000    Z=             -0.0000  Tot=              0.0000
 N-N= 1.130460574052D+01 E-N=-9.430278703054D+00  KE=-8.623644500131D+00
 Leave Link  601 at Wed Oct 21 14:21:18 2020, MaxMem=  2684354560 cpu:               3.8 elap:               1.2
 (Enter /udrive/faculty/rpeverati/g16/g16/l9999.exe)

 Test job not archived.
 1\1\GINC-NODE60\FOpt\UPM3\ZDO\C1H3(2)\RPEVERATI\21-Oct-2020\0\\#P Opt(
 MaxCyc=150) PM3 5D 7F Integral=UltraFineGrid SCF=(NoSymm,XQC,MaxCyc=12
 0) IOp(1/33=1)\\TS search on BH76.\\0,2\C,0.,0.,0.\H,0.5357094479,0.92
 78759818,0.\H,0.5357094479,-0.9278759818,0.\H,-1.0714188958,0.,0.\\Ver
 sion=ES64L-G16RevA.03\State=2-A2"\HF=0.0445488\S2=0.76986\S2-1=0.\S2A=

 Normal termination of Gaussian 16 at Wed Oct 21 14:21:20 2020.
