 Gaussian 16, Revision A.03,
 Gaussian 16:  ES64L-G16RevA.03 25-Dec-2016

 ----------------------------------------------------------------------
 #P Opt(MaxCyc=150) PM3 5D 7F Integral=UltraFineGrid SCF=(NoSymm,XQC,Ma
 xCyc=120) IOp(1/33=1)
 ----------------------------------------------------------------------

 TstMul:  Mul=     1
 TstMul:  ICh=     0
 TstMul:  Mul=     1
 Symbolic Z-matrix:
 Charge =  0 Multiplicity = 1

 SCF Done:  E(RPM3) = -0.325194075830E-01 A.U. after    6 cycles
 SCF Done:  E(RPM3) = -0.345320729442E-01 A.U. after    6 cycles
 SCF Done:  E(RPM3) = -0.345991199749E-01 A.U. after    5 cycles
 Optimization completed.
    -- Stationary point found.

                         Standard orientation:
 ---------------------------------------------------------------------
 Center     Atomic      Atomic             Coordinates (Angstroms)
 Number     Number       Type             X           Y           Z
 ---------------------------------------------------------------------
      1          9           0        0.000000    0.000000    0.675102
      2          9           0        0.000000    0.000000   -0.675102
 ---------------------------------------------------------------------

 The electronic state is 1-SGG.
 Alpha  occ. eigenvalues --   -0.89737  -0.82199  -0.71070  -0.71070  -0.69546
 Alpha  occ. eigenvalues --   -0.56406  -0.56406
 Alpha virt. eigenvalues --    0.00683

 Mulliken charges:
               1
     1  F    0.000000
     2  F    0.000000
 Sum of Mulliken charges =   0.00000

 Dipole moment (field-independent basis, Debye):
    X=              0.0000    Y=              0.0000    Z=             -0.0000  Tot=              0.0000
 N-N= 4.597067048344D+01 E-N=-2.650521568184D+01  KE=-5.557664346105D+01
 Leave Link  601 at Wed Oct 21 14:22:26 2020, MaxMem=  2684354560 cpu:               2.3 elap:               1.8
 (Enter /udrive/faculty/rpeverati/g16/g16/l9999.exe)

 Test job not archived.
 1\1\GINC-NODE42\FOpt\RPM3\ZDO\F2\RPEVERATI\21-Oct-2020\0\\#P Opt(MaxCy
 c=150) PM3 5D 7F Integral=UltraFineGrid SCF=(NoSymm,XQC,MaxCyc=120) IO
 p(1/33=1)\\TS search on BH76.\\0,1\F,0.,0.,0.6751017162\F,0.,0.,-0.675
 1017162\\Version=ES64L-G16RevA.03\State=1-SGG\HF=-0.0345991\RMSD=3.395
 e-11\RMSF=6.420e-06\Dipole=0.,0.,0.\PG=D*H [C*(F1.F1)]\\@

 Normal termination of Gaussian 16 at Wed Oct 21 14:22:29 2020.
