 Gaussian 16, Revision A.03,

 ----------------------------------------------------------------------
 #P Opt(TS,MaxCyc=50,NoEigenTest,MaxStep=10,AddRedundant) PM3 5D 7F Int
 egral=UltraFineGrid SCF=(NoSymm,XQC,MaxCyc=120) IOp(1/33=1)
 ----------------------------------------------------------------------

 TstMul:  Mul=     1
 TstMul:  ICh=    -1
 TstMul:  Mul=     1
 Symbolic Z-matrix:
 Charge = -1 Multiplicity = 1

 SCF Done:  E(RPM3) = -0.710261075634E-01 A.U. after   12 cycles
 SCF Done:  E(RPM3) = -0.723939571796E-01 A.U. after   11 cycles
 SCF Done:  E(RPM3) = -0.725193051142E-01 A.U. after   10 cycles
 SCF Done:  E(RPM3) = -0.734656136447E-01 A.U. after   10 cycles
 SCF Done:  E(RPM3) = -0.736623673706E-01 A.U. after   10 cycles
 SCF Done:  E(RPM3) = -0.746571584476E-01 A.U. after    9 cycles
 SCF Done:  E(RPM3) = -0.756020374329E-01 A.U. after   10 cycles
 SCF Done:  E(RPM3) = -0.762829764303E-01 A.U. after   10 cycles
 SCF Done:  E(RPM3) = -0.764355109439E-01 A.U. after   10 cycles
 SCF Done:  E(RPM3) = -0.764623234970E-01 A.U. after   10 cycles
 SCF Done:  E(RPM3) = -0.764634215314E-01 A.U. after    8 cycles
 Optimization completed.
    -- Stationary point found.
 Normal termination of Gaussian 16 at Wed Oct 21 14:24:04 2020.
 Gaussian 16:  ES64L-G16RevA.03 25-Dec-2016

 ----------------------------------------------------------------------
 #P Freq PM3 5D 7F Integral=UltraFineGrid SCF=(NoSymm,XQC,MaxCyc=120) I
 Op(1/33=1) Geom=Check Guess=Read
 ----------------------------------------------------------------------

 TstMul:  Mul=     1
 TstMul:  ICh=    -1
 TstMul:  Mul=     1
 Structure from the checkpoint file:  "MN_39_fch3fts_BH76_PM3_SE.chk"
 Charge = -1 Multiplicity = 1

                         Standard orientation:
 ---------------------------------------------------------------------
 Center     Atomic      Atomic             Coordinates (Angstroms)
 Number     Number       Type             X           Y           Z
 ---------------------------------------------------------------------
      1          9           0        1.626142    0.000009    0.000019
      2          6           0       -0.000107   -0.000010   -0.000022
      3          1           0       -0.000045   -0.859703    0.669755
      4          1           0       -0.000036    1.009948    0.409434
      5          1           0       -0.000052   -0.150345   -1.079410
      6          9           0       -1.626056    0.000009    0.000020
 ---------------------------------------------------------------------

 SCF Done:  E(RPM3) = -0.764634215314E-01 A.U. after    2 cycles

 The electronic state is 1-A.
 Alpha  occ. eigenvalues --   -0.90951  -0.46690  -0.37473  -0.37471  -0.36933
 Alpha  occ. eigenvalues --   -0.33126  -0.25760  -0.25760  -0.20540  -0.20539
 Alpha  occ. eigenvalues --   -0.12931
 Alpha virt. eigenvalues --    0.32890   0.33442   0.37310   0.37311

 Mulliken charges:
               1
     1  F   -0.635591
     2  C    0.249555
     3  H    0.007093
     4  H    0.007099
     5  H    0.007080
     6  F   -0.635235
 Sum of Mulliken charges =  -1.00000

 Dipole moment (field-independent basis, Debye):
    X=             -0.0030    Y=             -0.0001    Z=             -0.0001  Tot=              0.0030
 N-N= 7.498558568694D+01 E-N=-7.386098808193D+01  KE=-6.849960489997D+01
  Exact polarizability:  31.763   0.000   8.335   0.000   0.000   8.333
 Approx polarizability:  24.394   0.000   4.639   0.000   0.000   4.638
 Leave Link  601 at Wed Oct 21 14:24:25 2020, MaxMem=  2684354560 cpu:               3.2 elap:               1.0
 (Enter /udrive/faculty/rpeverati/g16/g16/l701.exe)
 ... and contract with generalized density number  0.
 Compute integral second derivatives.
 Leave Link  701 at Wed Oct 21 14:24:27 2020, MaxMem=  2684354560 cpu:               4.2 elap:               1.0
 (Enter /udrive/faculty/rpeverati/g16/g16/l702.exe)
 L702 exits ... SP integral derivatives will be done elsewhere.

 ******    1 imaginary frequencies (negative Signs) ******

                      1                      2                      3
                      A                      A                      A
 Frequencies --   -959.2745               313.6399               313.6913
 Red. masses --     10.4986                 4.1620                 4.1624
 Frc consts  --      5.6920                 0.2412                 0.2413
 IR Inten    --   2089.7665                32.6564                32.6566

                      4                      5                      6
                      A                      A                      A
 Frequencies --    330.6069               994.9694               995.0804
 Red. masses --     18.8303                 1.0249                 1.0249
 Frc consts  --      1.2126                 0.5978                 0.5979
 IR Inten    --      0.0001                 0.0000                 0.0000

                      7                      8                      9
                      A                      A                      A
 Frequencies --   1060.0205              1200.3386              1200.4846
 Red. masses --      1.0872                 1.1457                 1.1457
 Frc consts  --      0.7198                 0.9726                 0.9728
 IR Inten    --      5.7999                 6.6242                 6.6267

                     10                     11                     12
                      A                      A                      A
 Frequencies --   2941.1456              3068.9029              3068.9978
 Red. masses --      1.0083                 1.1183                 1.1183
 Frc consts  --      5.1389                 6.2056                 6.2061
 IR Inten    --      0.0000                20.4480                20.4435

 - Thermochemistry -
 -------------------
 Temperature   298.150 Kelvin.  Pressure   1.00000 Atm.
 Atom     1 has atomic number  9 and mass  18.99840

 Molecular mass:    53.02028 amu.
 Principal axes and moments of inertia in atomic units:
                           1         2         3
     Eigenvalues --    12.82334 365.19977 365.20104
           X            1.00000   0.00000   0.00000
           Y           -0.00000   1.00000  -0.00001
           Z           -0.00000   0.00001   1.00000
 This molecule is an asymmetric top.
 Rotational symmetry number  1.
 Rotational temperatures (Kelvin)      6.75440     0.23717     0.23717
 Rotational constants (GHZ):         140.73875     4.94179     4.94177
    1 imaginary frequencies ignored.
 Zero-point vibrational energy      92638.1 (Joules/Mol)
                                   22.14103 (Kcal/Mol)
 Warning -- explicit consideration of   3 degrees of freedom as
           vibrations may cause significant error
 Vibrational temperatures:    451.26   451.33   475.67  1431.54  1431.70
          (Kelvin)           1525.13  1727.02  1727.23  4231.65  4415.47
                             4415.60

 Zero-point correction=                           0.035284 (Hartree/Particle)
 Thermal correction to Energy=                    0.039444
 Thermal correction to Enthalpy=                  0.040388
 Thermal correction to Gibbs Free Energy=         0.009895
 Sum of electronic and zero-point Energies=             -0.041179
 Sum of electronic and thermal Energies=                -0.037019
 Sum of electronic and thermal Enthalpies=              -0.036075
 Sum of electronic and thermal Free Energies=           -0.066569

                     E (Thermal)             CV                S
                      KCal/Mol        Cal/Mol-Kelvin    Cal/Mol-Kelvin
 Total                   24.752             12.362             64.180
 Electronic               0.000              0.000              0.000
 Translational            0.889              2.981             37.827
 Rotational               0.889              2.981             22.063
 Vibrational             22.974              6.401              4.290
 Vibration     1          0.701              1.648              1.343
 Vibration     2          0.702              1.648              1.343
 Vibration     3          0.713              1.614              1.257

 Optimization completed.
    -- Stationary point found.
 Normal termination of Gaussian 16 at Wed Oct 21 14:24:34 2020.
