 Gaussian 16, Revision A.03,
 Gaussian 16:  ES64L-G16RevA.03 25-Dec-2016

 ----------------------------------------------------------------------
 #P Opt(MaxCyc=150) PM3 5D 7F Integral=UltraFineGrid SCF=(NoSymm,XQC,Ma
 xCyc=120) IOp(1/33=1)
 ----------------------------------------------------------------------

 TstMul:  Mul=     1
 TstMul:  ICh=    -1
 TstMul:  Mul=     1
 Symbolic Z-matrix:
 Charge = -1 Multiplicity = 1

 SCF Done:  E(RPM3) = -0.174853971189     A.U. after   11 cycles
 SCF Done:  E(RPM3) = -0.177264990665     A.U. after   11 cycles
 SCF Done:  E(RPM3) = -0.177498447871     A.U. after    9 cycles
 SCF Done:  E(RPM3) = -0.178161265437     A.U. after   10 cycles
 SCF Done:  E(RPM3) = -0.178278317446     A.U. after   10 cycles
 SCF Done:  E(RPM3) = -0.178300208783     A.U. after    9 cycles
 SCF Done:  E(RPM3) = -0.178301763316     A.U. after    8 cycles
 Optimization completed.
    -- Stationary point found.

                         Standard orientation:
 ---------------------------------------------------------------------
 Center     Atomic      Atomic             Coordinates (Angstroms)
 Number     Number       Type             X           Y           Z
 ---------------------------------------------------------------------
      1          9           0        0.000000    0.000000   -2.467199
      2          6           0        0.000000    0.000000   -1.105877
      3          1           0       -0.000000    1.029931   -0.738437
      4          1           0       -0.891946   -0.514966   -0.738437
      5          1           0        0.891946   -0.514966   -0.738437
      6         17           0        0.000000    0.000000    1.826786
 ---------------------------------------------------------------------

 The electronic state is 1-A1.
 Alpha  occ. eigenvalues --   -1.73792  -0.99669  -0.59280  -0.50836  -0.50836
 Alpha  occ. eigenvalues --   -0.49144  -0.31491  -0.31491  -0.14210  -0.14210
 Alpha  occ. eigenvalues --   -0.14103
 Alpha virt. eigenvalues --    0.25977   0.31016   0.31016   0.32525

 Mulliken charges:
               1
     1  F   -0.201062
     2  C    0.007554
     3  H    0.061851
     4  H    0.061851
     5  H    0.061851
     6  Cl  -0.992045
 Sum of Mulliken charges =  -1.00000

 Dipole moment (field-independent basis, Debye):
    X=             -0.0000    Y=             -0.0000    Z=             -6.7523  Tot=              6.7523
 N-N= 6.627548109578D+01 E-N=-6.475335703798D+01  KE=-5.637297775577D+01
 Leave Link  601 at Wed Oct 21 14:23:49 2020, MaxMem=  2684354560 cpu:               3.6 elap:               1.1
 (Enter /udrive/faculty/rpeverati/g16/g16/l9999.exe)

 Test job not archived.
 1\1\GINC-NODE52\FOpt\RPM3\ZDO\C1H3Cl1F1(1-)\RPEVERATI\21-Oct-2020\0\\#
 P Opt(MaxCyc=150) PM3 5D 7F Integral=UltraFineGrid SCF=(NoSymm,XQC,Max
 Cyc=120) IOp(1/33=1)\\TS search on BH76.\\-1,1\F,0.,0.,-1.8069319515\C
 ,0.,0.,-0.4456105433\H,-0.5149655156,0.8919464372,-0.078170158\H,-0.51
 49655156,-0.8919464372,-0.078170158\H,1.0299310312,0.,-0.078170158\Cl,

 Normal termination of Gaussian 16 at Wed Oct 21 14:23:52 2020.
