 Gaussian 16, Revision A.03,
 Gaussian 16:  ES64L-G16RevA.03 25-Dec-2016

 ----------------------------------------------------------------------
 #P Opt(MaxCyc=150) PM3 5D 7F Integral=UltraFineGrid SCF=(NoSymm,XQC,Ma
 xCyc=120) IOp(1/33=1)
 ----------------------------------------------------------------------

 TstMul:  Mul=     1
 TstMul:  ICh=     0
 TstMul:  Mul=     1
 Symbolic Z-matrix:
 Charge =  0 Multiplicity = 1

 SCF Done:  E(RPM3) = -0.314283228086E-01 A.U. after    9 cycles
 SCF Done:  E(RPM3) = -0.314936075254E-01 A.U. after    8 cycles
 SCF Done:  E(RPM3) = -0.314939055030E-01 A.U. after    7 cycles
 Optimization completed.
    -- Stationary point found.

                         Standard orientation:
 ---------------------------------------------------------------------
 Center     Atomic      Atomic             Coordinates (Angstroms)
 Number     Number       Type             X           Y           Z
 ---------------------------------------------------------------------
      1          8           0        0.000000    0.000000    0.486320
      2          6           0        0.000000    0.000000   -0.648426
 ---------------------------------------------------------------------

 The electronic state is 1-SG.
 Alpha  occ. eigenvalues --   -1.47100  -0.76017  -0.59361  -0.59361  -0.47877
 Alpha virt. eigenvalues --    0.03675   0.03675   0.22351

 Mulliken charges:
               1
     1  O   -0.163738
     2  C    0.163738
 Sum of Mulliken charges =   0.00000

 Dipole moment (field-independent basis, Debye):
    X=              0.0000    Y=             -0.0000    Z=              0.1848  Tot=              0.1848
 N-N= 2.375805003735D+01 E-N=-1.535715158795D+01  KE=-2.442762865884D+01
 Leave Link  601 at Wed Oct 21 14:21:59 2020, MaxMem=  2684354560 cpu:               4.8 elap:               1.0
 (Enter /udrive/faculty/rpeverati/g16/g16/l9999.exe)

 Test job not archived.
 1\1\GINC-NODE40\FOpt\RPM3\ZDO\C1O1\RPEVERATI\21-Oct-2020\0\\#P Opt(Max
 Cyc=150) PM3 5D 7F Integral=UltraFineGrid SCF=(NoSymm,XQC,MaxCyc=120)
 IOp(1/33=1)\\TS search on BH76.\\0,1\O,0.,0.,0.4866868493\C,0.,0.,-0.6
 480589105\\Version=ES64L-G16RevA.03\State=1-SG\HF=-0.0314939\RMSD=4.44
 8e-12\RMSF=3.293e-09\Dipole=0.,0.,0.0726917\PG=C*V [C*(C1O1)]\\@

 Normal termination of Gaussian 16 at Wed Oct 21 14:22:02 2020.
