 Gaussian 16, Revision A.03,
 Gaussian 16:  ES64L-G16RevA.03 25-Dec-2016

 ----------------------------------------------------------------------
 #P Opt(MaxCyc=150) PM3 5D 7F Integral=UltraFineGrid SCF=(NoSymm,XQC,Ma
 xCyc=120) IOp(1/33=1)
 ----------------------------------------------------------------------

 TstMul:  Mul=     1
 TstMul:  ICh=    -1
 TstMul:  Mul=     1
 Symbolic Z-matrix:
 Charge = -1 Multiplicity = 1

 SCF Done:  E(RPM3) = -0.877063551456E-01 A.U. after   12 cycles
 SCF Done:  E(RPM3) = -0.885170300006E-01 A.U. after   10 cycles
 SCF Done:  E(RPM3) = -0.889840637575E-01 A.U. after   10 cycles
 SCF Done:  E(RPM3) = -0.892842109956E-01 A.U. after   10 cycles
 SCF Done:  E(RPM3) = -0.893340505742E-01 A.U. after    9 cycles
 SCF Done:  E(RPM3) = -0.893467229669E-01 A.U. after    9 cycles
 SCF Done:  E(RPM3) = -0.893488334032E-01 A.U. after    8 cycles
 SCF Done:  E(RPM3) = -0.893498987251E-01 A.U. after    8 cycles
 Optimization completed.
    -- Stationary point found.

                         Standard orientation:
 ---------------------------------------------------------------------
 Center     Atomic      Atomic             Coordinates (Angstroms)
 Number     Number       Type             X           Y           Z
 ---------------------------------------------------------------------
      1         17           0        0.000000    0.000000    1.650946
      2          6           0        0.000000    0.000000   -0.155229
      3          1           0        0.000000    1.031158   -0.516391
      4          1           0        0.893009   -0.515579   -0.516391
      5          1           0       -0.893009   -0.515579   -0.516391
      6          9           0        0.000000    0.000000   -2.842836
 ---------------------------------------------------------------------

 The electronic state is 1-A1.
 Alpha  occ. eigenvalues --   -1.90791  -0.86141  -0.37875  -0.37875  -0.35997
 Alpha  occ. eigenvalues --   -0.26178  -0.26178  -0.23724  -0.10843  -0.10843
 Alpha  occ. eigenvalues --   -0.10565
 Alpha virt. eigenvalues --    0.18261   0.31014   0.31014   0.31201

 Mulliken charges:
               1
     1  Cl  -0.236455
     2  C   -0.002373
     3  H    0.072983
     4  H    0.072983
     5  H    0.072983
     6  F   -0.980122
 Sum of Mulliken charges =  -1.00000

 Dipole moment (field-independent basis, Debye):
    X=             -0.0000    Y=             -0.0000    Z=             10.5905  Tot=             10.5905
 N-N= 6.499884904437D+01 E-N=-6.257409717450D+01  KE=-5.766207305013D+01
 Leave Link  601 at Wed Oct 21 14:22:57 2020, MaxMem=  2684354560 cpu:               2.7 elap:               0.9
 (Enter /udrive/faculty/rpeverati/g16/g16/l9999.exe)

 Test job not archived.
 1\1\GINC-NODE06\FOpt\RPM3\ZDO\C1H3Cl1F1(1-)\RPEVERATI\21-Oct-2020\0\\#
 P Opt(MaxCyc=150) PM3 5D 7F Integral=UltraFineGrid SCF=(NoSymm,XQC,Max
 Cyc=120) IOp(1/33=1)\\TS search on BH76.\\-1,1\Cl,0.,0.,2.1336488592\C
 ,0.,0.,0.3274740511\H,-0.5155790411,-0.8930090944,-0.0336876604\H,-0.5
 155790411,0.8930090944,-0.0336876604\H,1.0311580821,0.,-0.0336876604\F

 Normal termination of Gaussian 16 at Wed Oct 21 14:22:59 2020.
