 Gaussian 16, Revision A.03,
 Gaussian 16:  ES64L-G16RevA.03 25-Dec-2016

 ----------------------------------------------------------------------
 #P Opt(MaxCyc=150) PM3 5D 7F Integral=UltraFineGrid SCF=(NoSymm,XQC,Ma
 xCyc=120) IOp(1/33=1)
 ----------------------------------------------------------------------

 TstMul:  Mul=     1
 TstMul:  ICh=    -1
 TstMul:  Mul=     1
 Symbolic Z-matrix:
 Charge = -1 Multiplicity = 1

 SCF Done:  E(RPM3) = -0.143542210174     A.U. after   12 cycles
 SCF Done:  E(RPM3) = -0.147535713328     A.U. after   11 cycles
 SCF Done:  E(RPM3) = -0.148011145782     A.U. after    9 cycles
 SCF Done:  E(RPM3) = -0.148335365791     A.U. after    9 cycles
 SCF Done:  E(RPM3) = -0.148385223293     A.U. after    9 cycles
 SCF Done:  E(RPM3) = -0.148413101102     A.U. after    9 cycles
 Optimization completed.
    -- Stationary point found.

                         Standard orientation:
 ---------------------------------------------------------------------
 Center     Atomic      Atomic             Coordinates (Angstroms)
 Number     Number       Type             X           Y           Z
 ---------------------------------------------------------------------
      1          9           0        0.000000    0.000000   -1.869688
      2          6           0        0.000000    0.000000   -0.508223
      3          1           0       -0.000000    1.029947   -0.140897
      4          1           0       -0.891961   -0.514974   -0.140897
      5          1           0        0.891961   -0.514974   -0.140897
      6          9           0        0.000000    0.000000    2.255469
 ---------------------------------------------------------------------

 The electronic state is 1-A1.
 Alpha  occ. eigenvalues --   -0.99409  -0.58889  -0.50417  -0.50417  -0.48751
 Alpha  occ. eigenvalues --   -0.30979  -0.30979  -0.22777  -0.09893  -0.09893
 Alpha  occ. eigenvalues --   -0.09748
 Alpha virt. eigenvalues --    0.26400   0.31548   0.31548   0.33106

 Mulliken charges:
               1
     1  F   -0.202692
     2  C    0.007795
     3  H    0.060874
     4  H    0.060874
     5  H    0.060874
     6  F   -0.987725
 Sum of Mulliken charges =  -1.00000

 Dipole moment (field-independent basis, Debye):
    X=             -0.0000    Y=             -0.0000    Z=             -8.7528  Tot=              8.7528
 N-N= 7.105492184358D+01 E-N=-6.541331724660D+01  KE=-6.855028698613D+01
 Leave Link  601 at Wed Oct 21 14:22:44 2020, MaxMem=  2684354560 cpu:               2.4 elap:               0.8
 (Enter /udrive/faculty/rpeverati/g16/g16/l9999.exe)

 Test job not archived.
 1\1\GINC-NODE20\FOpt\RPM3\ZDO\C1H3F2(1-)\RPEVERATI\21-Oct-2020\0\\#P O
 pt(MaxCyc=150) PM3 5D 7F Integral=UltraFineGrid SCF=(NoSymm,XQC,MaxCyc
 =120) IOp(1/33=1)\\TS search on BH76.\\-1,1\F,0.,0.,-1.7788329612\C,0.
 ,0.,-0.4173673024\H,-0.514973654,0.8919605333,-0.0500412013\H,-0.51497
 3654,-0.8919605333,-0.0500412013\H,1.0299473081,0.,-0.0500412013\F,0.,

 Normal termination of Gaussian 16 at Wed Oct 21 14:22:46 2020.
