 Gaussian 16, Revision A.03,

 ----------------------------------------------------------------------
 #P Opt(TS,MaxCyc=50,NoEigenTest,MaxStep=10,AddRedundant) PM3 5D 7F Int
 egral=UltraFineGrid SCF=(NoSymm,XQC,MaxCyc=120) IOp(1/33=1)
 ----------------------------------------------------------------------

 TstMul:  Mul=     1
 TstMul:  ICh=    -1
 TstMul:  Mul=     1
 Symbolic Z-matrix:
 Charge = -1 Multiplicity = 1

 SCF Done:  E(RPM3) = -0.802030332308E-01 A.U. after   12 cycles
 SCF Done:  E(RPM3) = -0.807372934941E-01 A.U. after   10 cycles
 SCF Done:  E(RPM3) = -0.802672497535E-01 A.U. after   10 cycles
 SCF Done:  E(RPM3) = -0.805262859041E-01 A.U. after   10 cycles
 SCF Done:  E(RPM3) = -0.805268954005E-01 A.U. after    9 cycles
 Optimization completed.
    -- Stationary point found.
 Normal termination of Gaussian 16 at Wed Oct 21 14:22:24 2020.
 Gaussian 16:  ES64L-G16RevA.03 25-Dec-2016

 ----------------------------------------------------------------------
 #P Freq PM3 5D 7F Integral=UltraFineGrid SCF=(NoSymm,XQC,MaxCyc=120) I
 Op(1/33=1) Geom=Check Guess=Read
 ----------------------------------------------------------------------

 TstMul:  Mul=     1
 TstMul:  ICh=    -1
 TstMul:  Mul=     1
 Structure from the checkpoint file:  "MN_37_fch3clts_BH76_PM3_SE.chk"
 Charge = -1 Multiplicity = 1

                         Standard orientation:
 ---------------------------------------------------------------------
 Center     Atomic      Atomic             Coordinates (Angstroms)
 Number     Number       Type             X           Y           Z
 ---------------------------------------------------------------------
      1          9           0        0.000000    0.000000   -2.540365
      2          6           0        0.000000    0.000000   -0.442167
      3          1           0       -0.000000    1.073654   -0.581409
      4          1           0       -0.929811   -0.536827   -0.581409
      5          1           0        0.929811   -0.536827   -0.581409
      6         17           0        0.000000    0.000000    1.603560
 ---------------------------------------------------------------------

 SCF Done:  E(RPM3) = -0.805268954006E-01 A.U. after    2 cycles

 The electronic state is 1-A1.
 Alpha  occ. eigenvalues --   -1.84796  -0.86380  -0.37592  -0.37592  -0.33467
 Alpha  occ. eigenvalues --   -0.28248  -0.22946  -0.22946  -0.19002  -0.19002
 Alpha  occ. eigenvalues --   -0.15385
 Alpha virt. eigenvalues --    0.18202   0.29211   0.32706   0.32706

 Mulliken charges:
               1
     1  F   -0.831291
     2  C    0.287315
     3  H    0.049089
     4  H    0.049089
     5  H    0.049089
     6  Cl  -0.603291
 Sum of Mulliken charges =  -1.00000

 Dipole moment (field-independent basis, Debye):
    X=              0.0000    Y=             -0.0000    Z=              4.3364  Tot=              4.3364
 N-N= 6.617630528986D+01 E-N=-6.498154018840D+01  KE=-5.738497537778D+01
  Exact polarizability:   7.461   0.000   7.461   0.000   0.000  74.092
 Approx polarizability:   4.322   0.000   4.322   0.000   0.000  44.089
 Leave Link  601 at Wed Oct 21 14:22:46 2020, MaxMem=  2684354560 cpu:               2.8 elap:               0.9
 (Enter /udrive/faculty/rpeverati/g16/g16/l701.exe)
 ... and contract with generalized density number  0.
 Compute integral second derivatives.
 Leave Link  701 at Wed Oct 21 14:22:47 2020, MaxMem=  2684354560 cpu:               4.2 elap:               1.0
 (Enter /udrive/faculty/rpeverati/g16/g16/l702.exe)
 L702 exits ... SP integral derivatives will be done elsewhere.

 ******    1 imaginary frequencies (negative Signs) ******

                      1                      2                      3
                     A1                      E                      E
 Frequencies --   -542.7756               173.1018               173.1018
 Red. masses --     11.6798                 3.9590                 3.9590
 Frc consts  --      2.0273                 0.0699                 0.0699
 IR Inten    --   2330.1878                31.5353                31.5353

                      4                      5                      6
                     A1                      E                      E
 Frequencies --    326.6898               923.3353               923.3353
 Red. masses --     21.6923                 1.0580                 1.0580
 Frc consts  --      1.3640                 0.5314                 0.5314
 IR Inten    --     35.3079                 6.6931                 6.6931

                      7                      8                      9
                     A1                      E                      E
 Frequencies --   1058.2045              1264.1804              1264.1804
 Red. masses --      1.0630                 1.1059                 1.1059
 Frc consts  --      0.7013                 1.0413                 1.0413
 IR Inten    --     73.9951                 1.9390                 1.9390

                     10                     11                     12
                     A1                      E                      E
 Frequencies --   3103.6605              3186.8171              3186.8171
 Red. masses --      1.0105                 1.1148                 1.1148
 Frc consts  --      5.7350                 6.6707                 6.6707
 IR Inten    --      4.4864                 0.4864                 0.4864

 - Thermochemistry -
 -------------------
 Temperature   298.150 Kelvin.  Pressure   1.00000 Atm.
 Atom     1 has atomic number  9 and mass  18.99840

 Molecular mass:    68.99073 amu.
 Principal axes and moments of inertia in atomic units:
                           1         2         3
     Eigenvalues --    12.44608 777.16047 777.16047
           X            0.00000   0.70711   0.70711
           Y            0.00000   0.70711  -0.70711
           Z            1.00000   0.00000   0.00000
 This molecule is a prolate symmetric top.
 Rotational symmetry number  3.
 Rotational temperatures (Kelvin)      6.95913     0.11145     0.11145
 Rotational constants (GHZ):         145.00483     2.32222     2.32222
    1 imaginary frequencies ignored.
 Zero-point vibrational energy      93209.6 (Joules/Mol)
                                   22.27762 (Kcal/Mol)
 Warning -- explicit consideration of   3 degrees of freedom as
           vibrations may cause significant error
 Vibrational temperatures:    249.05   249.05   470.03  1328.47  1328.47
          (Kelvin)           1522.52  1818.87  1818.87  4465.48  4585.12
                             4585.12

 Zero-point correction=                           0.035502 (Hartree/Particle)
 Thermal correction to Energy=                    0.040084
 Thermal correction to Enthalpy=                  0.041029
 Thermal correction to Gibbs Free Energy=         0.009464
 Sum of electronic and zero-point Energies=             -0.045025
 Sum of electronic and thermal Energies=                -0.040443
 Sum of electronic and thermal Enthalpies=              -0.039498
 Sum of electronic and thermal Free Energies=           -0.071063

                     E (Thermal)             CV                S
                      KCal/Mol        Cal/Mol-Kelvin    Cal/Mol-Kelvin
 Total                   25.153             12.924             66.434
 Electronic               0.000              0.000              0.000
 Translational            0.889              2.981             38.612
 Rotational               0.889              2.981             21.351
 Vibrational             23.376              6.962              6.471
 Vibration     1          0.627              1.876              2.402
 Vibration     2          0.627              1.876              2.402
 Vibration     3          0.710              1.622              1.276

 Optimization completed.
    -- Stationary point found.
 Normal termination of Gaussian 16 at Wed Oct 21 14:22:54 2020.
