 Gaussian 16, Revision A.03,
 Gaussian 16:  ES64L-G16RevA.03 25-Dec-2016

 ----------------------------------------------------------------------
 #P Opt(MaxCyc=150) PM3 5D 7F Integral=UltraFineGrid SCF=(NoSymm,XQC,Ma
 xCyc=120) IOp(1/33=1)
 ----------------------------------------------------------------------

 TstMul:  Mul=     1
 TstMul:  ICh=     0
 TstMul:  Mul=     1
 Symbolic Z-matrix:
 Charge =  0 Multiplicity = 1

 SCF Done:  E(RPM3) = -0.847258221109E-01 A.U. after    9 cycles
 SCF Done:  E(RPM3) = -0.850095372355E-01 A.U. after    7 cycles
 SCF Done:  E(RPM3) = -0.850199822108E-01 A.U. after    6 cycles
 Optimization completed.
    -- Stationary point found.

                         Standard orientation:
 ---------------------------------------------------------------------
 Center     Atomic      Atomic             Coordinates (Angstroms)
 Number     Number       Type             X           Y           Z
 ---------------------------------------------------------------------
      1          8           0        0.000000    0.000000    0.112186
      2          1           0       -0.000000    0.767540   -0.448743
      3          1           0       -0.000000   -0.767540   -0.448743
 ---------------------------------------------------------------------

 The electronic state is 1-A1.
 Alpha  occ. eigenvalues --   -1.35347  -0.64613  -0.53378  -0.45265
 Alpha virt. eigenvalues --    0.14928   0.19597

 Mulliken charges:
               1
     1  O   -0.358509
     2  H    0.179254
     3  H    0.179254
 Sum of Mulliken charges =   0.00000

 Dipole moment (field-independent basis, Debye):
    X=             -0.0000    Y=              0.0000    Z=             -1.7385  Tot=              1.7385
 N-N= 1.734619555314D+01 E-N=-9.269279932925D+00  KE=-1.962110274691D+01
 Leave Link  601 at Wed Oct 21 14:22:41 2020, MaxMem=  2684354560 cpu:               3.7 elap:               1.1
 (Enter /udrive/faculty/rpeverati/g16/g16/l9999.exe)

 Test job not archived.
 1\1\GINC-NODE60\FOpt\RPM3\ZDO\H2O1\RPEVERATI\21-Oct-2020\0\\#P Opt(Max
 Cyc=150) PM3 5D 7F Integral=UltraFineGrid SCF=(NoSymm,XQC,MaxCyc=120)
 IOp(1/33=1)\\TS search on BH76.\\0,1\O,0.,0.,0.1006128757\H,0.,0.76754
 01341,-0.4603161158\H,0.,-0.7675401341,-0.4603161158\\Version=ES64L-G1
 6RevA.03\State=1-A1\HF=-0.08502\RMSD=1.712e-09\RMSF=1.852e-04\Dipole=0

 Normal termination of Gaussian 16 at Wed Oct 21 14:22:44 2020.
