 Gaussian 16, Revision A.03,
 Gaussian 16:  ES64L-G16RevA.03 25-Dec-2016

 ----------------------------------------------------------------------
 #P Opt(MaxCyc=150) PM3 5D 7F Integral=UltraFineGrid SCF=(NoSymm,XQC,Ma
 xCyc=120) IOp(1/33=1)
 ----------------------------------------------------------------------

 TstMul:  Mul=     1
 TstMul:  ICh=     0
 TstMul:  Mul=     1
 Symbolic Z-matrix:
 Charge =  0 Multiplicity = 1

 SCF Done:  E(RPM3) = -0.325974184686E-01 A.U. after    8 cycles
 SCF Done:  E(RPM3) = -0.326191749957E-01 A.U. after    5 cycles
 SCF Done:  E(RPM3) = -0.326199471080E-01 A.U. after    5 cycles
 Optimization completed.
    -- Stationary point found.

                         Standard orientation:
 ---------------------------------------------------------------------
 Center     Atomic      Atomic             Coordinates (Angstroms)
 Number     Number       Type             X           Y           Z
 ---------------------------------------------------------------------
      1         17           0        0.000000    0.000000    0.070421
      2          1           0        0.000000    0.000000   -1.197151
 ---------------------------------------------------------------------

 The electronic state is 1-SG.
 Alpha  occ. eigenvalues --   -2.04181  -0.54942  -0.40645  -0.40645
 Alpha virt. eigenvalues --    0.05672

 Mulliken charges:
               1
     1  Cl  -0.096947
     2  H    0.096947
 Sum of Mulliken charges =  -0.00000

 Dipole moment (field-independent basis, Debye):
    X=              0.0000    Y=             -0.0000    Z=             -1.3793  Tot=              1.3793
 N-N= 1.467844634139D+01 E-N=-4.425382392200D+00  KE=-1.818847492753D+01
 Leave Link  601 at Wed Oct 21 14:22:22 2020, MaxMem=  2684354560 cpu:               4.0 elap:               1.0
 (Enter /udrive/faculty/rpeverati/g16/g16/l9999.exe)

 Test job not archived.
 1\1\GINC-NODE19\FOpt\RPM3\ZDO\Cl1H1\RPEVERATI\21-Oct-2020\0\\#P Opt(Ma
 xCyc=150) PM3 5D 7F Integral=UltraFineGrid SCF=(NoSymm,XQC,MaxCyc=120)
  IOp(1/33=1)\\TS search on BH76.\\0,1\Cl,0.,0.,0.0673644216\H,0.,0.,-1
 .2002068857\\Version=ES64L-G16RevA.03\State=1-SG\HF=-0.0326199\RMSD=7.
 608e-11\RMSF=4.479e-08\Dipole=0.,0.,-0.5426539\PG=C*V [C*(H1Cl1)]\\@

 Normal termination of Gaussian 16 at Wed Oct 21 14:22:24 2020.
