 Gaussian 16, Revision A.03,

 ----------------------------------------------------------------------
 #P Opt(TS,MaxCyc=50,NoEigenTest,MaxStep=10,AddRedundant) PM3 5D 7F Int
 egral=UltraFineGrid SCF=(NoSymm,XQC,MaxCyc=120) IOp(1/33=1)
 ----------------------------------------------------------------------

 TstMul:  Mul=     1
 TstMul:  ICh=     0
 TstMul:  Mul=     1
 Symbolic Z-matrix:
 Charge =  0 Multiplicity = 1

 SCF Done:  E(RPM3) =  0.172270019898     A.U. after   14 cycles
 SCF Done:  E(RPM3) =  0.174616632461     A.U. after   12 cycles
 SCF Done:  E(RPM3) =  0.174512285201     A.U. after   11 cycles
 SCF Done:  E(RPM3) =  0.173190113283     A.U. after   11 cycles
 SCF Done:  E(RPM3) =  0.172303872138     A.U. after   11 cycles
 SCF Done:  E(RPM3) =  0.172228124042     A.U. after   10 cycles
 Optimization completed.
    -- Stationary point found.
 Normal termination of Gaussian 16 at Wed Oct 21 14:24:13 2020.
 Gaussian 16:  ES64L-G16RevA.03 25-Dec-2016

 ----------------------------------------------------------------------
 #P Freq PM3 5D 7F Integral=UltraFineGrid SCF=(NoSymm,XQC,MaxCyc=120) I
 Op(1/33=1) Geom=Check Guess=Read
 ----------------------------------------------------------------------

 TstMul:  Mul=     1
 TstMul:  ICh=     0
 TstMul:  Mul=     1
 Structure from the checkpoint file:  "MN_49_hcnts_BH76_PM3_SE.chk"
 Charge =  0 Multiplicity = 1

                         Standard orientation:
 ---------------------------------------------------------------------
 Center     Atomic      Atomic             Coordinates (Angstroms)
 Number     Number       Type             X           Y           Z
 ---------------------------------------------------------------------
      1          6           0        0.089021    0.649430    0.000000
      2          7           0        0.089021   -0.562261    0.000000
      3          1           0       -1.157274    0.039248    0.000000
 ---------------------------------------------------------------------

 SCF Done:  E(RPM3) =  0.172228124042     A.U. after    2 cycles

 The electronic state is 1-A'.
 Alpha  occ. eigenvalues --   -1.18298  -0.58354  -0.54025  -0.48567  -0.45023
 Alpha virt. eigenvalues --   -0.00406   0.02585   0.02811   0.18622

 Mulliken charges:
               1
     1  C   -0.037312
     2  N   -0.202433
     3  H    0.239745
 Sum of Mulliken charges =  -0.00000

 Dipole moment (field-independent basis, Debye):
    X=             -2.0288    Y=              0.1263    Z=              0.0000  Tot=              2.0327
 N-N= 2.026539878063D+01 E-N=-1.673790400165D+01  KE=-1.696306951275D+01
  Exact polarizability:  12.190   0.868  22.322   0.000   0.000   5.655
 Approx polarizability:   9.215   0.457  21.023   0.000   0.000   3.754
 Leave Link  601 at Wed Oct 21 14:24:48 2020, MaxMem=  2684354560 cpu:               2.5 elap:               1.4
 (Enter /udrive/faculty/rpeverati/g16/g16/l701.exe)
 ... and contract with generalized density number  0.
 Compute integral second derivatives.
 Leave Link  701 at Wed Oct 21 14:24:50 2020, MaxMem=  2684354560 cpu:               5.6 elap:               1.5
 (Enter /udrive/faculty/rpeverati/g16/g16/l702.exe)
 L702 exits ... SP integral derivatives will be done elsewhere.

 ******    1 imaginary frequencies (negative Signs) ******

                      1                      2                      3
                     A'                     A'                     A'
 Frequencies --  -1433.1907              1755.5344              2124.1111
 Red. masses --      1.1900                 1.0900                 8.6629
 Frc consts  --      1.4401                 1.9792                23.0287
 IR Inten    --     27.3649               142.2845               103.6452

 - Thermochemistry -
 -------------------
 Temperature   298.150 Kelvin.  Pressure   1.00000 Atm.
 Atom     1 has atomic number  6 and mass  12.00000

 Molecular mass:    27.01090 amu.
 Principal axes and moments of inertia in atomic units:
                           1         2         3
     Eigenvalues --     5.38041  33.88875  39.26916
           X           -0.00641   0.99998   0.00000
           Y            0.99998   0.00641   0.00000
           Z            0.00000   0.00000   1.00000
 This molecule is an asymmetric top.
 Rotational symmetry number  1.
 Rotational temperatures (Kelvin)     16.09801     2.55583     2.20565
 Rotational constants (GHZ):         335.42799    53.25487    45.95823
    1 imaginary frequencies ignored.
 Zero-point vibrational energy      23205.4 (Joules/Mol)
                                    5.54623 (Kcal/Mol)
 Vibrational temperatures:   2525.82  3056.12
          (Kelvin)

 Zero-point correction=                           0.008838 (Hartree/Particle)
 Thermal correction to Energy=                    0.011673
 Thermal correction to Enthalpy=                  0.012617
 Thermal correction to Gibbs Free Energy=        -0.012300
 Sum of electronic and zero-point Energies=              0.181067
 Sum of electronic and thermal Energies=                 0.183901
 Sum of electronic and thermal Enthalpies=               0.184845
 Sum of electronic and thermal Free Energies=            0.159928

                     E (Thermal)             CV                S
                      KCal/Mol        Cal/Mol-Kelvin    Cal/Mol-Kelvin
 Total                    7.325              5.999             52.443
 Electronic               0.000              0.000              0.000
 Translational            0.889              2.981             35.816
 Rotational               0.889              2.981             16.622
 Vibrational              5.547              0.037              0.005

 Optimization completed.
    -- Stationary point found.
 Normal termination of Gaussian 16 at Wed Oct 21 14:25:00 2020.
