 Gaussian 16, Revision A.03,
 Gaussian 16:  ES64L-G16RevA.03 25-Dec-2016

 ----------------------------------------------------------------------
 #P Opt(MaxCyc=150) PM3 5D 7F Integral=UltraFineGrid SCF=(NoSymm,XQC,Ma
 xCyc=120) IOp(1/33=1)
 ----------------------------------------------------------------------

 TstMul:  Mul=     1
 TstMul:  ICh=     0
 TstMul:  Mul=     1
 Symbolic Z-matrix:
 Charge =  0 Multiplicity = 1

 SCF Done:  E(RPM3) =  0.525114463387E-01 A.U. after   10 cycles
 SCF Done:  E(RPM3) =  0.524813159019E-01 A.U. after    8 cycles
 Optimization completed.
    -- Stationary point found.

                         Standard orientation:
 ---------------------------------------------------------------------
 Center     Atomic      Atomic             Coordinates (Angstroms)
 Number     Number       Type             X           Y           Z
 ---------------------------------------------------------------------
      1          6           0        0.000000    0.000000   -0.501472
      2          7           0        0.000000    0.000000    0.654360
      3          1           0        0.000000    0.000000   -1.571688
 ---------------------------------------------------------------------

 The electronic state is 1-SG.
 Alpha  occ. eigenvalues --   -1.14914  -0.72839  -0.48843  -0.48843  -0.46312
 Alpha virt. eigenvalues --    0.05352   0.05352   0.07693   0.23854

 Mulliken charges:
               1
     1  C   -0.159919
     2  N   -0.067023
     3  H    0.226942
 Sum of Mulliken charges =   0.00000

 Dipole moment (field-independent basis, Debye):
    X=             -0.0000    Y=             -0.0000    Z=             -2.6962  Tot=              2.6962
 N-N= 2.023772117548D+01 E-N=-1.674047890880D+01  KE=-1.699498024100D+01
 Leave Link  601 at Wed Oct 21 14:22:36 2020, MaxMem=  2684354560 cpu:               3.5 elap:               1.5
 (Enter /udrive/faculty/rpeverati/g16/g16/l9999.exe)

 Test job not archived.
 1\1\GINC-NODE51\FOpt\RPM3\ZDO\C1H1N1\RPEVERATI\21-Oct-2020\0\\#P Opt(M
 axCyc=150) PM3 5D 7F Integral=UltraFineGrid SCF=(NoSymm,XQC,MaxCyc=120
 ) IOp(1/33=1)\\TS search on BH76.\\0,1\C,0.,0.,-0.499877667\N,0.,0.,0.
 6559550134\H,0.,0.,-1.5700933588\\Version=ES64L-G16RevA.03\State=1-SG\
 HF=0.0524813\RMSD=2.808e-09\RMSF=2.015e-04\Dipole=0.,0.,-1.0607707\PG=

 Normal termination of Gaussian 16 at Wed Oct 21 14:22:39 2020.
