 Gaussian 16, Revision A.03,
 Gaussian 16:  ES64L-G16RevA.03 25-Dec-2016

 ----------------------------------------------------------------------
 #P Opt(MaxCyc=150) PM3 5D 7F Integral=UltraFineGrid SCF=(NoSymm,XQC,Ma
 xCyc=120) IOp(1/33=1)
 ----------------------------------------------------------------------

 TstMul:  Mul=     1
 TstMul:  ICh=     0
 TstMul:  Mul=     1
 Symbolic Z-matrix:
 Charge =  0 Multiplicity = 1

 SCF Done:  E(RPM3) = -0.201621139763E-01 A.U. after    2 cycles
 SCF Done:  E(RPM3) = -0.213351861264E-01 A.U. after    2 cycles
 SCF Done:  E(RPM3) = -0.213473651445E-01 A.U. after    2 cycles
 Optimization completed.
    -- Stationary point found.

                         Standard orientation:
 ---------------------------------------------------------------------
 Center     Atomic      Atomic             Coordinates (Angstroms)
 Number     Number       Type             X           Y           Z
 ---------------------------------------------------------------------
      1          1           0        0.000000    0.000000    0.349530
      2          1           0        0.000000    0.000000   -0.349530
 ---------------------------------------------------------------------

 The electronic state is 1-SGG.
 Alpha  occ. eigenvalues --   -0.59196
 Alpha virt. eigenvalues --    0.17476

 Mulliken charges:
               1
     1  H    0.000000
     2  H    0.000000
 Sum of Mulliken charges =   0.00000

 Dipole moment (field-independent basis, Debye):
    X=              0.0000    Y=              0.0000    Z=              0.0000  Tot=              0.0000
 N-N= 1.655202614058D+00 E-N=-8.832017400891D-01  KE=-1.285987244322D+00
 Leave Link  601 at Wed Oct 21 14:22:35 2020, MaxMem=  2684354560 cpu:               2.5 elap:               1.0
 (Enter /udrive/faculty/rpeverati/g16/g16/l9999.exe)

 Test job not archived.
 1\1\GINC-NODE51\FOpt\RPM3\ZDO\H2\RPEVERATI\21-Oct-2020\0\\#P Opt(MaxCy
 c=150) PM3 5D 7F Integral=UltraFineGrid SCF=(NoSymm,XQC,MaxCyc=120) IO
 p(1/33=1)\\TS search on BH76.\\0,1\H,0.,0.,0.3495302519\H,0.,0.,-0.349
 5302519\\Version=ES64L-G16RevA.03\State=1-SGG\HF=-0.0213474\RMSD=2.220
 e-16\RMSF=9.721e-07\Dipole=0.,0.,0.\PG=D*H [C*(H1.H1)]\\@

 Normal termination of Gaussian 16 at Wed Oct 21 14:22:38 2020.
