 Gaussian 16, Revision A.03,
 Gaussian 16:  ES64L-G16RevA.03 25-Dec-2016

 ----------------------------------------------------------------------
 #P Opt(MaxCyc=150) PM3 5D 7F Integral=UltraFineGrid SCF=(NoSymm,XQC,Ma
 xCyc=120) IOp(1/33=1)
 ----------------------------------------------------------------------

 TstMul:  Mul=     1
 TstMul:  ICh=     0
 TstMul:  Mul=     1
 Symbolic Z-matrix:
 Charge =  0 Multiplicity = 1

 SCF Done:  E(RPM3) = -0.654493483964E-03 A.U. after    8 cycles
 SCF Done:  E(RPM3) = -0.114265571019E-02 A.U. after    7 cycles
 SCF Done:  E(RPM3) = -0.146420306157E-02 A.U. after    7 cycles
 SCF Done:  E(RPM3) = -0.146500233386E-02 A.U. after    6 cycles
 Optimization completed.
    -- Stationary point found.

                         Standard orientation:
 ---------------------------------------------------------------------
 Center     Atomic      Atomic             Coordinates (Angstroms)
 Number     Number       Type             X           Y           Z
 ---------------------------------------------------------------------
      1         16           0        0.000000    0.000000    0.098225
      2          1           0        0.000000    0.940010   -0.785798
      3          1           0       -0.000000   -0.940010   -0.785798
 ---------------------------------------------------------------------

 The electronic state is 1-A1.
 Alpha  occ. eigenvalues --   -1.01424  -0.57262  -0.45230  -0.35384
 Alpha virt. eigenvalues --    0.02030   0.04882

 Mulliken charges:
               1
     1  S    0.032267
     2  H   -0.016133
     3  H   -0.016133
 Sum of Mulliken charges =   0.00000

 Dipole moment (field-independent basis, Debye):
    X=              0.0000    Y=             -0.0000    Z=             -1.7752  Tot=              1.7752
 N-N= 1.191220461933D+01 E-N=-7.285992467880D+00  KE=-1.175535097443D+01
 Leave Link  601 at Wed Oct 21 14:23:22 2020, MaxMem=  2684354560 cpu:               4.4 elap:               1.6
 (Enter /udrive/faculty/rpeverati/g16/g16/l9999.exe)

 Test job not archived.
 1\1\GINC-NODE52\FOpt\RPM3\ZDO\H2S1\RPEVERATI\21-Oct-2020\0\\#P Opt(Max
 Cyc=150) PM3 5D 7F Integral=UltraFineGrid SCF=(NoSymm,XQC,MaxCyc=120)
 IOp(1/33=1)\\TS search on BH76.\\0,1\S,0.,0.,0.0767506204\H,0.,0.94000
 99359,-0.8072716496\H,0.,-0.9400099359,-0.8072716496\\Version=ES64L-G1
 6RevA.03\State=1-A1\HF=-0.001465\RMSD=1.903e-10\RMSF=2.440e-06\Dipole=

 Normal termination of Gaussian 16 at Wed Oct 21 14:23:26 2020.
