 Gaussian 16, Revision A.03,

 ----------------------------------------------------------------------
 #P Opt(TS,MaxCyc=50,NoEigenTest,MaxStep=10,AddRedundant) PM3 5D 7F Int
 egral=UltraFineGrid SCF=(NoSymm,XQC,MaxCyc=120) IOp(1/33=1)
 ----------------------------------------------------------------------

 TstMul:  Mul=     2
 TstMul:  ICh=     0
 TstMul:  Mul=     2
 Symbolic Z-matrix:
 Charge =  0 Multiplicity = 2

 SCF Done:  E(UPM3) =  0.389327168272E-01 A.U. after    9 cycles
 SCF Done:  E(UPM3) =  0.374865461718E-01 A.U. after    7 cycles
 SCF Done:  E(UPM3) =  0.366201398276E-01 A.U. after    7 cycles
 SCF Done:  E(UPM3) =  0.363471784104E-01 A.U. after    7 cycles
 SCF Done:  E(UPM3) =  0.363463174789E-01 A.U. after    6 cycles
 Optimization completed.
    -- Stationary point found.
 Normal termination of Gaussian 16 at Wed Oct 21 14:22:54 2020.
 Gaussian 16:  ES64L-G16RevA.03 25-Dec-2016

 ----------------------------------------------------------------------
 #P Freq PM3 5D 7F Integral=UltraFineGrid SCF=(NoSymm,XQC,MaxCyc=120) I
 Op(1/33=1) Geom=Check Guess=Read
 ----------------------------------------------------------------------

 TstMul:  Mul=     2
 TstMul:  ICh=     0
 TstMul:  Mul=     2
 Structure from the checkpoint file:  "MN_45_hclhts_BH76_PM3_SE.chk"
 Charge =  0 Multiplicity = 2

                         Standard orientation:
 ---------------------------------------------------------------------
 Center     Atomic      Atomic             Coordinates (Angstroms)
 Number     Number       Type             X           Y           Z
 ---------------------------------------------------------------------
      1          1           0        0.000000    0.000000    1.405218
      2         17           0        0.000000    0.000000    0.000000
      3          1           0        0.000000    0.000000   -1.405218
 ---------------------------------------------------------------------

 SCF Done:  E(UPM3) =  0.363463174789E-01 A.U. after    2 cycles

 The electronic state is 2-SGG.
 Alpha  occ. eigenvalues --   -2.05066  -0.63313  -0.40470  -0.40470  -0.36730
 Alpha virt. eigenvalues --    0.03596
  Beta  occ. eigenvalues --   -2.05903  -0.55742  -0.39831  -0.39831
  Beta virt. eigenvalues --    0.02544   0.15887

 Mulliken charges and spin densities:
               1          2
     1  H    0.005394   0.584526
     2  Cl  -0.010788  -0.169052
     3  H    0.005394   0.584526
 Sum of Mulliken charges =  -0.00000   1.00000

 Dipole moment (field-independent basis, Debye):
    X=              0.0000    Y=             -0.0000    Z=              0.0000  Tot=              0.0000
 N-N= 1.750169880270D+01 E-N=-9.030991745286D+00  KE=-1.862616916479D+01
  Exact polarizability:   0.658   0.000   0.658  -0.000   0.000  41.810
 Approx polarizability:   0.201   0.000   0.201  -0.000   0.000  23.448
 Leave Link  601 at Wed Oct 21 14:23:26 2020, MaxMem=  2684354560 cpu:               6.0 elap:               1.2
 (Enter /udrive/faculty/rpeverati/g16/g16/l701.exe)
 ... and contract with generalized density number  0.
 Compute integral second derivatives.
 Leave Link  701 at Wed Oct 21 14:23:28 2020, MaxMem=  2684354560 cpu:               3.5 elap:               1.0
 (Enter /udrive/faculty/rpeverati/g16/g16/l702.exe)
 L702 exits ... SP integral derivatives will be done elsewhere.

 ******    3 imaginary frequencies (negative Signs) ******

                      1                      2                      3
                     SGU                    PIU                    PIU
 Frequencies --  -1142.3089              -671.0229              -671.0229
 Red. masses --      1.0641                 1.0641                 1.0641
 Frc consts  --      0.8181                 0.2823                 0.2823
 IR Inten    --   2447.4665                30.3798                30.3798

                      4
                     SGG
 Frequencies --   1748.3164
 Red. masses --      1.0078
 Frc consts  --      1.8150
 IR Inten    --      0.0000

 - Thermochemistry -
 -------------------
 Temperature   298.150 Kelvin.  Pressure   1.00000 Atm.
 Atom     1 has atomic number  1 and mass   1.00783

 Molecular mass:    36.98450 amu.
 Principal axes and moments of inertia in atomic units:
                           1         2         3
     Eigenvalues --     0.00000  14.21347  14.21347
           X           -0.00000   1.00000   0.00000
           Y            0.00000   0.00000   1.00000
           Z            1.00000   0.00000   0.00000
 This molecule is a prolate symmetric top.
 Rotational symmetry number  2.
 Rotational temperature (Kelvin)      6.09379
 Rotational constant (GHZ):         126.974000
    3 imaginary frequencies ignored.
 Zero-point vibrational energy      10457.3 (Joules/Mol)
                                    2.49934 (Kcal/Mol)
 Vibrational temperatures:   2515.44
          (Kelvin)

 Zero-point correction=                           0.003983 (Hartree/Particle)
 Thermal correction to Energy=                    0.006345
 Thermal correction to Enthalpy=                  0.007289
 Thermal correction to Gibbs Free Energy=        -0.014793
 Sum of electronic and zero-point Energies=              0.040329
 Sum of electronic and thermal Energies=                 0.042691
 Sum of electronic and thermal Enthalpies=               0.043636
 Sum of electronic and thermal Free Energies=            0.021554

                     E (Thermal)             CV                S
                      KCal/Mol        Cal/Mol-Kelvin    Cal/Mol-Kelvin
 Total                    3.982              4.999             46.475
 Electronic               0.000              0.000              1.377
 Translational            0.889              2.981             36.753
 Rotational               0.592              1.987              8.341
 Vibrational              2.500              0.031              0.004

 Optimization completed.
    -- Stationary point found.
 Normal termination of Gaussian 16 at Wed Oct 21 14:23:36 2020.
