 Gaussian 16, Revision A.03,

 ----------------------------------------------------------------------
 #P Opt(TS,MaxCyc=50,NoEigenTest,MaxStep=10,AddRedundant) PM3 5D 7F Int
 egral=UltraFineGrid SCF=(NoSymm,XQC,MaxCyc=120) IOp(1/33=1)
 ----------------------------------------------------------------------

 TstMul:  Mul=     2
 TstMul:  ICh=     0
 TstMul:  Mul=     2
 Symbolic Z-matrix:
 Charge =  0 Multiplicity = 2

 SCF Done:  E(UPM3) =  0.480214507924E-01 A.U. after   17 cycles
 SCF Done:  E(UPM3) =  0.440377987885E-01 A.U. after   11 cycles
 SCF Done:  E(UPM3) =  0.410135190618E-01 A.U. after   11 cycles
 SCF Done:  E(UPM3) =  0.395873371478E-01 A.U. after   12 cycles
 SCF Done:  E(UPM3) =  0.393906759961E-01 A.U. after   12 cycles
 SCF Done:  E(UPM3) =  0.393518670209E-01 A.U. after   10 cycles
 SCF Done:  E(UPM3) =  0.393509658965E-01 A.U. after    9 cycles
 Optimization completed.
    -- Stationary point found.
 Normal termination of Gaussian 16 at Wed Oct 21 14:24:32 2020.
 Gaussian 16:  ES64L-G16RevA.03 25-Dec-2016

 ----------------------------------------------------------------------
 #P Freq PM3 5D 7F Integral=UltraFineGrid SCF=(NoSymm,XQC,MaxCyc=120) I
 Op(1/33=1) Geom=Check Guess=Read
 ----------------------------------------------------------------------

 TstMul:  Mul=     2
 TstMul:  ICh=     0
 TstMul:  Mul=     2
 Structure from the checkpoint file:  "MN_52_hf2ts_BH76_PM3_SE.chk"
 Charge =  0 Multiplicity = 2

                         Standard orientation:
 ---------------------------------------------------------------------
 Center     Atomic      Atomic             Coordinates (Angstroms)
 Number     Number       Type             X           Y           Z
 ---------------------------------------------------------------------
      1          1           0        0.000000    0.000000   -2.215591
      2          9           0        0.000000    0.000000   -0.558977
      3          9           0        0.000000    0.000000    0.805153
 ---------------------------------------------------------------------

 SCF Done:  E(UPM3) =  0.393509658966E-01 A.U. after    2 cycles

 The electronic state is 2-SG.
 Alpha  occ. eigenvalues --   -0.89070  -0.82584  -0.71334  -0.70375  -0.70375
 Alpha  occ. eigenvalues --   -0.56326  -0.56326  -0.45729
 Alpha virt. eigenvalues --    0.00499
  Beta  occ. eigenvalues --   -0.88301  -0.82112  -0.70325  -0.70325  -0.70041
  Beta  occ. eigenvalues --   -0.56242  -0.56242
  Beta virt. eigenvalues --   -0.03000   0.09187

 Mulliken charges and spin densities:
               1          2
     1  H    0.013814   0.922487
     2  F    0.003209  -0.022583
     3  F   -0.017024   0.100096
 Sum of Mulliken charges =  -0.00000   1.00000

 Dipole moment (field-independent basis, Debye):
    X=              0.0000    Y=              0.0000    Z=             -0.2732  Tot=              0.2732
 N-N= 4.943723615576D+01 E-N=-3.230956271290D+01  KE=-5.612915165340D+01
  Exact polarizability:   0.144   0.000   0.144   0.000   0.000  17.537
 Approx polarizability:   0.047  -0.000   0.047   0.000   0.000  12.165
 Leave Link  601 at Wed Oct 21 14:25:03 2020, MaxMem=  2684354560 cpu:               2.8 elap:               1.1
 (Enter /udrive/faculty/rpeverati/g16/g16/l701.exe)
 ... and contract with generalized density number  0.
 Compute integral second derivatives.
 Leave Link  701 at Wed Oct 21 14:25:05 2020, MaxMem=  2684354560 cpu:               4.0 elap:               1.4
 (Enter /udrive/faculty/rpeverati/g16/g16/l702.exe)
 L702 exits ... SP integral derivatives will be done elsewhere.

                      1                      2                      3
                     PI                     PI                     SG
 Frequencies --     50.2451                50.2451              1198.7394
 Red. masses --      1.3251                 1.3251                18.2598
 Frc consts  --      0.0020                 0.0020                15.4595
 IR Inten    --      0.2439                 0.2439                46.4325

                      4
                     SG
 Frequencies --   1352.4137
 Red. masses --      1.0354
 Frc consts  --      1.1158
 IR Inten    --     44.8130

 - Thermochemistry -
 -------------------
 Temperature   298.150 Kelvin.  Pressure   1.00000 Atm.
 Atom     1 has atomic number  1 and mass   1.00783

 Molecular mass:    39.00463 amu.
 Principal axes and moments of inertia in atomic units:
                           1         2         3
     Eigenvalues --     0.00000  82.30013  82.30013
           X            0.00000   0.00000   1.00000
           Y            0.00000   1.00000   0.00000
           Z            1.00000   0.00000   0.00000
 This molecule is a prolate symmetric top.
 Rotational symmetry number  1.
 Rotational temperature (Kelvin)      1.05242
 Rotational constant (GHZ):          21.928778
 Zero-point vibrational energy      15860.3 (Joules/Mol)
                                    3.79071 (Kcal/Mol)
 Warning -- explicit consideration of   2 degrees of freedom as
           vibrations may cause significant error
 Vibrational temperatures:     72.29    72.29  1724.72  1945.82
          (Kelvin)

 Zero-point correction=                           0.006041 (Hartree/Particle)
 Thermal correction to Energy=                    0.010096
 Thermal correction to Enthalpy=                  0.011040
 Thermal correction to Gibbs Free Energy=        -0.018027
 Sum of electronic and zero-point Energies=              0.045392
 Sum of electronic and thermal Energies=                 0.049447
 Sum of electronic and thermal Enthalpies=               0.050391
 Sum of electronic and thermal Free Energies=            0.021324

                     E (Thermal)             CV                S
                      KCal/Mol        Cal/Mol-Kelvin    Cal/Mol-Kelvin
 Total                    6.335              9.253             61.176
 Electronic               0.000              0.000              1.377
 Translational            0.889              2.981             36.912
 Rotational               0.592              1.987             13.208
 Vibrational              4.854              4.285              9.679
 Vibration     1          0.595              1.977              4.808
 Vibration     2          0.595              1.977              4.808

 Optimization completed.
    -- Stationary point found.
 Normal termination of Gaussian 16 at Wed Oct 21 14:25:14 2020.
