 Gaussian 16, Revision A.03,
 Gaussian 16:  ES64L-G16RevA.03 25-Dec-2016

 ----------------------------------------------------------------------
 #P Opt(MaxCyc=150) PM3 5D 7F Integral=UltraFineGrid SCF=(NoSymm,XQC,Ma
 xCyc=120) IOp(1/33=1)
 ----------------------------------------------------------------------

 TstMul:  Mul=     1
 TstMul:  ICh=     0
 TstMul:  Mul=     1
 Symbolic Z-matrix:
 Charge =  0 Multiplicity = 1

 SCF Done:  E(RPM3) = -0.992273740568E-01 A.U. after    7 cycles
 SCF Done:  E(RPM3) = -0.998631112369E-01 A.U. after    6 cycles
 SCF Done:  E(RPM3) = -0.998688138547E-01 A.U. after    5 cycles
 Optimization completed.
    -- Stationary point found.

                         Standard orientation:
 ---------------------------------------------------------------------
 Center     Atomic      Atomic             Coordinates (Angstroms)
 Number     Number       Type             X           Y           Z
 ---------------------------------------------------------------------
      1          9           0        0.000000    0.000000    0.093782
      2          1           0        0.000000    0.000000   -0.844035
 ---------------------------------------------------------------------

 The electronic state is 1-SG.
 Alpha  occ. eigenvalues --   -0.86511  -0.62820  -0.59330  -0.59330
 Alpha virt. eigenvalues --    0.13252

 Mulliken charges:
               1
     1  F   -0.166023
     2  H    0.166023
 Sum of Mulliken charges =   0.00000

 Dipole moment (field-independent basis, Debye):
    X=             -0.0000    Y=             -0.0000    Z=             -1.4042  Tot=              1.4042
 N-N= 1.937400713320D+01 E-N=-4.504206539240D+00  KE=-2.908371020430D+01
 Leave Link  601 at Wed Oct 21 14:22:54 2020, MaxMem=  2684354560 cpu:               4.6 elap:               1.0
 (Enter /udrive/faculty/rpeverati/g16/g16/l9999.exe)

 Test job not archived.
 1\1\GINC-NODE40\FOpt\RPM3\ZDO\F1H1\RPEVERATI\21-Oct-2020\0\\#P Opt(Max
 Cyc=150) PM3 5D 7F Integral=UltraFineGrid SCF=(NoSymm,XQC,MaxCyc=120)
 IOp(1/33=1)\\TS search on BH76.\\0,1\F,0.,0.,0.1027555354\H,0.,0.,-0.8
 35061652\\Version=ES64L-G16RevA.03\State=1-SG\HF=-0.0998688\RMSD=8.684
 e-09\RMSF=1.114e-07\Dipole=0.,0.,-0.5524537\PG=C*V [C*(H1F1)]\\@

 Normal termination of Gaussian 16 at Wed Oct 21 14:22:55 2020.
