 Gaussian 16, Revision A.03,

 ----------------------------------------------------------------------
 #P Opt(TS,MaxCyc=50,NoEigenTest,MaxStep=10,AddRedundant) PM3 5D 7F Int
 egral=UltraFineGrid SCF=(NoSymm,XQC,MaxCyc=120) IOp(1/33=1)
 ----------------------------------------------------------------------

 TstMul:  Mul=     2
 TstMul:  ICh=     0
 TstMul:  Mul=     2
 Symbolic Z-matrix:
 Charge =  0 Multiplicity = 2

 SCF Done:  E(UPM3) =  0.925901123250E-01 A.U. after    8 cycles
 SCF Done:  E(UPM3) =  0.860508607629E-01 A.U. after    7 cycles
 SCF Done:  E(UPM3) =  0.802112814402E-01 A.U. after    7 cycles
 SCF Done:  E(UPM3) =  0.753772955841E-01 A.U. after    7 cycles
 SCF Done:  E(UPM3) =  0.718935249462E-01 A.U. after    7 cycles
 SCF Done:  E(UPM3) =  0.701476948484E-01 A.U. after    7 cycles
 SCF Done:  E(UPM3) =  0.700293079417E-01 A.U. after    7 cycles
 SCF Done:  E(UPM3) =  0.700259140797E-01 A.U. after    6 cycles
 Optimization completed.
    -- Stationary point found.
 Normal termination of Gaussian 16 at Wed Oct 21 14:24:57 2020.
 Gaussian 16:  ES64L-G16RevA.03 25-Dec-2016

 ----------------------------------------------------------------------
 #P Freq PM3 5D 7F Integral=UltraFineGrid SCF=(NoSymm,XQC,MaxCyc=120) I
 Op(1/33=1) Geom=Check Guess=Read
 ----------------------------------------------------------------------

 TstMul:  Mul=     2
 TstMul:  ICh=     0
 TstMul:  Mul=     2
 Structure from the checkpoint file:  "MN_54_hfhts_BH76_PM3_SE.chk"
 Charge =  0 Multiplicity = 2

                         Standard orientation:
 ---------------------------------------------------------------------
 Center     Atomic      Atomic             Coordinates (Angstroms)
 Number     Number       Type             X           Y           Z
 ---------------------------------------------------------------------
      1          1           0        0.000000    0.000000    0.992809
      2          9           0        0.000000    0.000000    0.000000
      3          1           0        0.000000    0.000000   -0.992809
 ---------------------------------------------------------------------

 SCF Done:  E(UPM3) =  0.700259140797E-01 A.U. after    2 cycles

 The electronic state is 2-SGU.
 Alpha  occ. eigenvalues --   -0.87849  -0.82322  -0.65231  -0.65231  -0.21273
 Alpha virt. eigenvalues --    0.04589
  Beta  occ. eigenvalues --   -0.84945  -0.77357  -0.65232  -0.65232
  Beta virt. eigenvalues --    0.13413   0.18194

 Mulliken charges and spin densities:
               1          2
     1  H   -0.019368   0.397696
     2  F    0.038736   0.204607
     3  H   -0.019368   0.397696
 Sum of Mulliken charges =  -0.00000   1.00000

 Dipole moment (field-independent basis, Debye):
    X=              0.0000    Y=              0.0000    Z=             -0.0000  Tot=              0.0000
 N-N= 2.269716194840D+01 E-N=-1.011901083906D+01  KE=-2.898853954078D+01
  Exact polarizability:   0.451  -0.000   0.451  -0.000   0.000 -24.047
 Approx polarizability:   0.201  -0.000   0.201  -0.000   0.000  16.526
 Leave Link  601 at Wed Oct 21 14:25:28 2020, MaxMem=  2684354560 cpu:               2.6 elap:               0.9
 (Enter /udrive/faculty/rpeverati/g16/g16/l701.exe)
 ... and contract with generalized density number  0.
 Compute integral second derivatives.
 Leave Link  701 at Wed Oct 21 14:25:30 2020, MaxMem=  2684354560 cpu:               5.1 elap:               1.3
 (Enter /udrive/faculty/rpeverati/g16/g16/l702.exe)
 L702 exits ... SP integral derivatives will be done elsewhere.

 ******    2 imaginary frequencies (negative Signs) ******

                      1                      2                      3
                     PIU                    PIU                    SGG
 Frequencies --  -1049.9318             -1049.9318              3412.1251
 Red. masses --      1.1085                 1.1085                 1.0078
 Frc consts  --      0.7200                 0.7200                 6.9133
 IR Inten    --     28.1437                28.1437                 0.0000

                      4
                     SGU
 Frequencies --   5163.2255
 Red. masses --      1.1085
 Frc consts  --     17.4114
 IR Inten    --  18575.7541

 - Thermochemistry -
 -------------------
 Temperature   298.150 Kelvin.  Pressure   1.00000 Atm.
 Atom     1 has atomic number  1 and mass   1.00783

 Molecular mass:    21.01405 amu.
 Principal axes and moments of inertia in atomic units:
                           1         2         3
     Eigenvalues --     0.00000   7.09487   7.09487
           X           -0.00000   1.00000   0.00000
           Y            0.00000   0.00000   1.00000
           Z            1.00000   0.00000   0.00000
 This molecule is a prolate symmetric top.
 Rotational symmetry number  2.
 Rotational temperature (Kelvin)     12.20797
 Rotational constant (GHZ):         254.372792
    2 imaginary frequencies ignored.
 Zero-point vibrational energy      51292.0 (Joules/Mol)
                                   12.25908 (Kcal/Mol)
 Vibrational temperatures:   4909.29  7428.73
          (Kelvin)

 Zero-point correction=                           0.019536 (Hartree/Particle)
 Thermal correction to Energy=                    0.021897
 Thermal correction to Enthalpy=                  0.022841
 Thermal correction to Gibbs Free Energy=         0.002217
 Sum of electronic and zero-point Energies=              0.089562
 Sum of electronic and thermal Energies=                 0.091922
 Sum of electronic and thermal Enthalpies=               0.092867
 Sum of electronic and thermal Free Energies=            0.072243

                     E (Thermal)             CV                S
                      KCal/Mol        Cal/Mol-Kelvin    Cal/Mol-Kelvin
 Total                   13.740              4.968             43.405
 Electronic               0.000              0.000              1.377
 Translational            0.889              2.981             35.068
 Rotational               0.592              1.987              6.960
 Vibrational             12.259              0.000              0.000

 Optimization completed.
    -- Stationary point found.
 Normal termination of Gaussian 16 at Wed Oct 21 14:25:40 2020.
