 Gaussian 16, Revision A.03,

 ----------------------------------------------------------------------
 #P Opt(TS,MaxCyc=50,NoEigenTest,MaxStep=10,AddRedundant) PM3 5D 7F Int
 egral=UltraFineGrid SCF=(NoSymm,XQC,MaxCyc=120) IOp(1/33=1)
 ----------------------------------------------------------------------

 TstMul:  Mul=     2
 TstMul:  ICh=     0
 TstMul:  Mul=     2
 Symbolic Z-matrix:
 Charge =  0 Multiplicity = 2

 SCF Done:  E(UPM3) =  0.107926152277     A.U. after   18 cycles
 SCF Done:  E(UPM3) =  0.107221235588     A.U. after   15 cycles
 SCF Done:  E(UPM3) =  0.106592489970     A.U. after   15 cycles
 SCF Done:  E(UPM3) =  0.106240879371     A.U. after   15 cycles
 SCF Done:  E(UPM3) =  0.106043882170     A.U. after   15 cycles
 SCF Done:  E(UPM3) =  0.106038241713     A.U. after   14 cycles
 Optimization completed.
    -- Stationary point found.
 Normal termination of Gaussian 16 at Wed Oct 21 14:24:05 2020.
 Gaussian 16:  ES64L-G16RevA.03 25-Dec-2016

 ----------------------------------------------------------------------
 #P Freq PM3 5D 7F Integral=UltraFineGrid SCF=(NoSymm,XQC,MaxCyc=120) I
 Op(1/33=1) Geom=Check Guess=Read
 ----------------------------------------------------------------------

 TstMul:  Mul=     2
 TstMul:  ICh=     0
 TstMul:  Mul=     2
 Structure from the checkpoint file:  "MN_59_hn2ts_BH76_PM3_SE.chk"
 Charge =  0 Multiplicity = 2

                         Standard orientation:
 ---------------------------------------------------------------------
 Center     Atomic      Atomic             Coordinates (Angstroms)
 Number     Number       Type             X           Y           Z
 ---------------------------------------------------------------------
      1          7           0        0.069797   -0.658673    0.000000
      2          7           0        0.069797    0.451233    0.000000
      3          1           0       -0.977164    1.452078    0.000000
 ---------------------------------------------------------------------

 SCF Done:  E(UPM3) =  0.106038241713     A.U. after    2 cycles

 The electronic state is 2-A'.
 Alpha  occ. eigenvalues --   -1.19580  -0.65655  -0.57180  -0.56363  -0.52705
 Alpha  occ. eigenvalues --   -0.35668
 Alpha virt. eigenvalues --    0.01571   0.02136   0.23073
  Beta  occ. eigenvalues --   -1.18876  -0.61463  -0.56047  -0.55414  -0.51768
  Beta virt. eigenvalues --   -0.00058   0.01965   0.10901   0.24417

 Mulliken charges and spin densities:
               1          2
     1  N   -0.082209   0.221596
     2  N    0.155153   0.038058
     3  H   -0.072944   0.740346
 Sum of Mulliken charges =  -0.00000   1.00000

 Dipole moment (field-independent basis, Debye):
    X=              0.0460    Y=              0.3122    Z=              0.0000  Tot=              0.3155
 N-N= 2.383016896661D+01 E-N=-2.057610155012D+01  KE=-1.956495941053D+01
  Exact polarizability:  10.871  -7.685  25.434  -0.000  -0.000   4.045
 Approx polarizability:   5.280  -3.821  21.570  -0.000   0.000   2.344
 Leave Link  601 at Wed Oct 21 14:24:37 2020, MaxMem=  2684354560 cpu:               5.8 elap:               1.2
 (Enter /udrive/faculty/rpeverati/g16/g16/l701.exe)
 ... and contract with generalized density number  0.
 Compute integral second derivatives.
 Leave Link  701 at Wed Oct 21 14:24:38 2020, MaxMem=  2684354560 cpu:               4.4 elap:               1.1
 (Enter /udrive/faculty/rpeverati/g16/g16/l702.exe)
 L702 exits ... SP integral derivatives will be done elsewhere.

 ******    1 imaginary frequencies (negative Signs) ******

                      1                      2                      3
                     A'                     A'                     A'
 Frequencies --  -1495.7272               489.0742              2451.9393
 Red. masses --      1.0779                 1.4020                10.1501
 Frc consts  --      1.4209                 0.1976                35.9533
 IR Inten    --    802.2234                 3.9674               174.3578

 - Thermochemistry -
 -------------------
 Temperature   298.150 Kelvin.  Pressure   1.00000 Atm.
 Atom     1 has atomic number  7 and mass  14.00307

 Molecular mass:    29.01397 amu.
 Principal axes and moments of inertia in atomic units:
                           1         2         3
     Eigenvalues --     2.92546  40.09225  43.01771
           X           -0.15409   0.98806   0.00000
           Y            0.98806   0.15409   0.00000
           Z            0.00000   0.00000   1.00000
 This molecule is an asymmetric top.
 Rotational symmetry number  1.
 Rotational temperatures (Kelvin)     29.60693     2.16037     2.01345
 Rotational constants (GHZ):         616.90829    45.01472    41.95345
    1 imaginary frequencies ignored.
 Zero-point vibrational energy      17591.2 (Joules/Mol)
                                    4.20439 (Kcal/Mol)
 Warning -- explicit consideration of   1 degrees of freedom as
           vibrations may cause significant error
 Vibrational temperatures:    703.67  3527.79
          (Kelvin)

 Zero-point correction=                           0.006700 (Hartree/Particle)
 Thermal correction to Energy=                    0.009765
 Thermal correction to Enthalpy=                  0.010709
 Thermal correction to Gibbs Free Energy=        -0.015123
 Sum of electronic and zero-point Energies=              0.112738
 Sum of electronic and thermal Energies=                 0.115803
 Sum of electronic and thermal Enthalpies=               0.116747
 Sum of electronic and thermal Free Energies=            0.090916

                     E (Thermal)             CV                S
                      KCal/Mol        Cal/Mol-Kelvin    Cal/Mol-Kelvin
 Total                    6.128              7.238             54.368
 Electronic               0.000              0.000              1.377
 Translational            0.889              2.981             36.030
 Rotational               0.889              2.981             16.275
 Vibrational              4.350              1.276              0.686
 Vibration     1          0.845              1.274              0.686

 Optimization completed.
    -- Stationary point found.
 Normal termination of Gaussian 16 at Wed Oct 21 14:24:46 2020.
