 Gaussian 16, Revision A.03,

 ----------------------------------------------------------------------
 #P Opt(TS,MaxCyc=50,NoEigenTest,MaxStep=10,AddRedundant) PM3 5D 7F Int
 egral=UltraFineGrid SCF=(NoSymm,XQC,MaxCyc=120) IOp(1/33=1)
 ----------------------------------------------------------------------

 TstMul:  Mul=     2
 TstMul:  ICh=     0
 TstMul:  Mul=     2
 Symbolic Z-matrix:
 Charge =  0 Multiplicity = 2

 SCF Done:  E(UPM3) =  0.381607832305E-01 A.U. after   19 cycles
 SCF Done:  E(UPM3) =  0.335156622766E-01 A.U. after   14 cycles
 SCF Done:  E(UPM3) =  0.375884462308E-01 A.U. after   15 cycles
 SCF Done:  E(UPM3) =  0.312929274446E-01 A.U. after   14 cycles
 SCF Done:  E(UPM3) =  0.252659508224E-01 A.U. after   13 cycles
 SCF Done:  E(UPM3) =  0.199765458414E-01 A.U. after   14 cycles
 SCF Done:  E(UPM3) =  0.160078467561E-01 A.U. after   14 cycles
 SCF Done:  E(UPM3) =  0.139128747286E-01 A.U. after   14 cycles
 SCF Done:  E(UPM3) =  0.135164828946E-01 A.U. after   14 cycles
 SCF Done:  E(UPM3) =  0.135036433394E-01 A.U. after   12 cycles
 SCF Done:  E(UPM3) =  0.135030074654E-01 A.U. after   13 cycles
 SCF Done:  E(UPM3) =  0.135015814849E-01 A.U. after   12 cycles
 SCF Done:  E(UPM3) =  0.135015895409E-01 A.U. after   11 cycles
 Optimization completed.
    -- Stationary point found.
 Normal termination of Gaussian 16 at Wed Oct 21 14:27:43 2020.
 Gaussian 16:  ES64L-G16RevA.03 25-Dec-2016

 ----------------------------------------------------------------------
 #P Freq PM3 5D 7F Integral=UltraFineGrid SCF=(NoSymm,XQC,MaxCyc=120) I
 Op(1/33=1) Geom=Check Guess=Read
 ----------------------------------------------------------------------

 TstMul:  Mul=     2
 TstMul:  ICh=     0
 TstMul:  Mul=     2
 Structure from the checkpoint file:  "MN_53_hfch3ts_BH76_PM3_SE.chk"
 Charge =  0 Multiplicity = 2

                         Standard orientation:
 ---------------------------------------------------------------------
 Center     Atomic      Atomic             Coordinates (Angstroms)
 Number     Number       Type             X           Y           Z
 ---------------------------------------------------------------------
      1          1           0       -0.001836    1.746929    0.000000
      2          9           0        0.000099    0.688142    0.000000
      3          6           0        0.000099   -0.770920    0.000000
      4          1           0        1.036714   -1.104819    0.000000
      5          1           0       -0.518180   -1.104934    0.897710
      6          1           0       -0.518180   -1.104934   -0.897710
 ---------------------------------------------------------------------

 SCF Done:  E(UPM3) =  0.135015895410E-01 A.U. after    2 cycles

 The electronic state is 2-A'.
 Alpha  occ. eigenvalues --   -1.12709  -0.84329  -0.68976  -0.64922  -0.64922
 Alpha  occ. eigenvalues --   -0.48617  -0.48617  -0.29677
 Alpha virt. eigenvalues --    0.09989   0.14941   0.15393   0.15393
  Beta  occ. eigenvalues --   -1.11263  -0.82116  -0.67441  -0.64409  -0.64409
  Beta  occ. eigenvalues --   -0.48010  -0.48010
  Beta virt. eigenvalues --    0.05594   0.14447   0.16273   0.16274   0.19167

 Mulliken charges and spin densities:
               1          2
     1  H   -0.007550   0.503643
     2  F   -0.041713   0.126427
     3  C   -0.059894   0.435875
     4  H    0.036386  -0.021953
     5  H    0.036385  -0.021996
     6  H    0.036385  -0.021996
 Sum of Mulliken charges =   0.00000   1.00000

 Dipole moment (field-independent basis, Debye):
    X=             -0.0005    Y=             -0.5831    Z=              0.0000  Tot=              0.5831
 N-N= 4.414885981326D+01 E-N=-4.087274420644D+01  KE=-3.731370983786D+01
  Exact polarizability:   7.885  -0.031  42.259  -0.000  -0.000   7.885
 Approx polarizability:   4.625  -0.012  17.334  -0.000   0.000   4.625
 Leave Link  601 at Wed Oct 21 14:28:19 2020, MaxMem=  2684354560 cpu:               5.2 elap:               1.3
 (Enter /udrive/faculty/rpeverati/g16/g16/l701.exe)
 ... and contract with generalized density number  0.
 Compute integral second derivatives.
 Leave Link  701 at Wed Oct 21 14:28:21 2020, MaxMem=  2684354560 cpu:               5.5 elap:               1.4
 (Enter /udrive/faculty/rpeverati/g16/g16/l702.exe)
 L702 exits ... SP integral derivatives will be done elsewhere.

 ******    1 imaginary frequencies (negative Signs) ******

                      1                      2                      3
                     A'                     A'                     A"
 Frequencies --   -961.8282               311.7364               311.7649
 Red. masses --      4.3954                 1.1449                 1.1449
 Frc consts  --      2.3958                 0.0656                 0.0656
 IR Inten    --   2753.8533                 4.2820                 4.2846

                      4                      5                      6
                     A'                     A"                     A'
 Frequencies --    829.4093               829.4743              1191.3246
 Red. masses --      1.1838                 1.1838                 1.1113
 Frc consts  --      0.4798                 0.4799                 0.9292
 IR Inten    --      0.0028                 0.0026                36.0162

                      7                      8                      9
                     A"                     A'                     A'
 Frequencies --   1354.4002              1354.4183              1993.9259
 Red. masses --      1.0914                 1.0914                 1.1950
 Frc consts  --      1.1796                 1.1796                 2.7991
 IR Inten    --      0.0372                 0.0373              2434.0469

                     10                     11                     12
                     A"                     A'                     A'
 Frequencies --   3106.5842              3106.5964              3148.9739
 Red. masses --      1.1060                 1.1060                 1.0234
 Frc consts  --      6.2888                 6.2889                 5.9790
 IR Inten    --      0.0071                 0.0071                 1.2813

 - Thermochemistry -
 -------------------
 Temperature   298.150 Kelvin.  Pressure   1.00000 Atm.
 Atom     1 has atomic number  1 and mass   1.00783

 Molecular mass:    35.02970 amu.
 Principal axes and moments of inertia in atomic units:
                           1         2         3
     Eigenvalues --    11.60164  87.04754  87.04766
           X           -0.00015   1.00000   0.00000
           Y            1.00000   0.00015   0.00000
           Z            0.00000   0.00000   1.00000
 This molecule is an asymmetric top.
 Rotational symmetry number  1.
 Rotational temperatures (Kelvin)      7.46566     0.99502     0.99502
 Rotational constants (GHZ):         155.55917    20.73282    20.73279
    1 imaginary frequencies ignored.
 Zero-point vibrational energy     104904.2 (Joules/Mol)
                                   25.07270 (Kcal/Mol)
 Warning -- explicit consideration of   2 degrees of freedom as
           vibrations may cause significant error
 Vibrational temperatures:    448.52   448.56  1193.33  1193.43  1714.05
          (Kelvin)           1948.68  1948.71  2868.81  4469.68  4469.70
                             4530.67

 Zero-point correction=                           0.039956 (Hartree/Particle)
 Thermal correction to Energy=                    0.043776
 Thermal correction to Enthalpy=                  0.044720
 Thermal correction to Gibbs Free Energy=         0.016096
 Sum of electronic and zero-point Energies=              0.053457
 Sum of electronic and thermal Energies=                 0.057278
 Sum of electronic and thermal Enthalpies=               0.058222
 Sum of electronic and thermal Free Energies=            0.029597

                     E (Thermal)             CV                S
                      KCal/Mol        Cal/Mol-Kelvin    Cal/Mol-Kelvin
 Total                   27.470             10.941             60.246
 Electronic               0.000              0.000              1.377
 Translational            0.889              2.981             36.591
 Rotational               0.889              2.981             19.114
 Vibrational             25.693              4.980              3.163
 Vibration     1          0.700              1.651              1.353
 Vibration     2          0.700              1.651              1.353

 Optimization completed.
    -- Stationary point found.
 Normal termination of Gaussian 16 at Wed Oct 21 14:28:32 2020.
