 Gaussian 16, Revision A.03,
 Gaussian 16:  ES64L-G16RevA.03 25-Dec-2016

 ----------------------------------------------------------------------
 #P Opt(MaxCyc=150) PM3 5D 7F Integral=UltraFineGrid SCF=(NoSymm,XQC,Ma
 xCyc=120) IOp(1/33=1)
 ----------------------------------------------------------------------

 TstMul:  Mul=     2
 TstMul:  ICh=     0
 TstMul:  Mul=     2
 Symbolic Z-matrix:
 Charge =  0 Multiplicity = 2

 SCF Done:  E(UPM3) = -0.136860265831E-01 A.U. after   15 cycles
 SCF Done:  E(UPM3) = -0.160241747588E-01 A.U. after   14 cycles
 SCF Done:  E(UPM3) = -0.163116531819E-01 A.U. after   14 cycles
 SCF Done:  E(UPM3) = -0.163127507137E-01 A.U. after   11 cycles
 Optimization completed.
    -- Stationary point found.

                         Standard orientation:
 ---------------------------------------------------------------------
 Center     Atomic      Atomic             Coordinates (Angstroms)
 Number     Number       Type             X           Y           Z
 ---------------------------------------------------------------------
      1          1           0       -0.699625    1.358427    0.000000
      2          6           0        0.049973    0.569173    0.000000
      3          8           0        0.049973   -0.596683    0.000000
 ---------------------------------------------------------------------

 The electronic state is 2-A'.
 Alpha  occ. eigenvalues --   -1.42706  -0.84263  -0.63770  -0.57145  -0.55963
 Alpha  occ. eigenvalues --   -0.33255
 Alpha virt. eigenvalues --    0.02424   0.09777   0.23157
  Beta  occ. eigenvalues --   -1.41834  -0.81093  -0.61422  -0.55403  -0.52139
  Beta virt. eigenvalues --    0.03484   0.04554   0.12478   0.26503

 Mulliken charges and spin densities:
               1          2
     1  H    0.070259   0.171317
     2  C    0.113814   0.645722
     3  O   -0.184073   0.182961
 Sum of Mulliken charges =   0.00000   1.00000

 Dipole moment (field-independent basis, Debye):
    X=             -1.0103    Y=              1.2430    Z=              0.0000  Tot=              1.6018
 N-N= 2.702060038628D+01 E-N=-2.069065107941D+01  KE=-2.509324045187D+01
 Leave Link  601 at Wed Oct 21 14:22:45 2020, MaxMem=  2684354560 cpu:               2.1 elap:               0.7
 (Enter /udrive/faculty/rpeverati/g16/g16/l9999.exe)

 Test job not archived.
 1\1\GINC-NODE59\FOpt\UPM3\ZDO\C1H1O1(2)\RPEVERATI\21-Oct-2020\0\\#P Op
 t(MaxCyc=150) PM3 5D 7F Integral=UltraFineGrid SCF=(NoSymm,XQC,MaxCyc=
 120) IOp(1/33=1)\\TS search on BH76.\\0,2\H,-0.8290236395,1.269218438,
 0.\C,-0.0068413238,0.5558915656,0.\O,0.1055326777,-0.604536308,0.\\Ver
 sion=ES64L-G16RevA.03\State=2-A'\HF=-0.0163128\S2=0.755715\S2-1=0.\S2A

 Normal termination of Gaussian 16 at Wed Oct 21 14:22:47 2020.
