 Gaussian 16, Revision A.03,
 Gaussian 16:  ES64L-G16RevA.03 25-Dec-2016

 ----------------------------------------------------------------------
 #P Opt(MaxCyc=150) PM3 5D 7F Integral=UltraFineGrid SCF=(NoSymm,XQC,Ma
 xCyc=120) IOp(1/33=1)
 ----------------------------------------------------------------------

 TstMul:  Mul=     2
 TstMul:  ICh=     0
 TstMul:  Mul=     2
 Symbolic Z-matrix:
 Charge =  0 Multiplicity = 2

 SCF Done:  E(UPM3) =  0.780225658477E-01 A.U. after   17 cycles
 SCF Done:  E(UPM3) =  0.743821977749E-01 A.U. after   15 cycles
 SCF Done:  E(UPM3) =  0.739146258446E-01 A.U. after   15 cycles
 SCF Done:  E(UPM3) =  0.739118383130E-01 A.U. after   13 cycles
 Optimization completed.
    -- Stationary point found.

                         Standard orientation:
 ---------------------------------------------------------------------
 Center     Atomic      Atomic             Coordinates (Angstroms)
 Number     Number       Type             X           Y           Z
 ---------------------------------------------------------------------
      1          7           0       -0.053035    0.655305    0.000000
      2          7           0       -0.053035   -0.498284    0.000000
      3          1           0        0.742483   -1.099148    0.000000
 ---------------------------------------------------------------------

 The electronic state is 2-A'.
 Alpha  occ. eigenvalues --   -1.18411  -0.76744  -0.55870  -0.52165  -0.50785
 Alpha  occ. eigenvalues --   -0.34097
 Alpha virt. eigenvalues --    0.02328   0.09076   0.24789
  Beta  occ. eigenvalues --   -1.17013  -0.74708  -0.51390  -0.51153  -0.48577
  Beta virt. eigenvalues --    0.00398   0.03271   0.12539   0.26877

 Mulliken charges and spin densities:
               1          2
     1  N   -0.230064   0.627873
     2  N    0.181018   0.193508
     3  H    0.049046   0.178619
 Sum of Mulliken charges =   0.00000   1.00000

 Dipole moment (field-independent basis, Debye):
    X=              1.1203    Y=             -2.0169    Z=              0.0000  Tot=              2.3072
 N-N= 2.424017920800D+01 E-N=-2.121052790263D+01  KE=-1.981288859065D+01
 Leave Link  601 at Wed Oct 21 14:23:31 2020, MaxMem=  2684354560 cpu:               2.4 elap:               0.9
 (Enter /udrive/faculty/rpeverati/g16/g16/l9999.exe)

 Test job not archived.
 1\1\GINC-NODE19\FOpt\UPM3\ZDO\H1N2(2)\RPEVERATI\21-Oct-2020\0\\#P Opt(
 MaxCyc=150) PM3 5D 7F Integral=UltraFineGrid SCF=(NoSymm,XQC,MaxCyc=12
 0) IOp(1/33=1)\\TS search on BH76.\\0,2\N,-0.0987882663,0.661016329,0.
 \N,0.0016452311,-0.4881931025,0.\H,0.8464547907,-1.0175159991,0.\\Vers
 ion=ES64L-G16RevA.03\State=2-A'\HF=0.0739118\S2=0.755937\S2-1=0.\S2A=0

 Normal termination of Gaussian 16 at Wed Oct 21 14:23:34 2020.
