 Gaussian 16, Revision A.03,

 ----------------------------------------------------------------------
 #P Opt(TS,MaxCyc=50,NoEigenTest,MaxStep=10,AddRedundant) PM3 5D 7F Int
 egral=UltraFineGrid SCF=(NoSymm,XQC,MaxCyc=120) IOp(1/33=1)
 ----------------------------------------------------------------------

 TstMul:  Mul=     1
 TstMul:  ICh=    -1
 TstMul:  Mul=     1
 Symbolic Z-matrix:
 Charge = -1 Multiplicity = 1

 SCF Done:  E(RPM3) = -0.669020846901E-01 A.U. after   13 cycles
 SCF Done:  E(RPM3) = -0.701912039726E-01 A.U. after   12 cycles
 SCF Done:  E(RPM3) = -0.682979515218E-01 A.U. after   12 cycles
 SCF Done:  E(RPM3) = -0.692834840395E-01 A.U. after   12 cycles
 SCF Done:  E(RPM3) = -0.703248572478E-01 A.U. after   10 cycles
 SCF Done:  E(RPM3) = -0.710529151535E-01 A.U. after   11 cycles
 SCF Done:  E(RPM3) = -0.713747293037E-01 A.U. after   11 cycles
 SCF Done:  E(RPM3) = -0.713914605455E-01 A.U. after   10 cycles
 SCF Done:  E(RPM3) = -0.713953556497E-01 A.U. after    8 cycles
 SCF Done:  E(RPM3) = -0.714336405964E-01 A.U. after   11 cycles
 SCF Done:  E(RPM3) = -0.714710929753E-01 A.U. after   11 cycles
 SCF Done:  E(RPM3) = -0.714574499519E-01 A.U. after   11 cycles
 SCF Done:  E(RPM3) = -0.714699504461E-01 A.U. after   11 cycles
 SCF Done:  E(RPM3) = -0.714945418020E-01 A.U. after   11 cycles
 SCF Done:  E(RPM3) = -0.714968583555E-01 A.U. after   10 cycles
 SCF Done:  E(RPM3) = -0.714973486454E-01 A.U. after    9 cycles
 Optimization completed.
    -- Stationary point found.
 Normal termination of Gaussian 16 at Wed Oct 21 14:26:42 2020.
 Gaussian 16:  ES64L-G16RevA.03 25-Dec-2016

 ----------------------------------------------------------------------
 #P Freq PM3 5D 7F Integral=UltraFineGrid SCF=(NoSymm,XQC,MaxCyc=120) I
 Op(1/33=1) Geom=Check Guess=Read
 ----------------------------------------------------------------------

 TstMul:  Mul=     1
 TstMul:  ICh=    -1
 TstMul:  Mul=     1
 Structure from the checkpoint file:  "MN_63_hoch3fts_BH76_PM3_SE.chk"
 Charge = -1 Multiplicity = 1

                         Standard orientation:
 ---------------------------------------------------------------------
 Center     Atomic      Atomic             Coordinates (Angstroms)
 Number     Number       Type             X           Y           Z
 ---------------------------------------------------------------------
      1          9           0        1.732893   -0.001731   -0.000010
      2          6           0        0.027568   -0.009226    0.000008
      3          1           0        0.008821    1.078141   -0.004849
      4          1           0        0.071846   -0.561047   -0.937436
      5          1           0        0.072011   -0.553012    0.942097
      6          8           0       -1.726643    0.108069    0.000065
      7          1           0       -2.100977   -0.757704   -0.000288
 ---------------------------------------------------------------------

 SCF Done:  E(RPM3) = -0.714973486454E-01 A.U. after    2 cycles

 The electronic state is 1-A.
 Alpha  occ. eigenvalues --   -1.05795  -0.80647  -0.39451  -0.36738  -0.34833
 Alpha  occ. eigenvalues --   -0.30984  -0.27688  -0.22380  -0.21397  -0.16743
 Alpha  occ. eigenvalues --   -0.11689
 Alpha virt. eigenvalues --    0.30834   0.33948   0.37730   0.38311   0.44244

 Mulliken charges:
               1
     1  F   -0.678672
     2  C    0.302592
     3  H    0.023035
     4  H    0.001400
     5  H    0.001562
     6  O   -0.759304
     7  H    0.109388
 Sum of Mulliken charges =  -1.00000

 Dipole moment (field-independent basis, Debye):
    X=             -0.6581    Y=             -1.2833    Z=             -0.0005  Tot=              1.4422
 N-N= 7.187217614390D+01 E-N=-7.694416230345D+01  KE=-5.837629563167D+01
  Exact polarizability:  42.973   1.624  12.025   0.002   0.001   8.270
 Approx polarizability:  30.139   0.391   7.271   0.001   0.001   4.654
 Leave Link  601 at Wed Oct 21 14:27:04 2020, MaxMem=  2684354560 cpu:               5.9 elap:               1.0
 (Enter /udrive/faculty/rpeverati/g16/g16/l701.exe)
 ... and contract with generalized density number  0.
 Compute integral second derivatives.
 Leave Link  701 at Wed Oct 21 14:27:06 2020, MaxMem=  2684354560 cpu:               4.5 elap:               1.0
 (Enter /udrive/faculty/rpeverati/g16/g16/l702.exe)
 L702 exits ... SP integral derivatives will be done elsewhere.

 ******    1 imaginary frequencies (negative Signs) ******

                      1                      2                      3
                      A                      A                      A
 Frequencies --   -920.3638               183.7052               252.7312
 Red. masses --      9.8772                 1.0708                 3.6841
 Frc consts  --      4.9295                 0.0213                 0.1386
 IR Inten    --   2361.6694                58.9442                29.2598

                      4                      5                      6
                      A                      A                      A
 Frequencies --    272.1016               332.2005               801.1698
 Red. masses --      4.0583                10.2967                 1.0615
 Frc consts  --      0.1770                 0.6695                 0.4014
 IR Inten    --     32.5165                26.3315                10.0488

                      7                      8                      9
                      A                      A                      A
 Frequencies --    887.2107               925.2582              1027.8476
 Red. masses --      1.0214                 1.1089                 1.0577
 Frc consts  --      0.4737                 0.5593                 0.6584
 IR Inten    --      0.0014                 9.1964                35.3988

                     10                     11                     12
                      A                      A                      A
 Frequencies --   1212.6103              1223.2431              2956.3158
 Red. masses --      1.1320                 1.1499                 1.0083
 Frc consts  --      0.9807                 1.0138                 5.1922
 IR Inten    --      5.4941                12.2652                 1.6299

                     13                     14                     15
                      A                      A                      A
 Frequencies --   3073.4458              3091.1371              3940.7508
 Red. masses --      1.1209                 1.1213                 1.0657
 Frc consts  --      6.2384                 6.3128                 9.7506
 IR Inten    --     22.9598                11.6330                35.0093

 - Thermochemistry -
 -------------------
 Temperature   298.150 Kelvin.  Pressure   1.00000 Atm.
 Atom     1 has atomic number  9 and mass  18.99840

 Molecular mass:    51.02462 amu.
 Principal axes and moments of inertia in atomic units:
                           1         2         3
     Eigenvalues --    15.38565 395.47229 398.14368
           X            0.99989   0.01473   0.00001
           Y           -0.01473   0.99989  -0.00004
           Z           -0.00001   0.00004   1.00000
 This molecule is an asymmetric top.
 Rotational symmetry number  1.
 Rotational temperatures (Kelvin)      5.62953     0.21901     0.21754
 Rotational constants (GHZ):         117.30031     4.56351     4.53289
    1 imaginary frequencies ignored.
 Zero-point vibrational energy     120701.6 (Joules/Mol)
                                   28.84837 (Kcal/Mol)
 Warning -- explicit consideration of   4 degrees of freedom as
           vibrations may cause significant error
 Vibrational temperatures:    264.31   363.62   391.49   477.96  1152.70
          (Kelvin)           1276.50  1331.24  1478.84  1744.68  1759.97
                             4253.48  4422.00  4447.46  5669.86

 Zero-point correction=                           0.045973 (Hartree/Particle)
 Thermal correction to Energy=                    0.050960
 Thermal correction to Enthalpy=                  0.051905
 Thermal correction to Gibbs Free Energy=         0.019788
 Sum of electronic and zero-point Energies=             -0.025525
 Sum of electronic and thermal Energies=                -0.020537
 Sum of electronic and thermal Enthalpies=              -0.019593
 Sum of electronic and thermal Free Energies=           -0.051710

                     E (Thermal)             CV                S
                      KCal/Mol        Cal/Mol-Kelvin    Cal/Mol-Kelvin
 Total                   31.978             15.286             67.596
 Electronic               0.000              0.000              0.000
 Translational            0.889              2.981             37.712
 Rotational               0.889              2.981             22.409
 Vibrational             30.201              9.324              7.474
 Vibration     1          0.631              1.862              2.290
 Vibration     2          0.664              1.758              1.711
 Vibration     3          0.675              1.725              1.583
 Vibration     4          0.714              1.611              1.249

                           ! Non-Optimized Parameters !
 Normal termination of Gaussian 16 at Wed Oct 21 14:27:13 2020.
