 Gaussian 16, Revision A.03,
 Gaussian 16:  ES64L-G16RevA.03 25-Dec-2016

 ----------------------------------------------------------------------
 #P Opt(MaxCyc=150) PM3 5D 7F Integral=UltraFineGrid SCF=(NoSymm,XQC,Ma
 xCyc=120) IOp(1/33=1)
 ----------------------------------------------------------------------

 TstMul:  Mul=     1
 TstMul:  ICh=     0
 TstMul:  Mul=     1
 Symbolic Z-matrix:
 Charge =  0 Multiplicity = 1

 SCF Done:  E(RPM3) =  0.906237709915E-01 A.U. after   12 cycles
 SCF Done:  E(RPM3) =  0.901988732724E-01 A.U. after    8 cycles
 SCF Done:  E(RPM3) =  0.901942251678E-01 A.U. after    7 cycles
 Optimization completed.
    -- Stationary point found.

                         Standard orientation:
 ---------------------------------------------------------------------
 Center     Atomic      Atomic             Coordinates (Angstroms)
 Number     Number       Type             X           Y           Z
 ---------------------------------------------------------------------
      1          6           0        0.000000    0.000000   -0.742587
      2          7           0        0.000000    0.000000    0.434980
      3          1           0        0.000000    0.000000    1.410664
 ---------------------------------------------------------------------

 The electronic state is 1-SG.
 Alpha  occ. eigenvalues --   -1.16028  -0.76158  -0.46877  -0.46877  -0.43444
 Alpha virt. eigenvalues --    0.06135   0.07049   0.07049   0.26202

 Mulliken charges:
               1
     1  C   -0.145045
     2  N   -0.020662
     3  H    0.165707
 Sum of Mulliken charges =   0.00000

 Dipole moment (field-independent basis, Debye):
    X=             -0.0000    Y=             -0.0000    Z=              3.2535  Tot=              3.2535
 N-N= 2.046107877697D+01 E-N=-1.707887769671D+01  KE=-1.707521985234D+01
 Leave Link  601 at Wed Oct 21 14:23:18 2020, MaxMem=  2684354560 cpu:               2.8 elap:               0.8
 (Enter /udrive/faculty/rpeverati/g16/g16/l9999.exe)

 Test job not archived.
 1\1\GINC-NODE59\FOpt\RPM3\ZDO\C1H1N1\RPEVERATI\21-Oct-2020\0\\#P Opt(M
 axCyc=150) PM3 5D 7F Integral=UltraFineGrid SCF=(NoSymm,XQC,MaxCyc=120
 ) IOp(1/33=1)\\TS search on BH76.\\0,1\C,0.,0.,-0.7383459158\N,0.,0.,0
 .4392205688\H,0.,0.,1.4149050212\\Version=ES64L-G16RevA.03\State=1-SG\
 HF=0.0901942\RMSD=7.387e-09\RMSF=3.901e-05\Dipole=0.,0.,1.2800134\PG=C

 Normal termination of Gaussian 16 at Wed Oct 21 14:23:20 2020.
