 Gaussian 16, Revision A.03,
 Gaussian 16:  ES64L-G16RevA.03 25-Dec-2016

 ----------------------------------------------------------------------
 #P Opt(MaxCyc=150) PM3 5D 7F Integral=UltraFineGrid SCF=(NoSymm,XQC,Ma
 xCyc=120) IOp(1/33=1)
 ----------------------------------------------------------------------

 TstMul:  Mul=     1
 TstMul:  ICh=     0
 TstMul:  Mul=     1
 Symbolic Z-matrix:
 Charge =  0 Multiplicity = 1

 SCF Done:  E(RPM3) =  0.279857316453E-01 A.U. after    6 cycles
 SCF Done:  E(RPM3) =  0.279833548205E-01 A.U. after    4 cycles
 Optimization completed.
    -- Stationary point found.

                         Standard orientation:
 ---------------------------------------------------------------------
 Center     Atomic      Atomic             Coordinates (Angstroms)
 Number     Number       Type             X           Y           Z
 ---------------------------------------------------------------------
      1          7           0        0.000000    0.000000    0.548993
      2          7           0        0.000000    0.000000   -0.548993
 ---------------------------------------------------------------------

 The electronic state is 1-SGG.
 Alpha  occ. eigenvalues --   -1.19461  -0.56925  -0.56925  -0.56123  -0.50729
 Alpha virt. eigenvalues --    0.02032   0.02032   0.23452

 Mulliken charges:
               1
     1  N    0.000000
     2  N   -0.000000
 Sum of Mulliken charges =  -0.00000

 Dipole moment (field-independent basis, Debye):
    X=              0.0000    Y=             -0.0000    Z=              0.0000  Tot=              0.0000
 N-N= 2.078716333602D+01 E-N=-1.562897988867D+01  KE=-1.908609823300D+01
 Leave Link  601 at Wed Oct 21 14:23:42 2020, MaxMem=  2684354560 cpu:               4.3 elap:               1.2
 (Enter /udrive/faculty/rpeverati/g16/g16/l9999.exe)

 Test job not archived.
 1\1\GINC-NODE60\FOpt\RPM3\ZDO\N2\RPEVERATI\21-Oct-2020\0\\#P Opt(MaxCy
 c=150) PM3 5D 7F Integral=UltraFineGrid SCF=(NoSymm,XQC,MaxCyc=120) IO
 p(1/33=1)\\TS search on BH76.\\0,1\N,0.,0.,0.5489928074\N,0.,0.,-0.548
 9928074\\Version=ES64L-G16RevA.03\State=1-SGG\HF=0.0279834\RMSD=2.054e
 -10\RMSF=5.113e-05\Dipole=0.,0.,0.\PG=D*H [C*(N1.N1)]\\@

 Normal termination of Gaussian 16 at Wed Oct 21 14:23:44 2020.
