 Gaussian 16, Revision A.03,

 ----------------------------------------------------------------------
 #P Opt(TS,MaxCyc=50,NoEigenTest,MaxStep=10,AddRedundant) PM3 5D 7F Int
 egral=UltraFineGrid SCF=(NoSymm,XQC,MaxCyc=120) IOp(1/33=1)
 ----------------------------------------------------------------------

 TstMul:  Mul=     2
 TstMul:  ICh=     0
 TstMul:  Mul=     2
 Symbolic Z-matrix:
 Charge =  0 Multiplicity = 2

 SCF Done:  E(UPM3) =  0.136744036099     A.U. after   21 cycles
 SCF Done:  E(UPM3) =  0.134101085436     A.U. after   18 cycles
 SCF Done:  E(UPM3) =  0.136388931587     A.U. after   18 cycles
 SCF Done:  E(UPM3) =  0.135852250012     A.U. after   17 cycles
 SCF Done:  E(UPM3) =  0.135418354334     A.U. after   18 cycles
 SCF Done:  E(UPM3) =  0.135339919353     A.U. after   17 cycles
 SCF Done:  E(UPM3) =  0.135319891192     A.U. after   16 cycles
 SCF Done:  E(UPM3) =  0.135315492487     A.U. after   15 cycles
 SCF Done:  E(UPM3) =  0.135315070866     A.U. after   15 cycles
 Optimization completed.
    -- Stationary point found.
 Normal termination of Gaussian 16 at Wed Oct 21 14:25:19 2020.
 Gaussian 16:  ES64L-G16RevA.03 25-Dec-2016

 ----------------------------------------------------------------------
 #P Freq PM3 5D 7F Integral=UltraFineGrid SCF=(NoSymm,XQC,MaxCyc=120) I
 Op(1/33=1) Geom=Check Guess=Read
 ----------------------------------------------------------------------

 TstMul:  Mul=     2
 TstMul:  ICh=     0
 TstMul:  Mul=     2
 Structure from the checkpoint file:  "MN_68_n2ohts_BH76_PM3_SE.chk"
 Charge =  0 Multiplicity = 2

                         Standard orientation:
 ---------------------------------------------------------------------
 Center     Atomic      Atomic             Coordinates (Angstroms)
 Number     Number       Type             X           Y           Z
 ---------------------------------------------------------------------
      1          1           0       -0.226146   -2.054343    0.000000
      2          8           0       -0.702867   -0.797898    0.000000
      3          7           0        0.000000    0.224607    0.000000
      4          7           0        0.835583    0.980754    0.000000
 ---------------------------------------------------------------------

 SCF Done:  E(UPM3) =  0.135315070866     A.U. after    2 cycles

 The electronic state is 2-A'.
 Alpha  occ. eigenvalues --   -1.34927  -1.19570  -0.80766  -0.65442  -0.63674
 Alpha  occ. eigenvalues --   -0.54723  -0.49346  -0.45225  -0.33882
 Alpha virt. eigenvalues --    0.00239   0.01112   0.08078   0.27811
  Beta  occ. eigenvalues --   -1.34177  -1.19036  -0.79546  -0.64202  -0.63557
  Beta  occ. eigenvalues --   -0.53690  -0.46876  -0.45061
  Beta virt. eigenvalues --   -0.00983   0.01455   0.07244   0.13362   0.28793

 Mulliken charges and spin densities:
               1          2
     1  H   -0.021707   0.709782
     2  O   -0.379397   0.005683
     3  N    0.772667   0.055192
     4  N   -0.371562   0.229343
 Sum of Mulliken charges =   0.00000   1.00000

 Dipole moment (field-independent basis, Debye):
    X=             -0.4555    Y=              0.0089    Z=              0.0000  Tot=              0.4556
 N-N= 5.216240280187D+01 E-N=-5.386963966186D+01  KE=-3.764754276824D+01
  Exact polarizability:  17.055  15.217  52.089  -0.000  -0.000   3.468
 Approx polarizability:  18.442  17.730  34.672  -0.000  -0.000   2.051
 Leave Link  601 at Wed Oct 21 14:25:41 2020, MaxMem=  2684354560 cpu:               2.1 elap:               0.8
 (Enter /udrive/faculty/rpeverati/g16/g16/l701.exe)
 ... and contract with generalized density number  0.
 Compute integral second derivatives.
 Leave Link  701 at Wed Oct 21 14:25:43 2020, MaxMem=  2684354560 cpu:               4.2 elap:               0.9
 (Enter /udrive/faculty/rpeverati/g16/g16/l702.exe)
 L702 exits ... SP integral derivatives will be done elsewhere.

 ******    1 imaginary frequencies (negative Signs) ******

                      1                      2                      3
                     A'                     A'                     A"
 Frequencies --  -2275.9299               321.3127               459.7936
 Red. masses --      1.1679                 2.2623                 5.9826
 Frc consts  --      3.5643                 0.1376                 0.7452
 IR Inten    --   1911.3621                32.6252                70.0820

                      4                      5                      6
                     A'                     A'                     A'
 Frequencies --    669.3826              1205.1800              2371.3656
 Red. masses --      1.7905                 7.6358                13.7998
 Frc consts  --      0.4727                 6.5345                45.7215
 IR Inten    --      2.9664               110.3169               873.7524

 - Thermochemistry -
 -------------------
 Temperature   298.150 Kelvin.  Pressure   1.00000 Atm.
 Atom     1 has atomic number  1 and mass   1.00783

 Molecular mass:    45.00889 amu.
 Principal axes and moments of inertia in atomic units:
                           1         2         3
     Eigenvalues --     5.48387 159.67134 165.15521
           X            0.61241   0.79054   0.00000
           Y            0.79054  -0.61241   0.00000
           Z            0.00000   0.00000   1.00000
 This molecule is an asymmetric top.
 Rotational symmetry number  1.
 Rotational temperatures (Kelvin)     15.79430     0.54245     0.52444
 Rotational constants (GHZ):         329.09986    11.30285    10.92755
    1 imaginary frequencies ignored.
 Zero-point vibrational energy      30068.3 (Joules/Mol)
                                    7.18651 (Kcal/Mol)
 Warning -- explicit consideration of   2 degrees of freedom as
           vibrations may cause significant error
 Vibrational temperatures:    462.30   661.54   963.09  1733.99  3411.87
          (Kelvin)

 Zero-point correction=                           0.011452 (Hartree/Particle)
 Thermal correction to Energy=                    0.015077
 Thermal correction to Enthalpy=                  0.016021
 Thermal correction to Gibbs Free Energy=        -0.012857
 Sum of electronic and zero-point Energies=              0.146767
 Sum of electronic and thermal Energies=                 0.150392
 Sum of electronic and thermal Enthalpies=               0.151336
 Sum of electronic and thermal Free Energies=            0.122458

                     E (Thermal)             CV                S
                      KCal/Mol        Cal/Mol-Kelvin    Cal/Mol-Kelvin
 Total                    9.461             10.027             60.780
 Electronic               0.000              0.000              1.377
 Translational            0.889              2.981             37.338
 Rotational               0.889              2.981             19.609
 Vibrational              7.683              4.065              2.455
 Vibration     1          0.707              1.633              1.303
 Vibration     2          0.818              1.339              0.767

 Optimization completed.
    -- Stationary point found.
 Normal termination of Gaussian 16 at Wed Oct 21 14:25:50 2020.
