 Gaussian 16, Revision A.03,
 Gaussian 16:  ES64L-G16RevA.03 25-Dec-2016

 ----------------------------------------------------------------------
 #P Opt(MaxCyc=150) PM3 5D 7F Integral=UltraFineGrid SCF=(NoSymm,XQC,Ma
 xCyc=120) IOp(1/33=1)
 ----------------------------------------------------------------------

 TstMul:  Mul=     2
 TstMul:  ICh=     0
 TstMul:  Mul=     2
 Symbolic Z-matrix:
 Charge =  0 Multiplicity = 2

 SCF Done:  E(UPM3) =  0.601948636829E-01 A.U. after   10 cycles
 SCF Done:  E(UPM3) =  0.599933248135E-01 A.U. after    8 cycles
 SCF Done:  E(UPM3) =  0.598525731057E-01 A.U. after    8 cycles
 Optimization completed.
    -- Stationary point found.

                         Standard orientation:
 ---------------------------------------------------------------------
 Center     Atomic      Atomic             Coordinates (Angstroms)
 Number     Number       Type             X           Y           Z
 ---------------------------------------------------------------------
      1         16           0        0.000000    0.000000    0.076242
      2          1           0        0.000000    0.000000   -1.219877
 ---------------------------------------------------------------------

 Unable to determine electronic state:  partially filled degenerate orbitals.
 Alpha  occ. eigenvalues --   -0.98729  -0.52175  -0.45358  -0.38016
 Alpha virt. eigenvalues --    0.02320
  Beta  occ. eigenvalues --   -0.86777  -0.47408  -0.33934
  Beta virt. eigenvalues --   -0.08315   0.03841

 Mulliken charges and spin densities:
               1          2
     1  S    0.002103   1.089905
     2  H   -0.002103  -0.089905
 Sum of Mulliken charges =   0.00000   1.00000

 Dipole moment (field-independent basis, Debye):
    X=             -0.0000    Y=             -0.0000    Z=             -1.3499  Tot=              1.3499
 N-N= 9.248837619471D+00 E-N=-3.366411990929D+00  KE=-1.098760100634D+01
 Leave Link  601 at Wed Oct 21 14:23:57 2020, MaxMem=  2684354560 cpu:               5.5 elap:               1.5
 (Enter /udrive/faculty/rpeverati/g16/g16/l9999.exe)

 Test job not archived.
 1\1\GINC-NODE51\FOpt\UPM3\ZDO\H1S1(2)\RPEVERATI\21-Oct-2020\0\\#P Opt(
 MaxCyc=150) PM3 5D 7F Integral=UltraFineGrid SCF=(NoSymm,XQC,MaxCyc=12
 0) IOp(1/33=1)\\TS search on BH76.\\0,2\S,0.,0.,0.0567933562\H,0.,0.,-
 1.2393260897\\Version=ES64L-G16RevA.03\HF=0.0598526\S2=0.75811\S2-1=0.
 \S2A=0.75\RMSD=2.160e-10\RMSF=8.900e-05\Dipole=0.,0.,-0.5311098\PG=C*V

 Normal termination of Gaussian 16 at Wed Oct 21 14:24:00 2020.
