 Gaussian 16, Revision A.03,
 Gaussian 16:  ES64L-G16RevA.03 25-Dec-2016

 ----------------------------------------------------------------------
 #P Opt(MaxCyc=150) PM3 5D 7F Integral=UltraFineGrid SCF=(NoSymm,XQC,Ma
 xCyc=120) IOp(1/33=1)
 ----------------------------------------------------------------------

 TstMul:  Mul=     1
 TstMul:  ICh=     0
 TstMul:  Mul=     1
 Symbolic Z-matrix:
 Charge =  0 Multiplicity = 1

 SCF Done:  E(RPM3) =  0.406695414903E-01 A.U. after   11 cycles
 SCF Done:  E(RPM3) =  0.404414812477E-01 A.U. after   10 cycles
 SCF Done:  E(RPM3) =  0.404377591073E-01 A.U. after    8 cycles
 Optimization completed.
    -- Stationary point found.

                         Standard orientation:
 ---------------------------------------------------------------------
 Center     Atomic      Atomic             Coordinates (Angstroms)
 Number     Number       Type             X           Y           Z
 ---------------------------------------------------------------------
      1          7           0        0.000000    0.000000   -1.201835
      2          7           0        0.000000    0.000000   -0.077740
      3          8           0        0.000000    0.000000    1.119628
 ---------------------------------------------------------------------

 The electronic state is 1-SG.
 Alpha  occ. eigenvalues --   -1.37089  -1.20295  -0.77824  -0.65184  -0.65184
 Alpha  occ. eigenvalues --   -0.54254  -0.44664  -0.44664
 Alpha virt. eigenvalues --    0.01618   0.01618   0.07793   0.29040

 Mulliken charges:
               1
     1  N   -0.452399
     2  N    0.954499
     3  O   -0.502100
 Sum of Mulliken charges =  -0.00000

 Dipole moment (field-independent basis, Debye):
    X=              0.0000    Y=             -0.0000    Z=              0.2661  Tot=              0.2661
 N-N= 4.810645897272D+01 E-N=-4.666988187085D+01  KE=-3.727899999648D+01
 Leave Link  601 at Wed Oct 21 14:23:39 2020, MaxMem=  2684354560 cpu:               3.2 elap:               0.9
 (Enter /udrive/faculty/rpeverati/g16/g16/l9999.exe)

 Test job not archived.
 1\1\GINC-NODE20\FOpt\RPM3\ZDO\N2O1\RPEVERATI\21-Oct-2020\0\\#P Opt(Max
 Cyc=150) PM3 5D 7F Integral=UltraFineGrid SCF=(NoSymm,XQC,MaxCyc=120)
 IOp(1/33=1)\\TS search on BH76.\\0,1\N,0.,0.,-1.2014690827\N,0.,0.,-0.
 0773732833\O,0.,0.,1.1199944802\\Version=ES64L-G16RevA.03\State=1-SG\H
 F=0.0404378\RMSD=5.285e-09\RMSF=2.551e-04\Dipole=0.,0.,0.1046928\PG=C*

 Normal termination of Gaussian 16 at Wed Oct 21 14:23:41 2020.
