 Gaussian 16, Revision A.03,
 Gaussian 16:  ES64L-G16RevA.03 25-Dec-2016

 ----------------------------------------------------------------------
 #P Opt(MaxCyc=150) PM3 5D 7F Integral=UltraFineGrid SCF=(NoSymm,XQC,Ma
 xCyc=120) IOp(1/33=1)
 ----------------------------------------------------------------------

 TstMul:  Mul=     1
 TstMul:  ICh=    -1
 TstMul:  Mul=     1
 Symbolic Z-matrix:
 Charge = -1 Multiplicity = 1

 SCF Done:  E(RPM3) = -0.177579435638     A.U. after   12 cycles
 SCF Done:  E(RPM3) = -0.177118412064     A.U. after   12 cycles
 SCF Done:  E(RPM3) = -0.177802880487     A.U. after   11 cycles
 SCF Done:  E(RPM3) = -0.177943948301     A.U. after   11 cycles
 SCF Done:  E(RPM3) = -0.178177499566     A.U. after   10 cycles
 SCF Done:  E(RPM3) = -0.178589523522     A.U. after   11 cycles
 SCF Done:  E(RPM3) = -0.135723094925     A.U. after   12 cycles
 SCF Done:  E(RPM3) = -0.178480579583     A.U. after   12 cycles
 SCF Done:  E(RPM3) = -0.179298671029     A.U. after    9 cycles
 SCF Done:  E(RPM3) = -0.179444241498     A.U. after   10 cycles
 SCF Done:  E(RPM3) = -0.179468363680     A.U. after   10 cycles
 SCF Done:  E(RPM3) = -0.179495825625     A.U. after   10 cycles
 SCF Done:  E(RPM3) = -0.179496676867     A.U. after    9 cycles
 Optimization completed.
    -- Stationary point found.

                         Standard orientation:
 ---------------------------------------------------------------------
 Center     Atomic      Atomic             Coordinates (Angstroms)
 Number     Number       Type             X           Y           Z
 ---------------------------------------------------------------------
      1          6           0       -1.324564   -0.410542   -0.000020
      2          8           0       -0.541279    0.722388    0.000034
      3          1           0       -2.371538   -0.079821   -0.005154
      4          1           0       -1.159790   -1.040321   -0.886729
      5          1           0       -1.167008   -1.034903    0.891864
      6          1           0        0.422267    0.425646   -0.000281
      7          9           0        1.839299   -0.176272    0.000017
 ---------------------------------------------------------------------

 The electronic state is 1-A.
 Alpha  occ. eigenvalues --   -1.18756  -0.78301  -0.46675  -0.38334  -0.37840
 Alpha  occ. eigenvalues --   -0.31060  -0.25734  -0.20106  -0.16826  -0.16823
 Alpha  occ. eigenvalues --   -0.14896
 Alpha virt. eigenvalues --    0.30565   0.32420   0.32977   0.37266   0.43641

 Mulliken charges:
               1
     1  C    0.136893
     2  O   -0.489658
     3  H   -0.034994
     4  H   -0.029772
     5  H   -0.030086
     6  H    0.276247
     7  F   -0.828630
 Sum of Mulliken charges =  -1.00000

 Dipole moment (field-independent basis, Debye):
    X=             -5.5408    Y=             -0.8134    Z=             -0.0017  Tot=              5.6002
 N-N= 7.167966513086D+01 E-N=-7.618908945424D+01  KE=-5.862221209988D+01
 Leave Link  601 at Wed Oct 21 14:28:02 2020, MaxMem=  2684354560 cpu:               2.4 elap:               1.5
 (Enter /udrive/faculty/rpeverati/g16/g16/l9999.exe)

 Test job not archived.
 1\1\GINC-NODE56\FOpt\RPM3\ZDO\C1H4F1O1(1-)\RPEVERATI\21-Oct-2020\0\\#P
  Opt(MaxCyc=150) PM3 5D 7F Integral=UltraFineGrid SCF=(NoSymm,XQC,MaxC
 yc=120) IOp(1/33=1)\\TS search on BH76.\\-1,1\C,-1.3069207049,-0.40488
 91403,0.0018338928\O,-0.5077606127,0.716824019,-0.0111900502\H,-2.3491
 324468,-0.059548542,-0.0077230866\H,-1.1507572041,-1.0474129205,-0.877

 Normal termination of Gaussian 16 at Wed Oct 21 14:28:05 2020.
