 Gaussian 16, Revision A.03,
 Gaussian 16:  ES64L-G16RevA.03 25-Dec-2016

 ----------------------------------------------------------------------
 #P Opt(MaxCyc=150) PM3 5D 7F Integral=UltraFineGrid SCF=(NoSymm,XQC,Ma
 xCyc=120) IOp(1/33=1)
 ----------------------------------------------------------------------

 TstMul:  Mul=     1
 TstMul:  ICh=    -1
 TstMul:  Mul=     1
 Symbolic Z-matrix:
 Charge = -1 Multiplicity = 1

 SCF Done:  E(RPM3) = -0.120775197214     A.U. after   13 cycles
 SCF Done:  E(RPM3) = -0.124638633925     A.U. after   12 cycles
 SCF Done:  E(RPM3) = -0.124924852798     A.U. after   11 cycles
 SCF Done:  E(RPM3) = -0.125017236134     A.U. after   11 cycles
 SCF Done:  E(RPM3) = -0.125023207284     A.U. after   10 cycles
 SCF Done:  E(RPM3) = -0.125028767914     A.U. after   11 cycles
 SCF Done:  E(RPM3) = -0.125030361751     A.U. after   10 cycles
 SCF Done:  E(RPM3) = -0.125036202522     A.U. after   11 cycles
 SCF Done:  E(RPM3) = -0.125065188901     A.U. after   12 cycles
 SCF Done:  E(RPM3) = -0.125094343909     A.U. after   11 cycles
 SCF Done:  E(RPM3) = -0.146137270210     A.U. after   12 cycles
 SCF Done:  E(RPM3) = -0.146157917457     A.U. after   12 cycles
 SCF Done:  E(RPM3) = -0.146156931378     A.U. after   11 cycles
 SCF Done:  E(RPM3) = -0.146161485455     A.U. after   11 cycles
 SCF Done:  E(RPM3) = -0.146161966922     A.U. after    9 cycles
 SCF Done:  E(RPM3) = -0.146162681841     A.U. after   10 cycles
 SCF Done:  E(RPM3) = -0.146163411239     A.U. after   10 cycles
 SCF Done:  E(RPM3) = -0.146164634636     A.U. after   10 cycles
 SCF Done:  E(RPM3) = -0.146165888535     A.U. after   10 cycles
 SCF Done:  E(RPM3) = -0.146166749829     A.U. after   10 cycles
 Optimization completed.
    -- Stationary point found.

                         Standard orientation:
 ---------------------------------------------------------------------
 Center     Atomic      Atomic             Coordinates (Angstroms)
 Number     Number       Type             X           Y           Z
 ---------------------------------------------------------------------
      1          9           0        1.515366   -0.495968    0.000106
      2          6           0        0.646595    0.551188   -0.000061
      3          1           0       -0.505442    0.233091   -0.000353
      4          1           0        0.866310    1.147061    0.887694
      5          1           0        0.865435    1.146077   -0.888553
      6          8           0       -2.095352   -0.048571    0.000198
      7          1           0       -1.981348   -0.981077   -0.000963
 ---------------------------------------------------------------------

 The electronic state is 1-A.
 Alpha  occ. eigenvalues --   -0.97795  -0.90341  -0.55261  -0.47382  -0.46496
 Alpha  occ. eigenvalues --   -0.45044  -0.28644  -0.26326  -0.24688  -0.10511
 Alpha  occ. eigenvalues --   -0.08944
 Alpha virt. eigenvalues --    0.30128   0.33208   0.33813   0.39365   0.50547

 Mulliken charges:
               1
     1  F   -0.198214
     2  C   -0.211661
     3  H    0.247809
     4  H   -0.004473
     5  H   -0.004543
     6  O   -0.915833
     7  H    0.086914
 Sum of Mulliken charges =  -1.00000

 Dipole moment (field-independent basis, Debye):
    X=              6.3168    Y=             -0.1151    Z=             -0.0029  Tot=              6.3178
 N-N= 6.982335961025D+01 E-N=-7.256765461733D+01  KE=-5.774272548470D+01
 Leave Link  601 at Wed Oct 21 14:45:38 2020, MaxMem=  2684354560 cpu:               0.9 elap:               1.0
 (Enter /udrive/faculty/rpeverati/g16/g16/l9999.exe)

 Test job not archived.
 1\1\GINC-NODE42\FOpt\RPM3\ZDO\C1H4F1O1(1-)\RPEVERATI\21-Oct-2020\0\\#P
  Opt(MaxCyc=150) PM3 5D 7F Integral=UltraFineGrid SCF=(NoSymm,XQC,MaxC
 yc=120) IOp(1/33=1)\\TS search on BH76.\\-1,1\F,1.1331994025,-0.853156
 742,0.1968604263\C,0.4301809333,0.3056557195,0.077618785\H,-0.74935266
 31,0.154091028,-0.0411396081\H,0.639697026,0.8982026413,0.9700533156\H

 Normal termination of Gaussian 16 at Wed Oct 21 14:45:40 2020.
