 Gaussian 16, Revision A.03,
 Gaussian 16:  ES64L-G16RevA.03 25-Dec-2016

 ----------------------------------------------------------------------
 #P Opt(MaxCyc=150) PM3 5D 7F Integral=UltraFineGrid SCF=(NoSymm,XQC,Ma
 xCyc=120) IOp(1/33=1)
 ----------------------------------------------------------------------

 TstMul:  Mul=     3
 TstMul:  ICh=     0
 TstMul:  Mul=     3
 Symbolic Z-matrix:
 Charge =  0 Multiplicity = 3

 SCF Done:  E(UPM3) =  0.119838516655     A.U. after    9 cycles
 SCF Done:  E(UPM3) =  0.117013128813     A.U. after    8 cycles
 SCF Done:  E(UPM3) =  0.116989267730     A.U. after    7 cycles
 Optimization completed.
    -- Stationary point found.

                         Standard orientation:
 ---------------------------------------------------------------------
 Center     Atomic      Atomic             Coordinates (Angstroms)
 Number     Number       Type             X           Y           Z
 ---------------------------------------------------------------------
      1          7           0        0.000000    0.000000    0.121778
      2          1           0        0.000000    0.000000   -0.852446
 ---------------------------------------------------------------------

 The electronic state is 3-SG.
 Alpha  occ. eigenvalues --   -0.88155  -0.48125  -0.45000  -0.45000
 Alpha virt. eigenvalues --    0.13374
  Beta  occ. eigenvalues --   -0.83211  -0.43336
  Beta virt. eigenvalues --    0.00065   0.00065   0.15136

 Mulliken charges and spin densities:
               1          2
     1  N   -0.062054   2.049975
     2  H    0.062054  -0.049975
 Sum of Mulliken charges =  -0.00000   2.00000

 Dipole moment (field-independent basis, Debye):
    X=              0.0000    Y=             -0.0000    Z=             -1.5656  Tot=              1.5656
 N-N= 8.544532100731D+00 E-N=-3.458825776464D+00  KE=-9.867985022519D+00
 Leave Link  601 at Wed Oct 21 14:23:46 2020, MaxMem=  2684354560 cpu:               2.9 elap:               0.8
 (Enter /udrive/faculty/rpeverati/g16/g16/l9999.exe)

 Test job not archived.
 1\1\GINC-NODE37\FOpt\UPM3\ZDO\H1N1(3)\RPEVERATI\21-Oct-2020\0\\#P Opt(
 MaxCyc=150) PM3 5D 7F Integral=UltraFineGrid SCF=(NoSymm,XQC,MaxCyc=12
 0) IOp(1/33=1)\\TS search on BH76.\\0,3\N,0.,0.,0.0983366236\H,0.,0.,-
 0.8758873917\\Version=ES64L-G16RevA.03\State=3-SG\HF=0.1169893\S2=2.00
 2617\S2-1=0.\S2A=2.\RMSD=1.336e-09\RMSF=6.283e-06\Dipole=0.,0.,-0.6159

 Normal termination of Gaussian 16 at Wed Oct 21 14:23:48 2020.
