 Gaussian 16, Revision A.03,
 Gaussian 16:  ES64L-G16RevA.03 25-Dec-2016

 ----------------------------------------------------------------------
 #P Opt(MaxCyc=150) PM3 5D 7F Integral=UltraFineGrid SCF=(NoSymm,XQC,Ma
 xCyc=120) IOp(1/33=1)
 ----------------------------------------------------------------------

 TstMul:  Mul=     1
 TstMul:  ICh=     0
 TstMul:  Mul=     1
 Symbolic Z-matrix:
 Charge =  0 Multiplicity = 1

 SCF Done:  E(RPM3) =  0.433499472165E-02 A.U. after   10 cycles
 SCF Done:  E(RPM3) =  0.174241552968E-02 A.U. after    7 cycles
 SCF Done:  E(RPM3) =  0.359713947347E-03 A.U. after    8 cycles
 SCF Done:  E(RPM3) =  0.342778360469E-03 A.U. after    7 cycles
 SCF Done:  E(RPM3) =  0.340149186357E-03 A.U. after    7 cycles
 Optimization completed.
    -- Stationary point found.

                         Standard orientation:
 ---------------------------------------------------------------------
 Center     Atomic      Atomic             Coordinates (Angstroms)
 Number     Number       Type             X           Y           Z
 ---------------------------------------------------------------------
      1         15           0        0.000000    0.000000    0.110589
      2          1           0        0.000000    1.145635   -0.552947
      3          1           0        0.992149   -0.572818   -0.552947
      4          1           0       -0.992149   -0.572818   -0.552947
 ---------------------------------------------------------------------

 The electronic state is 1-A1.
 Alpha  occ. eigenvalues --   -0.97737  -0.46432  -0.46432  -0.31877
 Alpha virt. eigenvalues --    0.06518   0.06536   0.06536

 Mulliken charges:
               1
     1  P    0.489957
     2  H   -0.163319
     3  H   -0.163319
     4  H   -0.163319
 Sum of Mulliken charges =  -0.00000

 Dipole moment (field-independent basis, Debye):
    X=             -0.0000    Y=             -0.0000    Z=             -1.1815  Tot=              1.1815
 N-N= 1.123729527347D+01 E-N=-9.914101210724D+00  KE=-8.110241778299D+00
 Leave Link  601 at Wed Oct 21 14:25:32 2020, MaxMem=  2684354560 cpu:               3.9 elap:               1.1
 (Enter /udrive/faculty/rpeverati/g16/g16/l9999.exe)

 Test job not archived.
 1\1\GINC-NODE62\FOpt\RPM3\ZDO\H3P1\RPEVERATI\21-Oct-2020\0\\#P Opt(Max
 Cyc=150) PM3 5D 7F Integral=UltraFineGrid SCF=(NoSymm,XQC,MaxCyc=120)
 IOp(1/33=1)\\TS search on BH76.\\0,1\P,0.,0.,0.4976020838\H,0.57281756
 19,0.9921491207,-0.1659337749\H,0.5728175619,-0.9921491207,-0.16593377
 49\H,-1.1456351239,0.,-0.1659337749\\Version=ES64L-G16RevA.03\State=1-

 Normal termination of Gaussian 16 at Wed Oct 21 14:25:35 2020.
