 Gaussian 16, Revision A.03,
 Gaussian 16:  ES64L-G16RevA.03 25-Dec-2016

 ----------------------------------------------------------------------
 #P Opt(MaxCyc=150) PM3 5D 7F Integral=UltraFineGrid SCF=(NoSymm,XQC,Ma
 xCyc=120) IOp(1/33=1)
 ----------------------------------------------------------------------

 TstMul:  Mul=     2
 TstMul:  ICh=     0
 TstMul:  Mul=     2
 Symbolic Z-matrix:
 Charge =  0 Multiplicity = 2

 SCF Done:  E(UPM3) =  0.554331460462E-02 A.U. after    9 cycles
 SCF Done:  E(UPM3) =  0.458839330120E-02 A.U. after    8 cycles
 SCF Done:  E(UPM3) =  0.458784260916E-02 A.U. after    6 cycles
 Optimization completed.
    -- Stationary point found.

                         Standard orientation:
 ---------------------------------------------------------------------
 Center     Atomic      Atomic             Coordinates (Angstroms)
 Number     Number       Type             X           Y           Z
 ---------------------------------------------------------------------
      1          8           0        0.000000    0.000000    0.104158
      2          1           0        0.000000    0.000000   -0.833261
 ---------------------------------------------------------------------

 Unable to determine electronic state:  partially filled degenerate orbitals.
 Alpha  occ. eigenvalues --   -1.25419  -0.60799  -0.53043  -0.48457
 Alpha virt. eigenvalues --    0.15573
  Beta  occ. eigenvalues --   -1.23614  -0.58990  -0.46091
  Beta virt. eigenvalues --   -0.02793   0.16359

 Mulliken charges and spin densities:
               1          2
     1  O   -0.175875   1.031784
     2  H    0.175875  -0.031784
 Sum of Mulliken charges =   0.00000   1.00000

 Dipole moment (field-independent basis, Debye):
    X=              0.0000    Y=             -0.0000    Z=             -1.3998  Tot=              1.3998
 N-N= 1.391270834083D+01 E-N=-4.360993728177D+00  KE=-1.829109954658D+01
 Leave Link  601 at Wed Oct 21 14:24:43 2020, MaxMem=  2684354560 cpu:               3.4 elap:               1.0
 (Enter /udrive/faculty/rpeverati/g16/g16/l9999.exe)

 Test job not archived.
 1\1\GINC-NODE51\FOpt\UPM3\ZDO\H1O1(2)\RPEVERATI\21-Oct-2020\0\\#P Opt(
 MaxCyc=150) PM3 5D 7F Integral=UltraFineGrid SCF=(NoSymm,XQC,MaxCyc=12
 0) IOp(1/33=1)\\TS search on BH76.\\0,2\O,0.,0.,0.0919165299\H,0.,0.,-
 0.8455024496\\Version=ES64L-G16RevA.03\HF=0.0045878\S2=0.751231\S2-1=0
 .\S2A=0.75\RMSD=1.273e-09\RMSF=2.383e-07\Dipole=0.,0.,-0.5507054\PG=C*

 Normal termination of Gaussian 16 at Wed Oct 21 14:24:45 2020.
