 Gaussian 16, Revision A.03,
 Gaussian 16:  ES64L-G16RevA.03 25-Dec-2016

 ----------------------------------------------------------------------
 #P Opt(MaxCyc=150) PM3 5D 7F Integral=UltraFineGrid SCF=(NoSymm,XQC,Ma
 xCyc=120) IOp(1/33=1)
 ----------------------------------------------------------------------

 TstMul:  Mul=     2
 TstMul:  ICh=     0
 TstMul:  Mul=     2
 Symbolic Z-matrix:
 Charge =  0 Multiplicity = 2

 SCF Done:  E(UPM3) =  0.591785050522E-01 A.U. after   12 cycles
 SCF Done:  E(UPM3) =  0.562489491454E-01 A.U. after   10 cycles
 SCF Done:  E(UPM3) =  0.561393314126E-01 A.U. after    9 cycles
 SCF Done:  E(UPM3) =  0.561386920535E-01 A.U. after    8 cycles
 Optimization completed.
    -- Stationary point found.

                         Standard orientation:
 ---------------------------------------------------------------------
 Center     Atomic      Atomic             Coordinates (Angstroms)
 Number     Number       Type             X           Y           Z
 ---------------------------------------------------------------------
      1          7           0        0.000000   -0.000000    0.124524
      2          1           0        0.000000    0.812049   -0.435835
      3          1           0       -0.000000   -0.812049   -0.435835
 ---------------------------------------------------------------------

 The electronic state is 2-B1.
 Alpha  occ. eigenvalues --   -0.97828  -0.58211  -0.41442  -0.40806
 Alpha virt. eigenvalues --    0.12660   0.18165
  Beta  occ. eigenvalues --   -0.95375  -0.57437  -0.38510
  Beta virt. eigenvalues --    0.01892   0.13759   0.18964

 Mulliken charges and spin densities:
               1          2
     1  N   -0.069130   1.054919
     2  H    0.034565  -0.027460
     3  H    0.034565  -0.027460
 Sum of Mulliken charges =  -0.00000   1.00000

 Dipole moment (field-independent basis, Debye):
    X=             -0.0000    Y=             -0.0000    Z=             -1.7377  Tot=              1.7377
 N-N= 1.136924919808D+01 E-N=-7.541059281070D+00  KE=-1.078908414730D+01
 Leave Link  601 at Wed Oct 21 14:24:02 2020, MaxMem=  2684354560 cpu:               4.3 elap:               1.0
 (Enter /udrive/faculty/rpeverati/g16/g16/l9999.exe)

 Test job not archived.
 1\1\GINC-NODE38\FOpt\UPM3\ZDO\H2N1(2)\RPEVERATI\21-Oct-2020\0\\#P Opt(
 MaxCyc=150) PM3 5D 7F Integral=UltraFineGrid SCF=(NoSymm,XQC,MaxCyc=12
 0) IOp(1/33=1)\\TS search on BH76.\\0,2\N,0.,0.,0.090742177\H,0.,0.812
 048611,-0.4696177502\H,0.,-0.812048611,-0.4696177502\\Version=ES64L-G1
 6RevA.03\State=2-B1\HF=0.0561387\S2=0.751644\S2-1=0.\S2A=0.750001\RMSD

 Normal termination of Gaussian 16 at Wed Oct 21 14:24:03 2020.
