 Gaussian 16, Revision A.03,
 Gaussian 16:  ES64L-G16RevA.03 25-Dec-2016

 ----------------------------------------------------------------------
 #P Opt(MaxCyc=150) PM3 5D 7F Integral=UltraFineGrid SCF=(NoSymm,XQC,Ma
 xCyc=120) IOp(1/33=1)
 ----------------------------------------------------------------------

 TstMul:  Mul=     1
 TstMul:  ICh=     0
 TstMul:  Mul=     1
 Symbolic Z-matrix:
 Charge =  0 Multiplicity = 1

 SCF Done:  E(RPM3) = -0.448297002772E-02 A.U. after   10 cycles
 SCF Done:  E(RPM3) = -0.482236063210E-02 A.U. after    7 cycles
 SCF Done:  E(RPM3) = -0.483189976814E-02 A.U. after    7 cycles
 Optimization completed.
    -- Stationary point found.

                         Standard orientation:
 ---------------------------------------------------------------------
 Center     Atomic      Atomic             Coordinates (Angstroms)
 Number     Number       Type             X           Y           Z
 ---------------------------------------------------------------------
      1          7           0        0.000000    0.000000    0.106453
      2          1           0        0.000000    0.934444   -0.248391
      3          1           0        0.809252   -0.467222   -0.248391
      4          1           0       -0.809252   -0.467222   -0.248391
 ---------------------------------------------------------------------

 The electronic state is 1-A1.
 Alpha  occ. eigenvalues --   -1.05777  -0.55483  -0.55483  -0.35612
 Alpha virt. eigenvalues --    0.12235   0.19671   0.19671

 Mulliken charges:
               1
     1  N    0.006070
     2  H   -0.002023
     3  H   -0.002023
     4  H   -0.002023
 Sum of Mulliken charges =  -0.00000

 Dipole moment (field-independent basis, Debye):
    X=              0.0000    Y=             -0.0000    Z=             -1.5499  Tot=              1.5499
 N-N= 1.444773756913D+01 E-N=-1.226620059635D+01  KE=-1.159182880846D+01
 Leave Link  601 at Wed Oct 21 14:23:49 2020, MaxMem=  2684354560 cpu:               4.7 elap:               1.0
 (Enter /udrive/faculty/rpeverati/g16/g16/l9999.exe)

 Test job not archived.
 1\1\GINC-NODE40\FOpt\RPM3\ZDO\H3N1\RPEVERATI\21-Oct-2020\0\\#P Opt(Max
 Cyc=150) PM3 5D 7F Integral=UltraFineGrid SCF=(NoSymm,XQC,MaxCyc=120)
 IOp(1/33=1)\\TS search on BH76.\\0,1\N,0.,0.,0.2661064635\H,0.46722197
 38,0.809252197,-0.0887384564\H,0.4672219738,-0.809252197,-0.0887384564
 \H,-0.9344439476,0.,-0.0887384564\\Version=ES64L-G16RevA.03\State=1-A1

 Normal termination of Gaussian 16 at Wed Oct 21 14:23:51 2020.
