 Gaussian 16, Revision A.03,
 Gaussian 16:  ES64L-G16RevA.03 25-Dec-2016

 ----------------------------------------------------------------------
 #P Opt(MaxCyc=150) PM3 5D 7F Integral=UltraFineGrid SCF=(NoSymm,XQC,Ma
 xCyc=120) IOp(1/33=1)
 ----------------------------------------------------------------------

 TstMul:  Mul=     1
 TstMul:  ICh=    -1
 TstMul:  Mul=     1
 Symbolic Z-matrix:
 Charge = -1 Multiplicity = 1

 SCF Done:  E(RPM3) = -0.274300197212E-01 A.U. after    7 cycles
 SCF Done:  E(RPM3) = -0.278310809428E-01 A.U. after    6 cycles
 SCF Done:  E(RPM3) = -0.278323767737E-01 A.U. after    5 cycles
 Optimization completed.
    -- Stationary point found.

                         Standard orientation:
 ---------------------------------------------------------------------
 Center     Atomic      Atomic             Coordinates (Angstroms)
 Number     Number       Type             X           Y           Z
 ---------------------------------------------------------------------
      1          8           0        0.000000    0.000000    0.104603
      2          1           0        0.000000    0.000000   -0.836824
 ---------------------------------------------------------------------

 The electronic state is 1-SG.
 Alpha  occ. eigenvalues --   -0.85851  -0.18289  -0.03714  -0.03714
 Alpha virt. eigenvalues --    0.56537

 Mulliken charges:
               1
     1  O   -1.055352
     2  H    0.055352
 Sum of Mulliken charges =  -1.00000

 Dipole moment (field-independent basis, Debye):
    X=             -0.0000    Y=              0.0000    Z=             -1.3697  Tot=              1.3697
 N-N= 1.390519108147D+01 E-N=-4.968567198078D+00  KE=-2.066613933277D+01
 Leave Link  601 at Wed Oct 21 14:23:59 2020, MaxMem=  2684354560 cpu:               4.5 elap:               1.0
 (Enter /udrive/faculty/rpeverati/g16/g16/l9999.exe)

 Test job not archived.
 1\1\GINC-NODE22\FOpt\RPM3\ZDO\H1O1(1-)\RPEVERATI\21-Oct-2020\0\\#P Opt
 (MaxCyc=150) PM3 5D 7F Integral=UltraFineGrid SCF=(NoSymm,XQC,MaxCyc=1
 20) IOp(1/33=1)\\TS search on BH76.\\-1,1\O,0.,0.,0.0965851571\H,0.,0.
 ,-0.8448417332\\Version=ES64L-G16RevA.03\State=1-SG\HF=-0.0278324\RMSD
 =1.168e-09\RMSF=1.666e-07\Dipole=0.,0.,-0.5388805\PG=C*V [C*(H1O1)]\\@

 Normal termination of Gaussian 16 at Wed Oct 21 14:24:01 2020.
