 Gaussian 16, Revision A.03,

 ----------------------------------------------------------------------
 #P Opt(TS,MaxCyc=50,NoEigenTest,MaxStep=10,AddRedundant) PM3 5D 7F Int
 egral=UltraFineGrid SCF=(NoSymm,XQC,MaxCyc=120) IOp(1/33=1)
 ----------------------------------------------------------------------

 TstMul:  Mul=     2
 TstMul:  ICh=     0
 TstMul:  Mul=     2
 Symbolic Z-matrix:
 Charge =  0 Multiplicity = 2

 SCF Done:  E(UPM3) =  0.599824513485E-02 A.U. after   17 cycles
 SCF Done:  E(UPM3) =  0.386796245576E-02 A.U. after   14 cycles
 SCF Done:  E(UPM3) =  0.425042477085E-02 A.U. after   14 cycles
 SCF Done:  E(UPM3) =  0.413212387365E-02 A.U. after   14 cycles
 SCF Done:  E(UPM3) =  0.402114488741E-02 A.U. after   15 cycles
 SCF Done:  E(UPM3) =  0.389474830185E-02 A.U. after   15 cycles
 SCF Done:  E(UPM3) =  0.380903766312E-02 A.U. after   13 cycles
 SCF Done:  E(UPM3) =  0.368641463117E-02 A.U. after   15 cycles
 SCF Done:  E(UPM3) =  0.359467756989E-02 A.U. after   13 cycles
 SCF Done:  E(UPM3) =  0.348495210732E-02 A.U. after   13 cycles
 SCF Done:  E(UPM3) =  0.292824038602E-02 A.U. after   13 cycles
 SCF Done:  E(UPM3) =  0.288027961765E-02 A.U. after   13 cycles
 SCF Done:  E(UPM3) =  0.283743994352E-02 A.U. after   13 cycles
 SCF Done:  E(UPM3) =  0.280537364873E-02 A.U. after   14 cycles
 SCF Done:  E(UPM3) =  0.278512556110E-02 A.U. after   14 cycles
 SCF Done:  E(UPM3) =  0.277863511777E-02 A.U. after   14 cycles
 SCF Done:  E(UPM3) =  0.277849318891E-02 A.U. after   12 cycles
 SCF Done:  E(UPM3) =  0.278069302725E-02 A.U. after   12 cycles
 SCF Done:  E(UPM3) =  0.277847472925E-02 A.U. after   13 cycles
 Optimization completed.
    -- Stationary point found.
 Normal termination of Gaussian 16 at Wed Oct 21 14:30:19 2020.
 Gaussian 16:  ES64L-G16RevA.03 25-Dec-2016

 ----------------------------------------------------------------------
 #P Freq PM3 5D 7F Integral=UltraFineGrid SCF=(NoSymm,XQC,MaxCyc=120) I
 Op(1/33=1) Geom=Check Guess=Read
 ----------------------------------------------------------------------

 TstMul:  Mul=     2
 TstMul:  ICh=     0
 TstMul:  Mul=     2
 Structure from the checkpoint file:  "MN_79_RKT02_BH76_PM3_SE.chk"
 Charge =  0 Multiplicity = 2

                         Standard orientation:
 ---------------------------------------------------------------------
 Center     Atomic      Atomic             Coordinates (Angstroms)
 Number     Number       Type             X           Y           Z
 ---------------------------------------------------------------------
      1          8           0       -0.270100   -0.098209   -0.000020
      2          1           0       -0.355457    0.840311    0.000096
      3          1           0        0.979906   -0.306281    0.000203
      4          1           0        1.536348    0.251643   -0.000136
 ---------------------------------------------------------------------

 SCF Done:  E(UPM3) =  0.277847472925E-02 A.U. after    2 cycles

 The electronic state is 2-A.
 Alpha  occ. eigenvalues --   -1.29766  -0.67882  -0.58772  -0.46248  -0.40966
 Alpha virt. eigenvalues --    0.12801   0.18036
  Beta  occ. eigenvalues --   -1.28735  -0.62379  -0.55618  -0.44628
  Beta virt. eigenvalues --    0.00537   0.15689   0.18508

 Mulliken charges and spin densities:
               1          2
     1  O   -0.338905   0.706166
     2  H    0.181080  -0.024187
     3  H    0.188879  -0.130919
     4  H   -0.031054   0.448940
 Sum of Mulliken charges =  -0.00000   1.00000

 Dipole moment (field-independent basis, Debye):
    X=              0.9879    Y=              1.1397    Z=              0.0004  Tot=              1.5082
 N-N= 1.968597318288D+01 E-N=-1.297483055726D+01  KE=-2.004163363646D+01
  Exact polarizability:  14.199   1.601   6.255  -0.001  -0.001   0.221
 Approx polarizability:   8.322   1.175   3.904  -0.001  -0.000   0.078
 Leave Link  601 at Wed Oct 21 14:30:46 2020, MaxMem=  2684354560 cpu:               2.7 elap:               0.9
 (Enter /udrive/faculty/rpeverati/g16/g16/l701.exe)
 ... and contract with generalized density number  0.
 Compute integral second derivatives.
 Leave Link  701 at Wed Oct 21 14:30:47 2020, MaxMem=  2684354560 cpu:               4.2 elap:               1.0
 (Enter /udrive/faculty/rpeverati/g16/g16/l702.exe)
 L702 exits ... SP integral derivatives will be done elsewhere.

 ******    1 imaginary frequencies (negative Signs) ******

                      1                      2                      3
                      A                      A                      A
 Frequencies --  -2209.8750               262.5660               616.2169
 Red. masses --      1.0696                 1.0307                 1.0097
 Frc consts  --      3.0776                 0.0419                 0.2259
 IR Inten    --     17.7453               100.0288                59.9939

                      4                      5                      6
                      A                      A                      A
 Frequencies --   1207.9708              3227.8879              3977.7624
 Red. masses --      1.1184                 1.0164                 1.0642
 Frc consts  --      0.9615                 6.2398                 9.9205
 IR Inten    --     22.0788                40.3267                 3.5231

 - Thermochemistry -
 -------------------
 Temperature   298.150 Kelvin.  Pressure   1.00000 Atm.
 Atom     1 has atomic number  8 and mass  15.99491

 Molecular mass:    19.01839 amu.
 Principal axes and moments of inertia in atomic units:
                           1         2         3
     Eigenvalues --     3.52807  15.72639  19.25446
           X            0.99935  -0.03593  -0.00001
           Y            0.03593   0.99935  -0.00001
           Z            0.00001   0.00001   1.00000
 This molecule is an asymmetric top.
 Rotational symmetry number  1.
 Rotational temperatures (Kelvin)     24.54992     5.50755     4.49838
 Rotational constants (GHZ):         511.53725   114.75878    93.73106
    1 imaginary frequencies ignored.
 Zero-point vibrational energy      55580.9 (Joules/Mol)
                                   13.28416 (Kcal/Mol)
 Warning -- explicit consideration of   2 degrees of freedom as
           vibrations may cause significant error
 Vibrational temperatures:    377.77   886.60  1738.00  4644.21  5723.11
          (Kelvin)

 Zero-point correction=                           0.021170 (Hartree/Particle)
 Thermal correction to Energy=                    0.024639
 Thermal correction to Enthalpy=                  0.025583
 Thermal correction to Gibbs Free Energy=         0.000407
 Sum of electronic and zero-point Energies=              0.023948
 Sum of electronic and thermal Energies=                 0.027417
 Sum of electronic and thermal Enthalpies=               0.028361
 Sum of electronic and thermal Free Energies=            0.003185

                     E (Thermal)             CV                S
                      KCal/Mol        Cal/Mol-Kelvin    Cal/Mol-Kelvin
 Total                   15.461              8.900             52.987
 Electronic               0.000              0.000              1.377
 Translational            0.889              2.981             34.771
 Rotational               0.889              2.981             14.732
 Vibrational             13.684              2.939              2.107
 Vibration     1          0.670              1.741              1.645
 Vibration     2          0.976              0.998              0.423

 Optimization completed.
    -- Stationary point found.
 Normal termination of Gaussian 16 at Wed Oct 21 14:30:54 2020.
