 Gaussian 16, Revision A.03,
 Gaussian 16:  ES64L-G16RevA.03 25-Dec-2016

 ----------------------------------------------------------------------
 #P Opt(MaxCyc=150) PM3 5D 7F Integral=UltraFineGrid SCF=(NoSymm,XQC,Ma
 xCyc=120) IOp(1/33=1)
 ----------------------------------------------------------------------

 TstMul:  Mul=     2
 TstMul:  ICh=     0
 TstMul:  Mul=     2
 Symbolic Z-matrix:
 Charge =  0 Multiplicity = 2

 SCF Done:  E(UPM3) =  0.489475708281E-01 A.U. after   12 cycles
 SCF Done:  E(UPM3) =  0.471753139313E-01 A.U. after   10 cycles
 SCF Done:  E(UPM3) =  0.463737707568E-01 A.U. after   10 cycles
 SCF Done:  E(UPM3) =  0.463635073580E-01 A.U. after    9 cycles
 SCF Done:  E(UPM3) =  0.463614651629E-01 A.U. after    8 cycles
 Optimization completed.
    -- Stationary point found.

                         Standard orientation:
 ---------------------------------------------------------------------
 Center     Atomic      Atomic             Coordinates (Angstroms)
 Number     Number       Type             X           Y           Z
 ---------------------------------------------------------------------
      1         15           0        0.000000    0.000000    0.104049
      2          1           0       -0.000000    0.996974   -0.780366
      3          1           0       -0.000000   -0.996974   -0.780366
 ---------------------------------------------------------------------

 The electronic state is 2-B1.
 Alpha  occ. eigenvalues --   -0.92787  -0.47162  -0.36709  -0.30841
 Alpha virt. eigenvalues --    0.04720   0.05158
  Beta  occ. eigenvalues --   -0.89018  -0.47157  -0.34972
  Beta virt. eigenvalues --   -0.06391   0.05564   0.05566

 Mulliken charges and spin densities:
               1          2
     1  P    0.250032   1.047322
     2  H   -0.125016  -0.023661
     3  H   -0.125016  -0.023661
 Sum of Mulliken charges =   0.00000   1.00000

 Dipole moment (field-independent basis, Debye):
    X=              0.0000    Y=              0.0000    Z=             -1.2955  Tot=              1.2955
 N-N= 8.722189481844D+00 E-N=-6.030173925289D+00  KE=-7.535013673191D+00
 Leave Link  601 at Wed Oct 21 14:24:45 2020, MaxMem=  2684354560 cpu:               4.4 elap:               1.0
 (Enter /udrive/faculty/rpeverati/g16/g16/l9999.exe)

 Test job not archived.
 1\1\GINC-NODE06\FOpt\UPM3\ZDO\H2P1(2)\RPEVERATI\21-Oct-2020\0\\#P Opt(
 MaxCyc=150) PM3 5D 7F Integral=UltraFineGrid SCF=(NoSymm,XQC,MaxCyc=12
 0) IOp(1/33=1)\\TS search on BH76.\\0,2\P,0.,0.,0.0498770794\H,0.,0.99
 6973892,-0.834537338\H,0.,-0.996973892,-0.834537338\\Version=ES64L-G16
 RevA.03\State=2-B1\HF=0.0463615\S2=0.751803\S2-1=0.\S2A=0.750002\RMSD=

 Normal termination of Gaussian 16 at Wed Oct 21 14:24:46 2020.
