 Gaussian 16, Revision A.03,

 ----------------------------------------------------------------------
 #P Opt(TS,MaxCyc=50,NoEigenTest,MaxStep=10,AddRedundant) PM3 5D 7F Int
 egral=UltraFineGrid SCF=(NoSymm,XQC,MaxCyc=120) IOp(1/33=1)
 ----------------------------------------------------------------------

 TstMul:  Mul=     2
 TstMul:  ICh=     0
 TstMul:  Mul=     2
 Symbolic Z-matrix:
 Charge =  0 Multiplicity = 2

 SCF Done:  E(UPM3) =  0.158784510092E-01 A.U. after   12 cycles
 SCF Done:  E(UPM3) =  0.148072969317E-01 A.U. after   11 cycles
 SCF Done:  E(UPM3) =  0.140418850253E-01 A.U. after   10 cycles
 SCF Done:  E(UPM3) =  0.136372796516E-01 A.U. after   10 cycles
 SCF Done:  E(UPM3) =  0.135668945044E-01 A.U. after   10 cycles
 SCF Done:  E(UPM3) =  0.135657418524E-01 A.U. after    8 cycles
 Optimization completed.
    -- Stationary point found.
 Normal termination of Gaussian 16 at Wed Oct 21 14:26:24 2020.
 Gaussian 16:  ES64L-G16RevA.03 25-Dec-2016

 ----------------------------------------------------------------------
 #P Freq PM3 5D 7F Integral=UltraFineGrid SCF=(NoSymm,XQC,MaxCyc=120) I
 Op(1/33=1) Geom=Check Guess=Read
 ----------------------------------------------------------------------

 TstMul:  Mul=     2
 TstMul:  ICh=     0
 TstMul:  Mul=     2
 Structure from the checkpoint file:  "MN_78_RKT01_BH76_PM3_SE.chk"
 Charge =  0 Multiplicity = 2

                         Standard orientation:
 ---------------------------------------------------------------------
 Center     Atomic      Atomic             Coordinates (Angstroms)
 Number     Number       Type             X           Y           Z
 ---------------------------------------------------------------------
      1          1           0        0.000000    0.000000   -1.458609
      2         17           0        0.000000    0.000000    0.215220
      3          1           0        0.000000    0.000000   -2.200129
 ---------------------------------------------------------------------

 SCF Done:  E(UPM3) =  0.135657418524E-01 A.U. after    2 cycles

 The electronic state is 2-SG.
 Alpha  occ. eigenvalues --   -2.03230  -0.64928  -0.39993  -0.39993  -0.37349
 Alpha virt. eigenvalues --    0.12144
  Beta  occ. eigenvalues --   -1.93293  -0.60902  -0.39964  -0.39964
  Beta virt. eigenvalues --   -0.10102   0.13897

 Mulliken charges and spin densities:
               1          2
     1  H    0.068392  -0.074206
     2  Cl  -0.105363   0.818948
     3  H    0.036971   0.255259
 Sum of Mulliken charges =   0.00000   1.00000

 Dipole moment (field-independent basis, Debye):
    X=             -0.0000    Y=              0.0000    Z=             -1.1959  Tot=              1.1959
 N-N= 1.666414210930D+01 E-N=-7.362011387658D+00  KE=-1.874298200646D+01
  Exact polarizability:   0.083  -0.000   0.083   0.000   0.000  22.934
 Approx polarizability:   0.021   0.000   0.021   0.000   0.000  13.104
 Leave Link  601 at Wed Oct 21 14:27:00 2020, MaxMem=  2684354560 cpu:               3.8 elap:               1.7
 (Enter /udrive/faculty/rpeverati/g16/g16/l701.exe)
 ... and contract with generalized density number  0.
 Compute integral second derivatives.
 Leave Link  701 at Wed Oct 21 14:27:02 2020, MaxMem=  2684354560 cpu:               8.3 elap:               1.9
 (Enter /udrive/faculty/rpeverati/g16/g16/l702.exe)
 L702 exits ... SP integral derivatives will be done elsewhere.

                      1                      2                      3
                     PI                     PI                     SG
 Frequencies --    397.9012               397.9012              1071.9289
 Red. masses --      1.0096                 1.0096                 1.0641
 Frc consts  --      0.0942                 0.0942                 0.7204
 IR Inten    --      2.9331                 2.9331                73.0489

                      4
                     SG
 Frequencies --   3797.6308
 Red. masses --      1.0079
 Frc consts  --      8.5640
 IR Inten    --    139.0163

 - Thermochemistry -
 -------------------
 Temperature   298.150 Kelvin.  Pressure   1.00000 Atm.
 Atom     1 has atomic number  1 and mass   1.00783

 Molecular mass:    36.98450 amu.
 Principal axes and moments of inertia in atomic units:
                           1         2         3
     Eigenvalues --     0.00000  29.43973  29.43973
           X            0.00000   0.00000   1.00000
           Y            0.00000   1.00000   0.00000
           Z            1.00000   0.00000   0.00000
 This molecule is a prolate symmetric top.
 Rotational symmetry number  1.
 Rotational temperature (Kelvin)      2.94208
 Rotational constant (GHZ):          61.302921
 Zero-point vibrational energy      33886.4 (Joules/Mol)
                                    8.09904 (Kcal/Mol)
 Warning -- explicit consideration of   2 degrees of freedom as
           vibrations may cause significant error
 Vibrational temperatures:    572.49   572.49  1542.27  5463.94
          (Kelvin)

 Zero-point correction=                           0.012907 (Hartree/Particle)
 Thermal correction to Energy=                    0.015918
 Thermal correction to Enthalpy=                  0.016862
 Thermal correction to Gibbs Free Energy=        -0.007515
 Sum of electronic and zero-point Energies=              0.026472
 Sum of electronic and thermal Energies=                 0.029483
 Sum of electronic and thermal Enthalpies=               0.030428
 Sum of electronic and thermal Free Energies=            0.006050

                     E (Thermal)             CV                S
                      KCal/Mol        Cal/Mol-Kelvin    Cal/Mol-Kelvin
 Total                    9.989              8.222             51.306
 Electronic               0.000              0.000              1.377
 Translational            0.889              2.981             36.753
 Rotational               0.592              1.987             11.165
 Vibrational              8.507              3.254              2.011
 Vibration     1          0.764              1.475              0.970
 Vibration     2          0.764              1.475              0.970

 Optimization completed.
    -- Stationary point found.
 Normal termination of Gaussian 16 at Wed Oct 21 14:27:13 2020.
