 Gaussian 16, Revision A.03,

 ----------------------------------------------------------------------
 #P Opt(TS,MaxCyc=50,NoEigenTest,MaxStep=10,AddRedundant) PM3 5D 7F Int
 egral=UltraFineGrid SCF=(NoSymm,XQC,MaxCyc=120) IOp(1/33=1)
 ----------------------------------------------------------------------

 TstMul:  Mul=     3
 TstMul:  ICh=     0
 TstMul:  Mul=     3
 Symbolic Z-matrix:
 Charge =  0 Multiplicity = 3

 SCF Done:  E(UPM3) =  0.870161706998E-01 A.U. after   15 cycles
 SCF Done:  E(UPM3) =  0.838661088543E-01 A.U. after   14 cycles
 SCF Done:  E(UPM3) =  0.868528122849E-01 A.U. after   14 cycles
 SCF Done:  E(UPM3) =  0.889331783982E-01 A.U. after   14 cycles
 SCF Done:  E(UPM3) =  0.906639085268E-01 A.U. after   14 cycles
 SCF Done:  E(UPM3) =  0.915028887650E-01 A.U. after   14 cycles
 SCF Done:  E(UPM3) =  0.914676232993E-01 A.U. after   12 cycles
 SCF Done:  E(UPM3) =  0.914400238799E-01 A.U. after   12 cycles
 SCF Done:  E(UPM3) =  0.914015691962E-01 A.U. after   12 cycles
 SCF Done:  E(UPM3) =  0.913833692921E-01 A.U. after   12 cycles
 SCF Done:  E(UPM3) =  0.913799783223E-01 A.U. after   11 cycles
 Optimization completed.
    -- Stationary point found.
 Normal termination of Gaussian 16 at Wed Oct 21 14:26:50 2020.
 Gaussian 16:  ES64L-G16RevA.03 25-Dec-2016

 ----------------------------------------------------------------------
 #P Freq PM3 5D 7F Integral=UltraFineGrid SCF=(NoSymm,XQC,MaxCyc=120) I
 Op(1/33=1) Geom=Check Guess=Read
 ----------------------------------------------------------------------

 TstMul:  Mul=     3
 TstMul:  ICh=     0
 TstMul:  Mul=     3
 Structure from the checkpoint file:  "MN_87_RKT11_BH76_PM3_SE.chk"
 Charge =  0 Multiplicity = 3

                         Standard orientation:
 ---------------------------------------------------------------------
 Center     Atomic      Atomic             Coordinates (Angstroms)
 Number     Number       Type             X           Y           Z
 ---------------------------------------------------------------------
      1          6           0       -0.000090   -1.129350    0.000000
      2          1           0       -1.041171   -1.423491    0.000000
      3          1           0        0.519991   -1.427280    0.900805
      4          1           0        0.519991   -1.427280   -0.900805
      5          1           0        0.002445    0.075687    0.000000
      6          8           0       -0.000090    1.372308    0.000000
 ---------------------------------------------------------------------

 SCF Done:  E(UPM3) =  0.913799783223E-01 A.U. after    2 cycles

 The electronic state is 3-A'.
 Alpha  occ. eigenvalues --   -1.19910  -1.05944  -0.60055  -0.53589  -0.53173
 Alpha  occ. eigenvalues --   -0.52471  -0.48264  -0.41417
 Alpha virt. eigenvalues --    0.12903   0.14078   0.14745   0.14755
  Beta  occ. eigenvalues --   -1.17500  -1.02872  -0.52454  -0.52450  -0.51586
  Beta  occ. eigenvalues --   -0.44432
  Beta virt. eigenvalues --   -0.03938  -0.01171   0.13762   0.15714   0.15724
  Beta virt. eigenvalues --    0.16665

 Mulliken charges and spin densities:
               1          2
     1  C   -0.099929   0.542977
     2  H    0.043931  -0.027186
     3  H    0.044357  -0.027249
     4  H    0.044357  -0.027249
     5  H    0.119743  -0.141415
     6  O   -0.152460   1.680123
 Sum of Mulliken charges =   0.00000   2.00000

 Dipole moment (field-independent basis, Debye):
    X=              0.0028    Y=             -1.5806    Z=             -0.0000  Tot=              1.5806
 N-N= 3.451084132735D+01 E-N=-3.256219225211D+01  KE=-2.671556433481D+01
  Exact polarizability:   8.058  -0.015  29.999   0.000  -0.000   7.587
 Approx polarizability:   4.837  -0.007  16.530   0.000   0.000   4.520
 Leave Link  601 at Wed Oct 21 14:27:22 2020, MaxMem=  2684354560 cpu:               2.8 elap:               0.9
 (Enter /udrive/faculty/rpeverati/g16/g16/l701.exe)
 ... and contract with generalized density number  0.
 Compute integral second derivatives.
 Leave Link  701 at Wed Oct 21 14:27:24 2020, MaxMem=  2684354560 cpu:               4.4 elap:               1.0
 (Enter /udrive/faculty/rpeverati/g16/g16/l702.exe)
 L702 exits ... SP integral derivatives will be done elsewhere.

 ******    1 imaginary frequencies (negative Signs) ******

                      1                      2                      3
                     A'                     A"                     A'
 Frequencies --  -2301.9778               303.1546               314.0849
 Red. masses --      1.0835                 1.0551                 1.0560
 Frc consts  --      3.3828                 0.0571                 0.0614
 IR Inten    --    950.6136                 5.9913                 6.2736

                      4                      5                      6
                     A'                     A"                     A'
 Frequencies --    665.3991              1138.9804              1151.3029
 Red. masses --      7.7437                 1.0952                 1.0952
 Frc consts  --      2.0201                 0.8371                 0.8553
 IR Inten    --     50.5615                15.2150                15.3233

                      7                      8                      9
                     A'                     A"                     A'
 Frequencies --   1260.4452              1357.5300              1358.6151
 Red. masses --      1.1070                 1.0747                 1.0738
 Frc consts  --      1.0362                 1.1669                 1.1678
 IR Inten    --      2.1940                 0.0149                 0.0100

                     10                     11                     12
                     A"                     A'                     A'
 Frequencies --   3220.2945              3221.6381              3243.8559
 Red. masses --      1.1014                 1.1015                 1.0205
 Frc consts  --      6.7298                 6.7358                 6.3269
 IR Inten    --      1.9944                 1.9561                 2.1363

 - Thermochemistry -
 -------------------
 Temperature   298.150 Kelvin.  Pressure   1.00000 Atm.
 Atom     1 has atomic number  6 and mass  12.00000

 Molecular mass:    32.02621 amu.
 Principal axes and moments of inertia in atomic units:
                           1         2         3
     Eigenvalues --    11.68858 188.10921 188.11614
           X           -0.00005   1.00000   0.00000
           Y            1.00000   0.00005   0.00000
           Z            0.00000   0.00000   1.00000
 This molecule is an asymmetric top.
 Rotational symmetry number  1.
 Rotational temperatures (Kelvin)      7.41013     0.46044     0.46043
 Rotational constants (GHZ):         154.40205     9.59411     9.59376
    1 imaginary frequencies ignored.
 Zero-point vibrational energy     103090.0 (Joules/Mol)
                                   24.63910 (Kcal/Mol)
 Warning -- explicit consideration of   2 degrees of freedom as
           vibrations may cause significant error
 Vibrational temperatures:    436.17   451.90   957.36  1638.74  1656.47
          (Kelvin)           1813.50  1953.18  1954.74  4633.29  4635.22
                             4667.19

 Zero-point correction=                           0.039265 (Hartree/Particle)
 Thermal correction to Energy=                    0.043116
 Thermal correction to Enthalpy=                  0.044061
 Thermal correction to Gibbs Free Energy=         0.014399
 Sum of electronic and zero-point Energies=              0.130645
 Sum of electronic and thermal Energies=                 0.134496
 Sum of electronic and thermal Enthalpies=               0.135441
 Sum of electronic and thermal Free Energies=            0.105779

                     E (Thermal)             CV                S
                      KCal/Mol        Cal/Mol-Kelvin    Cal/Mol-Kelvin
 Total                   27.056             11.073             62.429
 Electronic               0.000              0.000              2.183
 Translational            0.889              2.981             36.324
 Rotational               0.889              2.981             20.653
 Vibrational             25.279              5.111              3.269
 Vibration     1          0.695              1.668              1.399
 Vibration     2          0.702              1.647              1.341

 Optimization completed.
    -- Stationary point found.
 Normal termination of Gaussian 16 at Wed Oct 21 14:27:32 2020.
