 Gaussian 16, Revision A.03,

 ----------------------------------------------------------------------
 #P Opt(TS,MaxCyc=50,NoEigenTest,MaxStep=10,AddRedundant) PM3 5D 7F Int
 egral=UltraFineGrid SCF=(NoSymm,XQC,MaxCyc=120) IOp(1/33=1)
 ----------------------------------------------------------------------

 TstMul:  Mul=     2
 TstMul:  ICh=     0
 TstMul:  Mul=     2
 Symbolic Z-matrix:
 Charge =  0 Multiplicity = 2

 SCF Done:  E(UPM3) =  0.420740774880E-01 A.U. after    7 cycles
 SCF Done:  E(UPM3) =  0.373689798566E-01 A.U. after    6 cycles
 SCF Done:  E(UPM3) =  0.335460155858E-01 A.U. after    6 cycles
 SCF Done:  E(UPM3) =  0.308139961165E-01 A.U. after    6 cycles
 SCF Done:  E(UPM3) =  0.293778060910E-01 A.U. after    6 cycles
 SCF Done:  E(UPM3) =  0.292057638488E-01 A.U. after    6 cycles
 SCF Done:  E(UPM3) =  0.292038625491E-01 A.U. after    5 cycles
 Optimization completed.
    -- Stationary point found.
 Normal termination of Gaussian 16 at Wed Oct 21 14:25:29 2020.
 Gaussian 16:  ES64L-G16RevA.03 25-Dec-2016

 ----------------------------------------------------------------------
 #P Freq PM3 5D 7F Integral=UltraFineGrid SCF=(NoSymm,XQC,MaxCyc=120) I
 Op(1/33=1) Geom=Check Guess=Read
 ----------------------------------------------------------------------

 TstMul:  Mul=     2
 TstMul:  ICh=     0
 TstMul:  Mul=     2
 Structure from the checkpoint file:  "MN_82_RKT06_BH76_PM3_SE.chk"
 Charge =  0 Multiplicity = 2

                         Standard orientation:
 ---------------------------------------------------------------------
 Center     Atomic      Atomic             Coordinates (Angstroms)
 Number     Number       Type             X           Y           Z
 ---------------------------------------------------------------------
      1          1           0        0.000000    0.000000    0.000000
      2          1           0        0.000000    0.000000    0.808676
      3          1           0        0.000000    0.000000   -0.808676
 ---------------------------------------------------------------------

 SCF Done:  E(UPM3) =  0.292038625491E-01 A.U. after    2 cycles

 The electronic state is 2-SGU.
 Alpha  occ. eigenvalues --   -0.71180  -0.36232
 Alpha virt. eigenvalues --    0.15662
  Beta  occ. eigenvalues --   -0.64583
  Beta virt. eigenvalues --    0.07197   0.20003

 Mulliken charges and spin densities:
               1          2
     1  H    0.144199  -0.169282
     2  H   -0.072099   0.584641
     3  H   -0.072099   0.584641
 Sum of Mulliken charges =  -0.00000   1.00000

 Dipole moment (field-independent basis, Debye):
    X=             -0.0000    Y=              0.0000    Z=             -0.0000  Tot=              0.0000
 N-N= 2.930284780294D+00 E-N=-2.213566336504D+00  KE=-1.868640269140D+00
  Exact polarizability:   0.000   0.000   0.000  -0.000   0.000  12.025
 Approx polarizability:   0.000  -0.000  -0.000  -0.000  -0.000   6.261
 Leave Link  601 at Wed Oct 21 14:25:51 2020, MaxMem=  2684354560 cpu:               3.2 elap:               0.9
 (Enter /udrive/faculty/rpeverati/g16/g16/l701.exe)
 ... and contract with generalized density number  0.
 Compute integral second derivatives.
 Leave Link  701 at Wed Oct 21 14:25:52 2020, MaxMem=  2684354560 cpu:               4.2 elap:               1.0
 (Enter /udrive/faculty/rpeverati/g16/g16/l702.exe)
 L702 exits ... SP integral derivatives will be done elsewhere.

                      1                      2                      3
                     PIU                    PIU                    SGU
 Frequencies --    262.1841               262.1841              2354.5740
 Red. masses --      1.0078                 1.0078                 1.0078
 Frc consts  --      0.0408                 0.0408                 3.2920
 IR Inten    --     30.1704                30.1704               947.2276

                      4
                     SGG
 Frequencies --   2806.3000
 Red. masses --      1.0078
 Frc consts  --      4.6763
 IR Inten    --      0.0000

 - Thermochemistry -
 -------------------
 Temperature   298.150 Kelvin.  Pressure   1.00000 Atm.
 Atom     1 has atomic number  1 and mass   1.00783

 Molecular mass:     3.02348 amu.
 Principal axes and moments of inertia in atomic units:
                           1         2         3
     Eigenvalues --     0.00000   4.70719   4.70719
           X           -0.00000   1.00000   0.00000
           Y            0.00000   0.00000   1.00000
           Z            1.00000   0.00000   0.00000
 This molecule is a prolate symmetric top.
 Rotational symmetry number  2.
 Rotational temperature (Kelvin)     18.40033
 Rotational constant (GHZ):         383.400688
 Zero-point vibrational energy      34005.3 (Joules/Mol)
                                    8.12746 (Kcal/Mol)
 Warning -- explicit consideration of   2 degrees of freedom as
           vibrations may cause significant error
 Vibrational temperatures:    377.22   377.22  3387.71  4037.64
          (Kelvin)

 Zero-point correction=                           0.012952 (Hartree/Particle)
 Thermal correction to Energy=                    0.016252
 Thermal correction to Enthalpy=                  0.017196
 Thermal correction to Gibbs Free Energy=        -0.001860
 Sum of electronic and zero-point Energies=              0.042156
 Sum of electronic and thermal Energies=                 0.045456
 Sum of electronic and thermal Enthalpies=               0.046400
 Sum of electronic and thermal Free Energies=            0.027344

                     E (Thermal)             CV                S
                      KCal/Mol        Cal/Mol-Kelvin    Cal/Mol-Kelvin
 Total                   10.198              8.456             40.106
 Electronic               0.000              0.000              1.377
 Translational            0.889              2.981             29.289
 Rotational               0.592              1.987              6.145
 Vibrational              8.717              3.488              3.295
 Vibration     1          0.669              1.742              1.647
 Vibration     2          0.669              1.742              1.647

 Optimization completed.
    -- Stationary point found.
 Normal termination of Gaussian 16 at Wed Oct 21 14:25:59 2020.
