 Gaussian 16, Revision A.03,

 ----------------------------------------------------------------------
 #P Opt(TS,MaxCyc=50,NoEigenTest,MaxStep=10,AddRedundant) PM3 5D 7F Int
 egral=UltraFineGrid SCF=(NoSymm,XQC,MaxCyc=120) IOp(1/33=1)
 ----------------------------------------------------------------------

 TstMul:  Mul=     2
 TstMul:  ICh=     0
 TstMul:  Mul=     2
 Symbolic Z-matrix:
 Charge =  0 Multiplicity = 2

 SCF Done:  E(UPM3) =  0.684634911428E-01 A.U. after   18 cycles
 SCF Done:  E(UPM3) =  0.660543950470E-01 A.U. after   14 cycles
 SCF Done:  E(UPM3) =  0.673977956486E-01 A.U. after   13 cycles
 SCF Done:  E(UPM3) =  0.671919263767E-01 A.U. after   13 cycles
 SCF Done:  E(UPM3) =  0.670339840198E-01 A.U. after   12 cycles
 SCF Done:  E(UPM3) =  0.668747112821E-01 A.U. after   14 cycles
 SCF Done:  E(UPM3) =  0.666695326797E-01 A.U. after   13 cycles
 SCF Done:  E(UPM3) =  0.664353544032E-01 A.U. after   13 cycles
 SCF Done:  E(UPM3) =  0.662251220251E-01 A.U. after   14 cycles
 SCF Done:  E(UPM3) =  0.659553852712E-01 A.U. after   14 cycles
 SCF Done:  E(UPM3) =  0.553143694337E-01 A.U. after   14 cycles
 SCF Done:  E(UPM3) =  0.555697697656E-01 A.U. after   15 cycles
 SCF Done:  E(UPM3) =  0.558317695275E-01 A.U. after   15 cycles
 SCF Done:  E(UPM3) =  0.556466608967E-01 A.U. after   15 cycles
 SCF Done:  E(UPM3) =  0.554326322372E-01 A.U. after   15 cycles
 SCF Done:  E(UPM3) =  0.556742486969E-01 A.U. after   15 cycles
 SCF Done:  E(UPM3) =  0.557141469999E-01 A.U. after   13 cycles
 SCF Done:  E(UPM3) =  0.557090927172E-01 A.U. after   14 cycles
 SCF Done:  E(UPM3) =  0.557084151288E-01 A.U. after   12 cycles
 Optimization completed.
    -- Stationary point found.
 Normal termination of Gaussian 16 at Wed Oct 21 14:38:36 2020.
 Gaussian 16:  ES64L-G16RevA.03 25-Dec-2016

 ----------------------------------------------------------------------
 #P Freq PM3 5D 7F Integral=UltraFineGrid SCF=(NoSymm,XQC,MaxCyc=120) I
 Op(1/33=1) Geom=Check Guess=Read
 ----------------------------------------------------------------------

 TstMul:  Mul=     2
 TstMul:  ICh=     0
 TstMul:  Mul=     2
 Structure from the checkpoint file:  "MN_88_RKT12_BH76_PM3_SE.chk"
 Charge =  0 Multiplicity = 2

                         Standard orientation:
 ---------------------------------------------------------------------
 Center     Atomic      Atomic             Coordinates (Angstroms)
 Number     Number       Type             X           Y           Z
 ---------------------------------------------------------------------
      1         15           0        0.167513    0.008435   -0.077522
      2          1           0       -0.006356    0.919798    0.870121
      3          1           0       -0.009028   -1.087968    0.648181
      4          1           0       -1.046351    0.087146   -0.765219
      5          1           0       -1.450963   -0.045497    0.409740
 ---------------------------------------------------------------------

 SCF Done:  E(UPM3) =  0.557084151288E-01 A.U. after    2 cycles

 The electronic state is 2-A.
 Alpha  occ. eigenvalues --   -1.02024  -0.50436  -0.47229  -0.41973  -0.28131
 Alpha virt. eigenvalues --    0.05330   0.06195   0.06266
  Beta  occ. eigenvalues --   -1.00471  -0.46918  -0.46535  -0.34298
  Beta virt. eigenvalues --    0.06231   0.06377   0.06783   0.10691

 Mulliken charges and spin densities:
               1          2
     1  P    0.576211   0.027762
     2  H   -0.142326   0.039058
     3  H   -0.142061   0.039550
     4  H   -0.067388   0.121306
     5  H   -0.224436   0.772325
 Sum of Mulliken charges =   0.00000   1.00000

 Dipole moment (field-independent basis, Debye):
    X=              0.1501    Y=             -0.0179    Z=              0.1751  Tot=              0.2313
 N-N= 1.382721093703D+01 E-N=-1.393133445307D+01  KE=-8.631534087451D+00
  Exact polarizability:  24.161  -0.177  18.617   1.566  -0.032  18.757
 Approx polarizability:  13.238  -0.227  12.668   2.046   0.062  11.996
 Leave Link  601 at Wed Oct 21 14:39:13 2020, MaxMem=  2684354560 cpu:               2.6 elap:               1.5
 (Enter /udrive/faculty/rpeverati/g16/g16/l701.exe)
 ... and contract with generalized density number  0.
 Compute integral second derivatives.
 Leave Link  701 at Wed Oct 21 14:39:15 2020, MaxMem=  2684354560 cpu:               6.5 elap:               1.6
 (Enter /udrive/faculty/rpeverati/g16/g16/l702.exe)
 L702 exits ... SP integral derivatives will be done elsewhere.

 ******    1 imaginary frequencies (negative Signs) ******

                      1                      2                      3
                      A                      A                      A
 Frequencies --  -1171.2569               486.4317               783.7267
 Red. masses --      1.0134                 1.0083                 1.0924
 Frc consts  --      0.8191                 0.1406                 0.3953
 IR Inten    --      1.4845                27.7121                 7.6112

                      4                      5                      6
                      A                      A                      A
 Frequencies --    951.1650              1011.3118              1401.2967
 Red. masses --      1.0392                 1.0346                 1.0101
 Frc consts  --      0.5539                 0.6234                 1.1686
 IR Inten    --     30.4492                43.9947                 5.3368

                      7                      8                      9
                      A                      A                      A
 Frequencies --   1567.2310              1629.1342              1655.3794
 Red. masses --      1.0498                 1.0397                 1.0246
 Frc consts  --      1.5192                 1.6258                 1.6543
 IR Inten    --     50.6867                66.0745                20.5228

 - Thermochemistry -
 -------------------
 Temperature   298.150 Kelvin.  Pressure   1.00000 Atm.
 Atom     1 has atomic number 15 and mass  30.97376

 Molecular mass:    35.00506 amu.
 Principal axes and moments of inertia in atomic units:
                           1         2         3
     Eigenvalues --    14.77959  21.26925  21.36462
           X            0.99805   0.06227   0.00490
           Y            0.00683  -0.18676   0.98238
           Z           -0.06209   0.98043   0.18682
 This molecule is an asymmetric top.
 Rotational symmetry number  1.
 Rotational temperatures (Kelvin)      5.86037     4.07226     4.05408
 Rotational constants (GHZ):         122.11036    84.85213    84.47336
    1 imaginary frequencies ignored.
 Zero-point vibrational energy      56736.9 (Joules/Mol)
                                   13.56046 (Kcal/Mol)
 Warning -- explicit consideration of   1 degrees of freedom as
           vibrations may cause significant error
 Vibrational temperatures:    699.87  1127.61  1368.51  1455.05  2016.15
          (Kelvin)           2254.90  2343.96  2381.72

 Zero-point correction=                           0.021610 (Hartree/Particle)
 Thermal correction to Energy=                    0.024856
 Thermal correction to Enthalpy=                  0.025801
 Thermal correction to Gibbs Free Energy=        -0.000656
 Sum of electronic and zero-point Energies=              0.077318
 Sum of electronic and thermal Energies=                 0.080565
 Sum of electronic and thermal Enthalpies=               0.081509
 Sum of electronic and thermal Free Energies=            0.055053

                     E (Thermal)             CV                S
                      KCal/Mol        Cal/Mol-Kelvin    Cal/Mol-Kelvin
 Total                   15.598              8.973             55.682
 Electronic               0.000              0.000              1.377
 Translational            0.889              2.981             36.589
 Rotational               0.889              2.981             16.559
 Vibrational             13.820              3.012              1.157
 Vibration     1          0.842              1.280              0.693

                           ! Non-Optimized Parameters !
 Normal termination of Gaussian 16 at Wed Oct 21 14:39:26 2020.
