 Gaussian 16, Revision A.03,

 ----------------------------------------------------------------------
 #P Opt(TS,MaxCyc=50,NoEigenTest,MaxStep=10,AddRedundant) PM3 5D 7F Int
 egral=UltraFineGrid SCF=(NoSymm,XQC,MaxCyc=120) IOp(1/33=1)
 ----------------------------------------------------------------------

 TstMul:  Mul=     2
 TstMul:  ICh=     0
 TstMul:  Mul=     2
 Symbolic Z-matrix:
 Charge =  0 Multiplicity = 2

 SCF Done:  E(UPM3) =  0.264431334677E-01 A.U. after   20 cycles
 SCF Done:  E(UPM3) =  0.242175622640E-01 A.U. after   17 cycles
 SCF Done:  E(UPM3) =  0.229341911407E-01 A.U. after   19 cycles
 SCF Done:  E(UPM3) =  0.209011138247E-01 A.U. after   19 cycles
 SCF Done:  E(UPM3) =  0.214732329388E-01 A.U. after   17 cycles
 SCF Done:  E(UPM3) =  0.219971470597E-01 A.U. after   18 cycles
 SCF Done:  E(UPM3) =  0.223355784575E-01 A.U. after   18 cycles
 SCF Done:  E(UPM3) =  0.220033543737E-01 A.U. after   17 cycles
 SCF Done:  E(UPM3) =  0.219134563461E-01 A.U. after   18 cycles
 SCF Done:  E(UPM3) =  0.218400083318E-01 A.U. after   17 cycles
 SCF Done:  E(UPM3) =  0.216995952611E-01 A.U. after   17 cycles
 SCF Done:  E(UPM3) =  0.216488656680E-01 A.U. after   17 cycles
 SCF Done:  E(UPM3) =  0.215812744465E-01 A.U. after   18 cycles
 SCF Done:  E(UPM3) =  0.215543737558E-01 A.U. after   17 cycles
 SCF Done:  E(UPM3) =  0.215433435458E-01 A.U. after   16 cycles
 SCF Done:  E(UPM3) =  0.215456972736E-01 A.U. after   15 cycles
 SCF Done:  E(UPM3) =  0.215452196631E-01 A.U. after   17 cycles
 SCF Done:  E(UPM3) =  0.215447571779E-01 A.U. after   17 cycles
 SCF Done:  E(UPM3) =  0.215446887472E-01 A.U. after   16 cycles
 Optimization completed.
    -- Stationary point found.
 Normal termination of Gaussian 16 at Wed Oct 21 14:32:10 2020.
 Gaussian 16:  ES64L-G16RevA.03 25-Dec-2016

 ----------------------------------------------------------------------
 #P Freq PM3 5D 7F Integral=UltraFineGrid SCF=(NoSymm,XQC,MaxCyc=120) I
 Op(1/33=1) Geom=Check Guess=Read
 ----------------------------------------------------------------------

 TstMul:  Mul=     2
 TstMul:  ICh=     0
 TstMul:  Mul=     2
 Structure from the checkpoint file:  "MN_83_RKT07_BH76_PM3_SE.chk"
 Charge =  0 Multiplicity = 2

                         Standard orientation:
 ---------------------------------------------------------------------
 Center     Atomic      Atomic             Coordinates (Angstroms)
 Number     Number       Type             X           Y           Z
 ---------------------------------------------------------------------
      1          7           0       -1.111990    0.006794   -0.121664
      2          8           0        1.098958   -0.008721    0.131519
      3          1           0       -1.309754   -0.829958    0.376019
      4          1           0       -1.305807    0.788886    0.459446
      5          1           0       -0.054539    0.018960   -0.414294
      6          1           0        1.662370    0.044323   -0.621674
 ---------------------------------------------------------------------

 SCF Done:  E(UPM3) =  0.215446887472E-01 A.U. after    2 cycles

 The electronic state is 2-A.
 Alpha  occ. eigenvalues --   -1.29109  -1.03684  -0.62277  -0.58956  -0.56547
 Alpha  occ. eigenvalues --   -0.44382  -0.43309  -0.39794
 Alpha virt. eigenvalues --    0.10779   0.16874   0.17788   0.19718
  Beta  occ. eigenvalues --   -1.28470  -1.02477  -0.59090  -0.58559  -0.54832
  Beta  occ. eigenvalues --   -0.43042  -0.36774
  Beta virt. eigenvalues --   -0.04023   0.11708   0.17161   0.19101   0.20091

 Mulliken charges and spin densities:
               1          2
     1  N    0.049582   0.563504
     2  O   -0.423522   0.584639
     3  H    0.030223  -0.016643
     4  H    0.030178  -0.016671
     5  H    0.135290  -0.098653
     6  H    0.178248  -0.016176
 Sum of Mulliken charges =   0.00000   1.00000

 Dipole moment (field-independent basis, Debye):
    X=             -0.9800    Y=              0.0346    Z=             -0.2578  Tot=              1.0139
 N-N= 4.057242231474D+01 E-N=-4.043940807073D+01  KE=-3.044935115309D+01
  Exact polarizability:  68.610  -0.291   7.588   5.524  -0.099   8.391
 Approx polarizability:  21.941  -0.039   4.347   0.932  -0.049   4.629
 Leave Link  601 at Wed Oct 21 14:32:42 2020, MaxMem=  2684354560 cpu:               2.3 elap:               1.0
 (Enter /udrive/faculty/rpeverati/g16/g16/l701.exe)
 ... and contract with generalized density number  0.
 Compute integral second derivatives.
 Leave Link  701 at Wed Oct 21 14:32:45 2020, MaxMem=  2684354560 cpu:               4.8 elap:               1.3
 (Enter /udrive/faculty/rpeverati/g16/g16/l702.exe)
 L702 exits ... SP integral derivatives will be done elsewhere.

 ******    1 imaginary frequencies (negative Signs) ******

                      1                      2                      3
                      A                      A                      A
 Frequencies --  -2192.0861                43.2315               126.2555
 Red. masses --      1.0735                 1.0539                 2.9390
 Frc consts  --      3.0392                 0.0012                 0.0276
 IR Inten    --   3375.1429               102.8200                 7.8753

                      4                      5                      6
                      A                      A                      A
 Frequencies --    396.1260               922.4303              1111.3124
 Red. masses --      1.0435                 1.2614                 1.1829
 Frc consts  --      0.0965                 0.6324                 0.8607
 IR Inten    --     60.9730                16.5888                84.8400

                      7                      8                      9
                      A                      A                      A
 Frequencies --   1453.9594              1632.1297              1838.5710
 Red. masses --      1.0747                 1.1501                 1.0397
 Frc consts  --      1.3386                 1.8051                 2.0707
 IR Inten    --      7.9946               510.1597              1077.5751

                     10                     11                     12
                      A                      A                      A
 Frequencies --   3501.7092              3631.2133              3997.9185
 Red. masses --      1.0872                 1.0386                 1.0636
 Frc consts  --      7.8547                 8.0685                10.0156
 IR Inten    --      0.2184                 4.2822                38.6574

 - Thermochemistry -
 -------------------
 Temperature   298.150 Kelvin.  Pressure   1.00000 Atm.
 Atom     1 has atomic number  7 and mass  14.00307

 Molecular mass:    34.02929 amu.
 Principal axes and moments of inertia in atomic units:
                           1         2         3
     Eigenvalues --     9.36164 157.97539 158.09449
           X            0.99874   0.01586  -0.04754
           Y           -0.00309   0.96627   0.25750
           Z            0.05002  -0.25703   0.96511
 This molecule is an asymmetric top.
 Rotational symmetry number  1.
 Rotational temperatures (Kelvin)      9.25201     0.54827     0.54786
 Rotational constants (GHZ):         192.78054    11.42419    11.41559
    1 imaginary frequencies ignored.
 Zero-point vibrational energy     111580.8 (Joules/Mol)
                                   26.66846 (Kcal/Mol)
 Warning -- explicit consideration of   3 degrees of freedom as
           vibrations may cause significant error
 Vibrational temperatures:     62.20   181.65   569.94  1327.17  1598.93
          (Kelvin)           2091.92  2348.27  2645.29  5038.18  5224.51
                             5752.11

 Zero-point correction=                           0.042499 (Hartree/Particle)
 Thermal correction to Energy=                    0.047263
 Thermal correction to Enthalpy=                  0.048207
 Thermal correction to Gibbs Free Energy=         0.016248
 Sum of electronic and zero-point Energies=              0.064044
 Sum of electronic and thermal Energies=                 0.068807
 Sum of electronic and thermal Enthalpies=               0.069752
 Sum of electronic and thermal Free Energies=            0.037792

                     E (Thermal)             CV                S
                      KCal/Mol        Cal/Mol-Kelvin    Cal/Mol-Kelvin
 Total                   29.658             12.244             67.264
 Electronic               0.000              0.000              1.377
 Translational            0.889              2.981             36.505
 Rotational               0.889              2.981             20.086
 Vibrational             27.880              6.283              9.296
 Vibration     1          0.595              1.980              5.105
 Vibration     2          0.611              1.927              3.002
 Vibration     3          0.763              1.478              0.977

                           ! Non-Optimized Parameters !
 Normal termination of Gaussian 16 at Wed Oct 21 14:32:55 2020.
