 Gaussian 16, Revision A.03,

 ----------------------------------------------------------------------
 #P Opt(TS,MaxCyc=50,NoEigenTest,MaxStep=10,AddRedundant) PM3 5D 7F Int
 egral=UltraFineGrid SCF=(NoSymm,XQC,MaxCyc=120) IOp(1/33=1)
 ----------------------------------------------------------------------

 TstMul:  Mul=     3
 TstMul:  ICh=     0
 TstMul:  Mul=     3
 Symbolic Z-matrix:
 Charge =  0 Multiplicity = 3

 SCF Done:  E(UPM3) =  0.954082025263E-01 A.U. after   13 cycles
 SCF Done:  E(UPM3) =  0.919594429596E-01 A.U. after  121 cycles
 SCF Done:  E(UPM3) =  0.919593893236E-01 a.u. after    3 cycles
 SCF Done:  E(UPM3) =  0.897660287911E-01 A.U. after   13 cycles
 SCF Done:  E(UPM3) =  0.885677617945E-01 A.U. after   12 cycles
 SCF Done:  E(UPM3) =  0.910869517675E-01 A.U. after   23 cycles
 SCF Done:  E(UPM3) =  0.925847055048E-01 A.U. after   14 cycles
 SCF Done:  E(UPM3) =  0.940595942065E-01 A.U. after   12 cycles
 SCF Done:  E(UPM3) =  0.947340066392E-01 A.U. after   14 cycles
 SCF Done:  E(UPM3) =  0.948076921607E-01 A.U. after   14 cycles
 SCF Done:  E(UPM3) =  0.948138384154E-01 A.U. after   11 cycles
 Optimization completed.
    -- Stationary point found.
 Normal termination of Gaussian 16 at Wed Oct 21 14:28:18 2020.
 Gaussian 16:  ES64L-G16RevA.03 25-Dec-2016

 ----------------------------------------------------------------------
 #P Freq PM3 5D 7F Integral=UltraFineGrid SCF=(NoSymm,XQC,MaxCyc=120) I
 Op(1/33=1) Geom=Check Guess=Read
 ----------------------------------------------------------------------

 TstMul:  Mul=     3
 TstMul:  ICh=     0
 TstMul:  Mul=     3
 Structure from the checkpoint file:  "MN_89_RKT14_BH76_PM3_SE.chk"
 Charge =  0 Multiplicity = 3

                         Standard orientation:
 ---------------------------------------------------------------------
 Center     Atomic      Atomic             Coordinates (Angstroms)
 Number     Number       Type             X           Y           Z
 ---------------------------------------------------------------------
      1          1           0       -0.008619   -0.933961    0.000000
      2          8           0       -0.000000    0.330533   -0.000000
      3          1           0        0.008619   -1.710307    0.000000
 ---------------------------------------------------------------------

 SCF Done:  E(UPM3) =  0.948138384154E-01 A.U. after    2 cycles

 The electronic state is 3-A".
 Alpha  occ. eigenvalues --   -1.16978  -0.68478  -0.53815  -0.49229  -0.43920
 Alpha virt. eigenvalues --    0.13184
  Beta  occ. eigenvalues --   -1.13830  -0.59943  -0.45335
  Beta virt. eigenvalues --   -0.02037  -0.01753   0.16764

 Mulliken charges and spin densities:
               1          2
     1  H    0.137840  -0.153503
     2  O   -0.141917   1.698094
     3  H    0.004077   0.455409
 Sum of Mulliken charges =  -0.00000   2.00000

 Dipole moment (field-independent basis, Debye):
    X=             -0.0069    Y=             -1.1189    Z=             -0.0000  Tot=              1.1189
 N-N= 1.588441981502D+01 E-N=-7.403411504755D+00  KE=-1.866051070840D+01
  Exact polarizability:   0.058  -0.083  16.407   0.000   0.000   0.546
 Approx polarizability:   0.017  -0.051   9.756  -0.000  -0.000   0.327
 Leave Link  601 at Wed Oct 21 14:28:51 2020, MaxMem=  2684354560 cpu:               2.0 elap:               1.2
 (Enter /udrive/faculty/rpeverati/g16/g16/l701.exe)
 ... and contract with generalized density number  0.
 Compute integral second derivatives.
 Leave Link  701 at Wed Oct 21 14:28:54 2020, MaxMem=  2684354560 cpu:               3.3 elap:               1.5
 (Enter /udrive/faculty/rpeverati/g16/g16/l702.exe)
 L702 exits ... SP integral derivatives will be done elsewhere.

 ******    1 imaginary frequencies (negative Signs) ******

                      1                      2                      3
                     A'                     A'                     A'
 Frequencies --  -2032.6793               200.5621              2684.6568
 Red. masses --      1.1030                 1.0141                 1.0268
 Frc consts  --      2.6852                 0.0240                 4.3602
 IR Inten    --     47.3777                21.1029                17.3417

 - Thermochemistry -
 -------------------
 Temperature   298.150 Kelvin.  Pressure   1.00000 Atm.
 Atom     1 has atomic number  1 and mass   1.00783

 Molecular mass:    18.01056 amu.
 Principal axes and moments of inertia in atomic units:
                           1         2         3
     Eigenvalues --     0.00050  18.54437  18.54488
           X           -0.00130   1.00000   0.00000
           Y            1.00000   0.00130   0.00000
           Z           -0.00000   0.00000   1.00000
 This molecule is an asymmetric top.
 Rotational symmetry number  1.
 Rotational temperatures (Kelvin) 172027.23671     4.67063     4.67050
 Rotational constants (GHZ):      ************    97.32015    97.31751
    1 imaginary frequencies ignored.
 Zero-point vibrational energy      17257.4 (Joules/Mol)
                                    4.12463 (Kcal/Mol)
 Warning -- explicit consideration of   1 degrees of freedom as
           vibrations may cause significant error
 Vibrational temperatures:    288.56  3862.62
          (Kelvin)

 Zero-point correction=                           0.006573 (Hartree/Particle)
 Thermal correction to Energy=                    0.009965
 Thermal correction to Enthalpy=                  0.010910
 Thermal correction to Gibbs Free Energy=        -0.010462
 Sum of electronic and zero-point Energies=              0.101387
 Sum of electronic and thermal Energies=                 0.104779
 Sum of electronic and thermal Enthalpies=               0.105723
 Sum of electronic and thermal Free Energies=            0.084352

                     E (Thermal)             CV                S
                      KCal/Mol        Cal/Mol-Kelvin    Cal/Mol-Kelvin
 Total                    6.253              7.801             44.980
 Electronic               0.000              0.000              2.183
 Translational            0.889              2.981             34.608
 Rotational               0.889              2.981              6.061
 Vibrational              4.476              1.840              2.128
 Vibration     1          0.638              1.839              2.128

                           ! Non-Optimized Parameters !
 Normal termination of Gaussian 16 at Wed Oct 21 14:29:04 2020.
