 Gaussian 16, Revision A.03,

 ----------------------------------------------------------------------
 #P Opt(TS,MaxCyc=50,NoEigenTest,MaxStep=10,AddRedundant) PM3 5D 7F Int
 egral=UltraFineGrid SCF=(NoSymm,XQC,MaxCyc=120) IOp(1/33=1)
 ----------------------------------------------------------------------

 TstMul:  Mul=     2
 TstMul:  ICh=     0
 TstMul:  Mul=     2
 Symbolic Z-matrix:
 Charge =  0 Multiplicity = 2

 SCF Done:  E(UPM3) =  0.112568690137E-01 A.U. after   17 cycles
 SCF Done:  E(UPM3) =  0.108296670126E-01 A.U. after   15 cycles
 SCF Done:  E(UPM3) =  0.109043795990E-01 A.U. after   14 cycles
 SCF Done:  E(UPM3) =  0.108139054894E-01 A.U. after   14 cycles
 SCF Done:  E(UPM3) =  0.104920678145E-01 A.U. after   15 cycles
 SCF Done:  E(UPM3) =  0.107870444033E-01 A.U. after   15 cycles
 SCF Done:  E(UPM3) =  0.110921813462E-01 A.U. after   15 cycles
 SCF Done:  E(UPM3) =  0.114000725767E-01 A.U. after   15 cycles
 SCF Done:  E(UPM3) =  0.114216589769E-01 A.U. after   15 cycles
 SCF Done:  E(UPM3) =  0.114200167086E-01 A.U. after   14 cycles
 SCF Done:  E(UPM3) =  0.114194801430E-01 A.U. after   12 cycles
 Optimization completed.
    -- Stationary point found.
 Normal termination of Gaussian 16 at Wed Oct 21 14:26:36 2020.
 Gaussian 16:  ES64L-G16RevA.03 25-Dec-2016

 ----------------------------------------------------------------------
 #P Freq PM3 5D 7F Integral=UltraFineGrid SCF=(NoSymm,XQC,MaxCyc=120) I
 Op(1/33=1) Geom=Check Guess=Read
 ----------------------------------------------------------------------

 TstMul:  Mul=     2
 TstMul:  ICh=     0
 TstMul:  Mul=     2
 Structure from the checkpoint file:  "MN_84_RKT08_BH76_PM3_SE.chk"
 Charge =  0 Multiplicity = 2

                         Standard orientation:
 ---------------------------------------------------------------------
 Center     Atomic      Atomic             Coordinates (Angstroms)
 Number     Number       Type             X           Y           Z
 ---------------------------------------------------------------------
      1          6           0        1.776281    0.000099    0.000052
      2          1           0        2.018992   -0.743202   -0.743035
      3          1           0        2.018389   -0.270963    1.015647
      4          1           0        2.014554    1.016208   -0.272606
      5          1           0        0.455217   -0.002388   -0.001011
      6         17           0       -1.009696   -0.000015    0.000041
 ---------------------------------------------------------------------

 SCF Done:  E(UPM3) =  0.114194801430E-01 A.U. after    2 cycles

 The electronic state is 2-A.
 Alpha  occ. eigenvalues --   -2.03577  -1.11220  -0.55020  -0.54986  -0.54981
 Alpha  occ. eigenvalues --   -0.39537  -0.39537  -0.36849
 Alpha virt. eigenvalues --    0.08924   0.11020   0.13591   0.13593
  Beta  occ. eigenvalues --   -1.98183  -1.07771  -0.54026  -0.54023  -0.51532
  Beta  occ. eigenvalues --   -0.39535  -0.39535
  Beta virt. eigenvalues --   -0.08211   0.10901   0.12366   0.14834   0.14836

 Mulliken charges and spin densities:
               1          2
     1  C   -0.109550   0.748685
     2  H    0.056889  -0.038862
     3  H    0.056927  -0.038887
     4  H    0.056915  -0.038904
     5  H    0.145479  -0.103229
     6  Cl  -0.206660   0.471197
 Sum of Mulliken charges =  -0.00000   1.00000

 Dipole moment (field-independent basis, Debye):
    X=              2.5733    Y=             -0.0016    Z=             -0.0012  Tot=              2.5733
 N-N= 3.602128768084D+01 E-N=-3.366663799316D+01  KE=-2.694998950077D+01
  Exact polarizability:  49.885  -0.027   7.677  -0.005   0.001   7.673
 Approx polarizability:  26.074  -0.017   4.521  -0.002   0.000   4.519
 Leave Link  601 at Wed Oct 21 14:27:02 2020, MaxMem=  2684354560 cpu:               2.4 elap:               0.9
 (Enter /udrive/faculty/rpeverati/g16/g16/l701.exe)
 ... and contract with generalized density number  0.
 Compute integral second derivatives.
 Leave Link  701 at Wed Oct 21 14:27:04 2020, MaxMem=  2684354560 cpu:               4.5 elap:               1.0
 (Enter /udrive/faculty/rpeverati/g16/g16/l702.exe)
 L702 exits ... SP integral derivatives will be done elsewhere.

 ******    1 imaginary frequencies (negative Signs) ******

                      1                      2                      3
                      A                      A                      A
 Frequencies --  -1294.3201               288.6210               288.9269
 Red. masses --      1.1499                 1.0285                 1.0285
 Frc consts  --      1.1350                 0.0505                 0.0506
 IR Inten    --    157.2949                12.8219                12.8442

                      4                      5                      6
                      A                      A                      A
 Frequencies --    467.2693               849.9574               851.6163
 Red. masses --      3.6622                 1.0662                 1.0663
 Frc consts  --      0.4711                 0.4538                 0.4556
 IR Inten    --      0.0016                30.4431                30.4647

                      7                      8                      9
                      A                      A                      A
 Frequencies --   1223.4332              1317.8304              1318.0741
 Red. masses --      1.1838                 1.0940                 1.0939
 Frc consts  --      1.0440                 1.1194                 1.1197
 IR Inten    --     15.6581                 0.1844                 0.1822

                     10                     11                     12
                      A                      A                      A
 Frequencies --   3208.1976              3225.8647              3226.0197
 Red. masses --      1.0166                 1.1083                 1.1083
 Frc consts  --      6.1650                 6.7953                 6.7959
 IR Inten    --      6.5952                 6.1759                 6.1771

 - Thermochemistry -
 -------------------
 Temperature   298.150 Kelvin.  Pressure   1.00000 Atm.
 Atom     1 has atomic number  6 and mass  12.00000

 Molecular mass:    51.00015 amu.
 Principal axes and moments of inertia in atomic units:
                           1         2         3
     Eigenvalues --    11.93580 309.29911 309.30091
           X            1.00000  -0.00002   0.00000
           Y            0.00002   1.00000  -0.00003
           Z           -0.00000   0.00003   1.00000
 This molecule is an asymmetric top.
 Rotational symmetry number  1.
 Rotational temperatures (Kelvin)      7.25665     0.28003     0.28003
 Rotational constants (GHZ):         151.20410     5.83494     5.83490
    1 imaginary frequencies ignored.
 Zero-point vibrational energy      97291.2 (Joules/Mol)
                                   23.25314 (Kcal/Mol)
 Warning -- explicit consideration of   3 degrees of freedom as
           vibrations may cause significant error
 Vibrational temperatures:    415.26   415.70   672.30  1222.90  1225.29
          (Kelvin)           1760.25  1896.06  1896.41  4615.88  4641.30
                             4641.52

 Zero-point correction=                           0.037056 (Hartree/Particle)
 Thermal correction to Energy=                    0.041173
 Thermal correction to Enthalpy=                  0.042117
 Thermal correction to Gibbs Free Energy=         0.011288
 Sum of electronic and zero-point Energies=              0.048476
 Sum of electronic and thermal Energies=                 0.052592
 Sum of electronic and thermal Enthalpies=               0.053537
 Sum of electronic and thermal Free Energies=            0.022708

                     E (Thermal)             CV                S
                      KCal/Mol        Cal/Mol-Kelvin    Cal/Mol-Kelvin
 Total                   25.836             12.284             64.885
 Electronic               0.000              0.000              1.377
 Translational            0.889              2.981             37.711
 Rotational               0.889              2.981             21.662
 Vibrational             24.059              6.322              4.135
 Vibration     1          0.685              1.695              1.482
 Vibration     2          0.685              1.694              1.480
 Vibration     3          0.825              1.323              0.745

                           ! Non-Optimized Parameters !
 Normal termination of Gaussian 16 at Wed Oct 21 14:27:11 2020.
