 Gaussian 16, Revision A.03,

 ----------------------------------------------------------------------
 #P Opt(TS,MaxCyc=50,NoEigenTest,MaxStep=10,AddRedundant) PM3 5D 7F Int
 egral=UltraFineGrid SCF=(NoSymm,XQC,MaxCyc=120) IOp(1/33=1)
 ----------------------------------------------------------------------

 TstMul:  Mul=     2
 TstMul:  ICh=     0
 TstMul:  Mul=     2
 Symbolic Z-matrix:
 Charge =  0 Multiplicity = 2

 SCF Done:  E(UPM3) =  0.149444585822E-02 A.U. after   19 cycles
 SCF Done:  E(UPM3) =  0.561557651146E-03 A.U. after   16 cycles
 SCF Done:  E(UPM3) =  0.718635937659E-03 A.U. after   17 cycles
 SCF Done:  E(UPM3) =  0.870176640255E-03 A.U. after   17 cycles
 SCF Done:  E(UPM3) =  0.732495834832E-03 A.U. after   15 cycles
 SCF Done:  E(UPM3) =  0.661232836727E-03 A.U. after   17 cycles
 SCF Done:  E(UPM3) =  0.657795004869E-03 A.U. after   15 cycles
 SCF Done:  E(UPM3) =  0.657596061373E-03 A.U. after   13 cycles
 Optimization completed.
    -- Stationary point found.
 Normal termination of Gaussian 16 at Wed Oct 21 14:25:49 2020.
 Gaussian 16:  ES64L-G16RevA.03 25-Dec-2016

 ----------------------------------------------------------------------
 #P Freq PM3 5D 7F Integral=UltraFineGrid SCF=(NoSymm,XQC,MaxCyc=120) I
 Op(1/33=1) Geom=Check Guess=Read
 ----------------------------------------------------------------------

 TstMul:  Mul=     2
 TstMul:  ICh=     0
 TstMul:  Mul=     2
 Structure from the checkpoint file:  "MN_81_RKT04_BH76_PM3_SE.chk"
 Charge =  0 Multiplicity = 2

                         Standard orientation:
 ---------------------------------------------------------------------
 Center     Atomic      Atomic             Coordinates (Angstroms)
 Number     Number       Type             X           Y           Z
 ---------------------------------------------------------------------
      1          6           0       -1.211243    0.009610    0.000005
      2          8           0        1.289442   -0.108227   -0.000062
      3          1           0       -0.007941   -0.104370   -0.000115
      4          1           0       -1.545709   -0.438142    0.926383
      5          1           0       -1.424342    1.068654   -0.053601
      6          1           0       -1.554053   -0.530550   -0.872465
      7          1           0        1.483967    0.812564    0.000266
 ---------------------------------------------------------------------

 SCF Done:  E(UPM3) =  0.657596061345E-03 A.U. after    2 cycles

 The electronic state is 2-A.
 Alpha  occ. eigenvalues --   -1.29795  -1.08207  -0.60628  -0.56266  -0.52678
 Alpha  occ. eigenvalues --   -0.52644  -0.45554  -0.40071
 Alpha virt. eigenvalues --    0.13244   0.14532   0.15092   0.15254   0.18528
  Beta  occ. eigenvalues --   -1.28916  -1.05885  -0.58554  -0.52012  -0.51931
  Beta  occ. eigenvalues --   -0.49823  -0.43961
  Beta virt. eigenvalues --   -0.03563   0.14149   0.16046   0.16232   0.16820
  Beta virt. eigenvalues --    0.19113

 Mulliken charges and spin densities:
               1          2
     1  C   -0.114008   0.549733
     2  O   -0.317883   0.695105
     3  H    0.132203  -0.138996
     4  H    0.045899  -0.027889
     5  H    0.036756  -0.027931
     6  H    0.046309  -0.027884
     7  H    0.170725  -0.022138
 Sum of Mulliken charges =  -0.00000   1.00000

 Dipole moment (field-independent basis, Debye):
    X=             -1.1955    Y=              1.3417    Z=              0.0009  Tot=              1.7970
 N-N= 3.911421186156D+01 E-N=-3.982060595940D+01  KE=-2.803725524868D+01
  Exact polarizability:  31.910   0.762  11.951   0.003  -0.002   7.740
 Approx polarizability:  17.214   0.096   7.306   0.002  -0.001   4.586
 Leave Link  601 at Wed Oct 21 14:26:22 2020, MaxMem=  2684354560 cpu:               3.0 elap:               1.0
 (Enter /udrive/faculty/rpeverati/g16/g16/l701.exe)
 ... and contract with generalized density number  0.
 Compute integral second derivatives.
 Leave Link  701 at Wed Oct 21 14:26:24 2020, MaxMem=  2684354560 cpu:               4.5 elap:               1.0
 (Enter /udrive/faculty/rpeverati/g16/g16/l702.exe)
 L702 exits ... SP integral derivatives will be done elsewhere.

 ******    1 imaginary frequencies (negative Signs) ******

                      1                      2                      3
                      A                      A                      A
 Frequencies --  -2351.7234                26.9216               257.3020
 Red. masses --      1.0806                 1.0501                 1.0550
 Frc consts  --      3.5210                 0.0004                 0.0412
 IR Inten    --   1014.9581                71.0633                10.5447

                      4                      5                      6
                      A                      A                      A
 Frequencies --    295.9896               650.0984               914.6681
 Red. masses --      1.0621                 5.7579                 1.1452
 Frc consts  --      0.0548                 1.4338                 0.5645
 IR Inten    --     14.1375                58.0449                54.6736

                      7                      8                      9
                      A                      A                      A
 Frequencies --   1126.1077              1247.3542              1357.1612
 Red. masses --      1.0957                 1.0947                 1.1013
 Frc consts  --      0.8187                 1.0035                 1.1952
 IR Inten    --     21.0203                 7.5554                 4.5025

                     10                     11                     12
                      A                      A                      A
 Frequencies --   1358.8482              1388.6948              3219.7582
 Red. masses --      1.0754                 1.0441                 1.1011
 Frc consts  --      1.1700                 1.1863                 6.7256
 IR Inten    --      0.1497                43.2214                 0.9942

                     13                     14                     15
                      A                      A                      A
 Frequencies --   3222.1406              3245.2665              3996.9146
 Red. masses --      1.1013                 1.0210                 1.0643
 Frc consts  --      6.7366                 6.3356                10.0177
 IR Inten    --      2.1936                 2.2983                 4.5851

 - Thermochemistry -
 -------------------
 Temperature   298.150 Kelvin.  Pressure   1.00000 Atm.
 Atom     1 has atomic number  6 and mass  12.00000

 Molecular mass:    33.03404 amu.
 Principal axes and moments of inertia in atomic units:
                           1         2         3
     Eigenvalues --    14.58578 195.29698 198.20574
           X            0.99976   0.02180   0.00001
           Y           -0.02180   0.99976  -0.00004
           Z           -0.00001   0.00004   1.00000
 This molecule is an asymmetric top.
 Rotational symmetry number  1.
 Rotational temperatures (Kelvin)      5.93824     0.44350     0.43699
 Rotational constants (GHZ):         123.73293     9.24101     9.10539
    1 imaginary frequencies ignored.
 Zero-point vibrational energy     133426.8 (Joules/Mol)
                                   31.88978 (Kcal/Mol)
 Warning -- explicit consideration of   3 degrees of freedom as
           vibrations may cause significant error
 Vibrational temperatures:     38.73   370.20   425.86   935.35  1316.00
          (Kelvin)           1620.22  1794.66  1952.65  1955.08  1998.02
                             4632.51  4635.94  4669.21  5750.67

 Zero-point correction=                           0.050820 (Hartree/Particle)
 Thermal correction to Energy=                    0.055685
 Thermal correction to Enthalpy=                  0.056629
 Thermal correction to Gibbs Free Energy=         0.024048
 Sum of electronic and zero-point Energies=              0.051477
 Sum of electronic and thermal Energies=                 0.056343
 Sum of electronic and thermal Enthalpies=               0.057287
 Sum of electronic and thermal Free Energies=            0.024705

                     E (Thermal)             CV                S
                      KCal/Mol        Cal/Mol-Kelvin    Cal/Mol-Kelvin
 Total                   34.943             13.574             68.574
 Electronic               0.000              0.000              1.377
 Translational            0.889              2.981             36.416
 Rotational               0.889              2.981             20.962
 Vibrational             33.165              7.613              9.818
 Vibration     1          0.593              1.984              6.044
 Vibration     2          0.667              1.750              1.680
 Vibration     3          0.690              1.681              1.439

                           ! Non-Optimized Parameters !
 Normal termination of Gaussian 16 at Wed Oct 21 14:26:32 2020.
