 Gaussian 16, Revision A.03,

 ----------------------------------------------------------------------
 #P Opt(TS,MaxCyc=50,NoEigenTest,MaxStep=10,AddRedundant) PM3 5D 7F Int
 egral=UltraFineGrid SCF=(NoSymm,XQC,MaxCyc=120) IOp(1/33=1)
 ----------------------------------------------------------------------

 TstMul:  Mul=     2
 TstMul:  ICh=     0
 TstMul:  Mul=     2
 Symbolic Z-matrix:
 Charge =  0 Multiplicity = 2

 SCF Done:  E(UPM3) =  0.601883852287E-02 A.U. after   15 cycles
 SCF Done:  E(UPM3) =  0.617095237993E-02 A.U. after   14 cycles
 SCF Done:  E(UPM3) =  0.648302304795E-02 A.U. after   13 cycles
 SCF Done:  E(UPM3) =  0.653266062303E-02 A.U. after   13 cycles
 SCF Done:  E(UPM3) =  0.544995156064E-02 A.U. after   13 cycles
 SCF Done:  E(UPM3) =  0.643195914516E-02 A.U. after   14 cycles
 SCF Done:  E(UPM3) =  0.622776067685E-02 A.U. after   13 cycles
 SCF Done:  E(UPM3) =  0.551993669619E-02 A.U. after   13 cycles
 SCF Done:  E(UPM3) =  0.466664825762E-02 A.U. after   13 cycles
 SCF Done:  E(UPM3) =  0.366593014386E-02 A.U. after   13 cycles
 SCF Done:  E(UPM3) =  0.274534844348E-02 A.U. after   13 cycles
 SCF Done:  E(UPM3) =  0.239044428698E-02 A.U. after   13 cycles
 SCF Done:  E(UPM3) =  0.280925119345E-02 A.U. after   14 cycles
 SCF Done:  E(UPM3) =  0.268572524744E-02 A.U. after   13 cycles
 SCF Done:  E(UPM3) =  0.268798584839E-02 A.U. after   12 cycles
 Optimization completed.
    -- Stationary point found.
 Normal termination of Gaussian 16 at Wed Oct 21 14:27:48 2020.
 Gaussian 16:  ES64L-G16RevA.03 25-Dec-2016

 ----------------------------------------------------------------------
 #P Freq PM3 5D 7F Integral=UltraFineGrid SCF=(NoSymm,XQC,MaxCyc=120) I
 Op(1/33=1) Geom=Check Guess=Read
 ----------------------------------------------------------------------

 TstMul:  Mul=     2
 TstMul:  ICh=     0
 TstMul:  Mul=     2
 Structure from the checkpoint file:  "MN_86_RKT10_BH76_PM3_SE.chk"
 Charge =  0 Multiplicity = 2

                         Standard orientation:
 ---------------------------------------------------------------------
 Center     Atomic      Atomic             Coordinates (Angstroms)
 Number     Number       Type             X           Y           Z
 ---------------------------------------------------------------------
      1          1           0        0.319709   -0.993704    0.000000
      2          9           0        0.000000    0.269625    0.000000
      3          1           0       -0.319709   -1.432922    0.000000
 ---------------------------------------------------------------------

 SCF Done:  E(UPM3) =  0.268798584837E-02 A.U. after    2 cycles

 The electronic state is 2-A'.
 Alpha  occ. eigenvalues --   -0.85448  -0.63725  -0.56173  -0.56066  -0.45071
 Alpha virt. eigenvalues --    0.09298
  Beta  occ. eigenvalues --   -0.79440  -0.61049  -0.55483  -0.55425
  Beta virt. eigenvalues --   -0.01651   0.12200

 Mulliken charges and spin densities:
               1          2
     1  H    0.160645  -0.079954
     2  F   -0.220606   0.677496
     3  H    0.059961   0.402459
 Sum of Mulliken charges =  -0.00000   1.00000

 Dipole moment (field-independent basis, Debye):
    X=              0.2064    Y=             -1.8717    Z=             -0.0000  Tot=              1.8831
 N-N= 2.170816777596D+01 E-N=-8.145912084464D+00  KE=-2.968624730717D+01
  Exact polarizability:   3.062   2.113  10.780  -0.000   0.000   0.185
 Approx polarizability:   1.515   1.133   6.066  -0.000   0.000   0.036
 Leave Link  601 at Wed Oct 21 14:28:20 2020, MaxMem=  2684354560 cpu:               5.3 elap:               1.1
 (Enter /udrive/faculty/rpeverati/g16/g16/l701.exe)
 ... and contract with generalized density number  0.
 Compute integral second derivatives.
 Leave Link  701 at Wed Oct 21 14:28:21 2020, MaxMem=  2684354560 cpu:               4.4 elap:               1.1
 (Enter /udrive/faculty/rpeverati/g16/g16/l702.exe)
 L702 exits ... SP integral derivatives will be done elsewhere.

 ******    1 imaginary frequencies (negative Signs) ******

                      1                      2                      3
                     A'                     A'                     A'
 Frequencies --  -2141.9216              1215.1162              3516.6993
 Red. masses --      1.0507                 1.0612                 1.0140
 Frc consts  --      2.8401                 0.9232                 7.3886
 IR Inten    --     60.8397                28.2012                64.2516

 - Thermochemistry -
 -------------------
 Temperature   298.150 Kelvin.  Pressure   1.00000 Atm.
 Atom     1 has atomic number  1 and mass   1.00783

 Molecular mass:    21.01405 amu.
 Principal axes and moments of inertia in atomic units:
                           1         2         3
     Eigenvalues --     0.71741  14.67634  15.39375
           X            0.03623   0.99934   0.00000
           Y            0.99934  -0.03623   0.00000
           Z            0.00000   0.00000   1.00000
 This molecule is an asymmetric top.
 Rotational symmetry number  1.
 Rotational temperatures (Kelvin)    120.73070     5.90160     5.62656
 Rotational constants (GHZ):        2515.61948   122.96947   117.23857
    1 imaginary frequencies ignored.
 Zero-point vibrational energy      28302.5 (Joules/Mol)
                                    6.76447 (Kcal/Mol)
 Vibrational temperatures:   1748.28  5059.75
          (Kelvin)

 Zero-point correction=                           0.010780 (Hartree/Particle)
 Thermal correction to Energy=                    0.013628
 Thermal correction to Enthalpy=                  0.014572
 Thermal correction to Gibbs Free Energy=        -0.008872
 Sum of electronic and zero-point Energies=              0.013468
 Sum of electronic and thermal Energies=                 0.016316
 Sum of electronic and thermal Enthalpies=               0.017260
 Sum of electronic and thermal Free Energies=           -0.006184

                     E (Thermal)             CV                S
                      KCal/Mol        Cal/Mol-Kelvin    Cal/Mol-Kelvin
 Total                    8.552              6.157             49.343
 Electronic               0.000              0.000              1.377
 Translational            0.889              2.981             35.068
 Rotational               0.889              2.981             12.858
 Vibrational              6.774              0.195              0.039

 Optimization completed.
    -- Stationary point found.
 Normal termination of Gaussian 16 at Wed Oct 21 14:28:29 2020.
