 Gaussian 16, Revision A.03,

 ----------------------------------------------------------------------
 #P Opt(TS,MaxCyc=50,NoEigenTest,MaxStep=10,AddRedundant) PM3 5D 7F Int
 egral=UltraFineGrid SCF=(NoSymm,XQC,MaxCyc=120) IOp(1/33=1)
 ----------------------------------------------------------------------

 TstMul:  Mul=     2
 TstMul:  ICh=     0
 TstMul:  Mul=     2
 Symbolic Z-matrix:
 Charge =  0 Multiplicity = 2

 SCF Done:  E(UPM3) = -0.970652270033E-02 A.U. after   20 cycles
 SCF Done:  E(UPM3) = -0.107664758553E-01 A.U. after   17 cycles
 SCF Done:  E(UPM3) = -0.109063379573E-01 A.U. after   17 cycles
 SCF Done:  E(UPM3) = -0.111667604495E-01 A.U. after   17 cycles
 SCF Done:  E(UPM3) = -0.114865323824E-01 A.U. after   18 cycles
 SCF Done:  E(UPM3) = -0.115594442894E-01 A.U. after   18 cycles
 SCF Done:  E(UPM3) = -0.114358092786E-01 A.U. after   17 cycles
 SCF Done:  E(UPM3) = -0.113977098824E-01 A.U. after   17 cycles
 SCF Done:  E(UPM3) = -0.114145213271E-01 A.U. after   17 cycles
 SCF Done:  E(UPM3) = -0.114518767195E-01 A.U. after   17 cycles
 SCF Done:  E(UPM3) = -0.117281917035E-01 A.U. after   16 cycles
 SCF Done:  E(UPM3) = -0.117285088715E-01 A.U. after   14 cycles
 SCF Done:  E(UPM3) = -0.117284264155E-01 A.U. after   15 cycles
 SCF Done:  E(UPM3) = -0.117353849774E-01 A.U. after   18 cycles
 SCF Done:  E(UPM3) = -0.117119692034E-01 A.U. after   17 cycles
 SCF Done:  E(UPM3) = -0.117281521988E-01 A.U. after   17 cycles
 SCF Done:  E(UPM3) = -0.117251875503E-01 A.U. after   16 cycles
 SCF Done:  E(UPM3) = -0.117263488405E-01 A.U. after   15 cycles
 SCF Done:  E(UPM3) = -0.117280781768E-01 A.U. after   17 cycles
 Optimization completed.
    -- Stationary point found.
 Normal termination of Gaussian 16 at Wed Oct 21 14:37:38 2020.
 Gaussian 16:  ES64L-G16RevA.03 25-Dec-2016

 ----------------------------------------------------------------------
 #P Freq PM3 5D 7F Integral=UltraFineGrid SCF=(NoSymm,XQC,MaxCyc=120) I
 Op(1/33=1) Geom=Check Guess=Read
 ----------------------------------------------------------------------

 TstMul:  Mul=     2
 TstMul:  ICh=     0
 TstMul:  Mul=     2
 Structure from the checkpoint file:  "MN_85_RKT09_BH76_PM3_SE.chk"
 Charge =  0 Multiplicity = 2

                         Standard orientation:
 ---------------------------------------------------------------------
 Center     Atomic      Atomic             Coordinates (Angstroms)
 Number     Number       Type             X           Y           Z
 ---------------------------------------------------------------------
      1          6           0        1.418394   -0.473037   -0.000601
      2          6           0        0.510355    0.709337    0.000869
      3          8           0       -1.913807   -0.127358   -0.001534
      4          1           0        1.274211   -1.099963    0.889130
      5          1           0        1.259804   -1.108537   -0.881791
      6          1           0        2.471243   -0.158739   -0.010782
      7          1           0        0.568027    1.329264    0.899439
      8          1           0        0.567753    1.331086   -0.896423
      9          1           0       -0.668000    0.358544    0.000786
     10          1           0       -1.735073   -1.050592    0.010307
 ---------------------------------------------------------------------

 SCF Done:  E(UPM3) = -0.117280781768E-01 A.U. after    2 cycles

 The electronic state is 2-A.
 Alpha  occ. eigenvalues --   -1.32598  -1.21255  -0.85797  -0.60109  -0.58016
 Alpha  occ. eigenvalues --   -0.57571  -0.53699  -0.50113  -0.45961  -0.45030
 Alpha  occ. eigenvalues --   -0.38649
 Alpha virt. eigenvalues --    0.11993   0.13151   0.13189   0.14244   0.15776
 Alpha virt. eigenvalues --    0.16250   0.16580   0.18887
  Beta  occ. eigenvalues --   -1.31699  -1.20185  -0.84451  -0.57711  -0.57582
  Beta  occ. eigenvalues --   -0.55591  -0.52588  -0.45655  -0.45178  -0.43474
  Beta virt. eigenvalues --   -0.03785   0.12695   0.13510   0.14032   0.15028
  Beta virt. eigenvalues --    0.16800   0.17182   0.17345   0.19383

 Mulliken charges and spin densities:
               1          2
     1  C   -0.111946  -0.048721
     2  C   -0.109868   0.542840
     3  O   -0.326347   0.691438
     4  H    0.043160   0.007309
     5  H    0.043347   0.007611
     6  H    0.047922   0.028588
     7  H    0.056277  -0.027871
     8  H    0.056396  -0.027902
     9  H    0.131471  -0.151188
    10  H    0.169587  -0.022104
 Sum of Mulliken charges =   0.00000   1.00000

 Dipole moment (field-independent basis, Debye):
    X=              1.9019    Y=             -0.8161    Z=              0.0177  Tot=              2.0696
 N-N= 6.465079949304D+01 E-N=-7.878760062688D+01  KE=-3.610832660771D+01
  Exact polarizability:  44.036   7.159  21.512   0.010  -0.048  15.192
 Approx polarizability:  23.614   3.430  13.259   0.015  -0.029   9.355
 Leave Link  601 at Wed Oct 21 14:38:20 2020, MaxMem=  2684354560 cpu:               5.5 elap:               1.5
 (Enter /udrive/faculty/rpeverati/g16/g16/l701.exe)
 ... and contract with generalized density number  0.
 Compute integral second derivatives.
 Leave Link  701 at Wed Oct 21 14:38:23 2020, MaxMem=  2684354560 cpu:               7.9 elap:               1.4
 (Enter /udrive/faculty/rpeverati/g16/g16/l702.exe)
 L702 exits ... SP integral derivatives will be done elsewhere.

 ******    1 imaginary frequencies (negative Signs) ******

                      1                      2                      3
                      A                      A                      A
 Frequencies --  -2482.5864                42.7913               106.3133
 Red. masses --      1.0758                 1.0588                 2.3657
 Frc consts  --      3.9065                 0.0011                 0.0158
 IR Inten    --   1763.5984                77.6348                 3.7005

                      4                      5                      6
                      A                      A                      A
 Frequencies --    134.5679               315.9123               556.2274
 Red. masses --      1.1236                 1.0448                 5.6346
 Frc consts  --      0.0120                 0.0614                 1.0271
 IR Inten    --      6.7786                 9.9970                52.5857

                      7                      8                      9
                      A                      A                      A
 Frequencies --    695.5621               860.1464               970.6149
 Red. masses --      1.1421                 1.0594                 1.2069
 Frc consts  --      0.3256                 0.4618                 0.6699
 IR Inten    --     65.0637                 4.0796                 0.3995

                     10                     11                     12
                      A                      A                      A
 Frequencies --   1102.8428              1126.0324              1152.0272
 Red. masses --      1.4536                 1.2571                 1.0300
 Frc consts  --      1.0417                 0.9391                 0.8054
 IR Inten    --      1.7051                23.3015                13.6753

                     13                     14                     15
                      A                      A                      A
 Frequencies --   1176.8838              1348.2932              1379.8251
 Red. masses --      1.7600                 1.1337                 1.0897
 Frc consts  --      1.4362                 1.2143                 1.2224
 IR Inten    --     24.6587                 0.3167                34.6422

                     16                     17                     18
                      A                      A                      A
 Frequencies --   1398.6403              1400.1382              1438.8736
 Red. masses --      1.0722                 1.0769                 1.6810
 Frc consts  --      1.2358                 1.2438                 2.0505
 IR Inten    --      1.0217                 0.2349                 1.6245

                     19                     20                     21
                      A                      A                      A
 Frequencies --   3072.0964              3079.4429              3108.2752
 Red. masses --      1.0947                 1.0962                 1.1025
 Frc consts  --      6.0872                 6.1245                 6.2760
 IR Inten    --      1.2880                 0.0412                 1.8332

                     22                     23                     24
                      A                      A                      A
 Frequencies --   3138.6876              3177.1442              3997.2117
 Red. masses --      1.0490                 1.0296                 1.0647
 Frc consts  --      6.0886                 6.1233                10.0229
 IR Inten    --      4.4038                 1.5507                 4.3855

 - Thermochemistry -
 -------------------
 Temperature   298.150 Kelvin.  Pressure   1.00000 Atm.
 Atom     1 has atomic number  6 and mass  12.00000

 Molecular mass:    47.04969 amu.
 Principal axes and moments of inertia in atomic units:
                           1         2         3
     Eigenvalues --    69.55160 365.28864 411.94380
           X            1.00000  -0.00151  -0.00021
           Y            0.00151   1.00000  -0.00053
           Z            0.00021   0.00053   1.00000
 This molecule is an asymmetric top.
 Rotational symmetry number  1.
 Rotational temperatures (Kelvin)      1.24532     0.23711     0.21026
 Rotational constants (GHZ):          25.94823     4.94059     4.38104
    1 imaginary frequencies ignored.
 Zero-point vibrational energy     208021.9 (Joules/Mol)
                                   49.71843 (Kcal/Mol)
 Warning -- explicit consideration of   5 degrees of freedom as
           vibrations may cause significant error
 Vibrational temperatures:     61.57   152.96   193.61   454.53   800.29
          (Kelvin)           1000.76  1237.56  1396.50  1586.74  1620.11
                             1657.51  1693.27  1939.89  1985.26  2012.33
                             2014.49  2070.22  4420.06  4430.63  4472.11
                             4515.87  4571.20  5751.10

 Zero-point correction=                           0.079231 (Hartree/Particle)
 Thermal correction to Energy=                    0.085236
 Thermal correction to Enthalpy=                  0.086180
 Thermal correction to Gibbs Free Energy=         0.049690
 Sum of electronic and zero-point Energies=              0.067503
 Sum of electronic and thermal Energies=                 0.073508
 Sum of electronic and thermal Enthalpies=               0.074452
 Sum of electronic and thermal Free Energies=            0.037962

                     E (Thermal)             CV                S
                      KCal/Mol        Cal/Mol-Kelvin    Cal/Mol-Kelvin
 Total                   53.487             17.919             76.801
 Electronic               0.000              0.000              1.377
 Translational            0.889              2.981             37.471
 Rotational               0.889              2.981             23.863
 Vibrational             51.709             11.957             14.090
 Vibration     1          0.595              1.980              5.125
 Vibration     2          0.605              1.944              3.335
 Vibration     3          0.613              1.919              2.880
 Vibration     4          0.703              1.643              1.331
 Vibration     5          0.912              1.126              0.531

                           ! Non-Optimized Parameters !
 Normal termination of Gaussian 16 at Wed Oct 21 14:38:36 2020.
