 Gaussian 16, Revision A.03,

 ----------------------------------------------------------------------
 #P Opt(TS,MaxCyc=50,NoEigenTest,MaxStep=10,AddRedundant) PM3 5D 7F Int
 egral=UltraFineGrid SCF=(NoSymm,XQC,MaxCyc=120) IOp(1/33=1)
 ----------------------------------------------------------------------

 TstMul:  Mul=     2
 TstMul:  ICh=     0
 TstMul:  Mul=     2
 Symbolic Z-matrix:
 Charge =  0 Multiplicity = 2

 SCF Done:  E(UPM3) =  0.611839547626E-01 A.U. after   17 cycles
 SCF Done:  E(UPM3) =  0.611554415837E-01 A.U. after   11 cycles
 SCF Done:  E(UPM3) =  0.610124385476E-01 A.U. after   12 cycles
 SCF Done:  E(UPM3) =  0.635894472242E-01 A.U. after   14 cycles
 SCF Done:  E(UPM3) =  0.650344246315E-01 A.U. after   14 cycles
 SCF Done:  E(UPM3) =  0.658334927401E-01 A.U. after   14 cycles
 SCF Done:  E(UPM3) =  0.670622981719E-01 A.U. after   14 cycles
 SCF Done:  E(UPM3) =  0.679728996779E-01 A.U. after   13 cycles
 SCF Done:  E(UPM3) =  0.686023285012E-01 A.U. after   13 cycles
 SCF Done:  E(UPM3) =  0.690111104843E-01 A.U. after   13 cycles
 SCF Done:  E(UPM3) =  0.618688949029E-01 A.U. after   14 cycles
 SCF Done:  E(UPM3) =  0.623603341589E-01 A.U. after   15 cycles
 SCF Done:  E(UPM3) =  0.619126402616E-01 A.U. after   14 cycles
 SCF Done:  E(UPM3) =  0.620291923684E-01 A.U. after   14 cycles
 SCF Done:  E(UPM3) =  0.620420607842E-01 A.U. after   13 cycles
 SCF Done:  E(UPM3) =  0.620372825830E-01 A.U. after   13 cycles
 SCF Done:  E(UPM3) =  0.620354132728E-01 A.U. after   13 cycles
 SCF Done:  E(UPM3) =  0.620353133987E-01 A.U. after   12 cycles
 SCF Done:  E(UPM3) =  0.620352465649E-01 A.U. after   12 cycles
 Optimization completed.
    -- Stationary point found.
 Normal termination of Gaussian 16 at Wed Oct 28 15:32:30 2020.
 Gaussian 16:  ES64L-G16RevA.03 25-Dec-2016

 ----------------------------------------------------------------------
 #P Freq PM3 5D 7F Integral=UltraFineGrid SCF=(NoSymm,XQC,MaxCyc=120) I
 Op(1/33=1) Geom=Check Guess=Read
 ----------------------------------------------------------------------

 TstMul:  Mul=     2
 TstMul:  ICh=     0
 TstMul:  Mul=     2
 Structure from the checkpoint file:  "MN_90_RKT16_BH76_PM3_SE.chk"
 Charge =  0 Multiplicity = 2

                         Standard orientation:
 ---------------------------------------------------------------------
 Center     Atomic      Atomic             Coordinates (Angstroms)
 Number     Number       Type             X           Y           Z
 ---------------------------------------------------------------------
      1          1           0        1.069568   -0.655419    0.000000
      2         16           0        0.000000    0.183216    0.000000
      3          1           0       -1.069514   -0.657492    0.000000
      4          1           0       -0.000054   -1.618540    0.000000
 ---------------------------------------------------------------------

 SCF Done:  E(UPM3) =  0.620352465649E-01 A.U. after    2 cycles

 The electronic state is 2-A'.
 Alpha  occ. eigenvalues --   -1.04523  -0.58489  -0.55168  -0.36446  -0.36153
 Alpha virt. eigenvalues --    0.00340   0.05111
  Beta  occ. eigenvalues --   -1.01962  -0.57833  -0.47056  -0.35606
  Beta virt. eigenvalues --    0.00652   0.05000   0.06468

 Mulliken charges and spin densities:
               1          2
     1  H    0.085841  -0.002769
     2  S   -0.014963   0.173771
     3  H    0.086450  -0.002984
     4  H   -0.157327   0.831983
 Sum of Mulliken charges =   0.00000   1.00000

 Dipole moment (field-independent basis, Debye):
    X=             -0.0006    Y=             -1.1067    Z=             -0.0000  Tot=              1.1067
 N-N= 1.441590278793D+01 E-N=-1.101609039114D+01  KE=-1.235929331025D+01
  Exact polarizability:  17.831   0.017  17.350   0.000  -0.000   1.819
 Approx polarizability:  13.555   0.011  12.376  -0.000  -0.000   0.821
 Leave Link  601 at Wed Oct 28 15:32:32 2020, MaxMem=  2684354560 cpu:               0.3 elap:               0.1
 (Enter /udrive/faculty/rpeverati/g16/g16/l701.exe)
 ... and contract with generalized density number  0.
 Compute integral second derivatives.
 Leave Link  701 at Wed Oct 28 15:32:32 2020, MaxMem=  2684354560 cpu:               0.9 elap:               0.1
 (Enter /udrive/faculty/rpeverati/g16/g16/l702.exe)
 L702 exits ... SP integral derivatives will be done elsewhere.

 ******    2 imaginary frequencies (negative Signs) ******

                      1                      2                      3
                     A'                     A"                     A'
 Frequencies --   -689.5878              -572.4483               915.1719
 Red. masses --      1.0106                 1.0201                 1.0698
 Frc consts  --      0.2831                 0.1969                 0.5279
 IR Inten    --      1.1667               194.6264                18.7265

                      4                      5                      6
                     A'                     A'                     A'
 Frequencies --   1130.5443              1502.4483              1530.1666
 Red. masses --      1.0079                 1.0344                 1.0434
 Frc consts  --      0.7590                 1.3757                 1.4394
 IR Inten    --      4.0025                49.2834               111.4713

 - Thermochemistry -
 -------------------
 Temperature   298.150 Kelvin.  Pressure   1.00000 Atm.
 Atom     1 has atomic number  1 and mass   1.00783

 Molecular mass:    34.99555 amu.
 Principal axes and moments of inertia in atomic units:
                           1         2         3
     Eigenvalues --     8.23394  15.50251  23.73645
           X            0.00112   1.00000   0.00000
           Y            1.00000  -0.00112   0.00000
           Z            0.00000   0.00000   1.00000
 This molecule is an asymmetric top.
 Rotational symmetry number  1.
 Rotational temperatures (Kelvin)     10.51914     5.58709     3.64898
 Rotational constants (GHZ):         219.18329   116.41605    76.03249
    2 imaginary frequencies ignored.
 Zero-point vibrational energy      30375.2 (Joules/Mol)
                                    7.25984 (Kcal/Mol)
 Vibrational temperatures:   1316.73  1626.60  2161.69  2201.57
          (Kelvin)

 Zero-point correction=                           0.011569 (Hartree/Particle)
 Thermal correction to Energy=                    0.014484
 Thermal correction to Enthalpy=                  0.015428
 Thermal correction to Gibbs Free Energy=        -0.010201
 Sum of electronic and zero-point Energies=              0.073605
 Sum of electronic and thermal Energies=                 0.076519
 Sum of electronic and thermal Enthalpies=               0.077464
 Sum of electronic and thermal Free Energies=            0.051834

                     E (Thermal)             CV                S
                      KCal/Mol        Cal/Mol-Kelvin    Cal/Mol-Kelvin
 Total                    9.089              6.838             53.942
 Electronic               0.000              0.000              1.377
 Translational            0.889              2.981             36.588
 Rotational               0.889              2.981             15.768
 Vibrational              7.311              0.876              0.208

 Optimization completed.
    -- Stationary point found.
 Normal termination of Gaussian 16 at Wed Oct 28 15:32:33 2020.
