 Gaussian 16, Revision A.03,

 ----------------------------------------------------------------------
 #P Opt(TS,MaxCyc=50,NoEigenTest,MaxStep=10,AddRedundant) PM3 5D 7F Int
 egral=UltraFineGrid SCF=(NoSymm,MaxCyc=120) IOp(1/33=1)
 ----------------------------------------------------------------------

 TstMul:  Mul=     3
 TstMul:  ICh=     0
 TstMul:  Mul=     3
 Symbolic Z-matrix:
 Charge =  0 Multiplicity = 3

 SCF Done:  E(UPM3) =  0.713384113194E-01 A.U. after   22 cycles
 SCF Done:  E(UPM3) =  0.712661343783E-01 A.U. after   14 cycles
 SCF Done:  E(UPM3) =  0.711724595084E-01 A.U. after   14 cycles
 SCF Done:  E(UPM3) =  0.712929490542E-01 A.U. after   15 cycles
 SCF Done:  E(UPM3) =  0.725584932647E-01 A.U. after   16 cycles
 SCF Done:  E(UPM3) =  0.733535586430E-01 A.U. after   16 cycles
 SCF Done:  E(UPM3) =  0.737436512854E-01 A.U. after   16 cycles
 SCF Done:  E(UPM3) =  0.738467987407E-01 A.U. after   16 cycles
 SCF Done:  E(UPM3) =  0.737936956875E-01 A.U. after   16 cycles
 SCF Done:  E(UPM3) =  0.736949719454E-01 A.U. after   16 cycles
 SCF Done:  E(UPM3) =  0.736139617676E-01 A.U. after   16 cycles
 SCF Done:  E(UPM3) =  0.735756240140E-01 A.U. after   16 cycles
 SCF Done:  E(UPM3) =  0.735740243135E-01 A.U. after   14 cycles
 Optimization completed.
    -- Stationary point found.
 Normal termination of Gaussian 16 at Wed Oct 28 15:32:09 2020.
 Gaussian 16:  ES64L-G16RevA.03 25-Dec-2016

 ----------------------------------------------------------------------
 #P Freq PM3 5D 7F Integral=UltraFineGrid SCF=(NoSymm,MaxCyc=120) IOp(1
 /33=1) Geom=Check Guess=Read
 ----------------------------------------------------------------------

 TstMul:  Mul=     3
 TstMul:  ICh=     0
 TstMul:  Mul=     3
 Structure from the checkpoint file:  "MN_91_RKT17_BH76_PM3_SE.chk"
 Charge =  0 Multiplicity = 3

                         Standard orientation:
 ---------------------------------------------------------------------
 Center     Atomic      Atomic             Coordinates (Angstroms)
 Number     Number       Type             X           Y           Z
 ---------------------------------------------------------------------
      1         17           0        0.000031   -0.887697    0.000000
      2          1           0       -0.000784    0.504462   -0.000000
      3          8           0        0.000031    1.823298   -0.000000
 ---------------------------------------------------------------------

 SCF Done:  E(UPM3) =  0.735740243134E-01 A.U. after    2 cycles

 The electronic state is 3-A".
 Alpha  occ. eigenvalues --   -2.05543  -1.17503  -0.65064  -0.56862  -0.52279
 Alpha  occ. eigenvalues --   -0.44601  -0.41703  -0.41686
 Alpha virt. eigenvalues --    0.06759
  Beta  occ. eigenvalues --   -2.00677  -1.14188  -0.56736  -0.48338  -0.41744
  Beta  occ. eigenvalues --   -0.41716
  Beta virt. eigenvalues --   -0.12054  -0.05029   0.09213

 Mulliken charges and spin densities:
               1          2
     1  Cl  -0.067131   0.412066
     2  H    0.143670  -0.132798
     3  O   -0.076539   1.720732
 Sum of Mulliken charges =   0.00000   2.00000

 Dipole moment (field-independent basis, Debye):
    X=             -0.0010    Y=              0.3136    Z=              0.0000  Tot=              0.3136
 N-N= 3.505166439187D+01 E-N=-2.330867848880D+01  KE=-3.536109973591D+01
  Exact polarizability:   0.250  -0.005  44.506   0.000  -0.000   0.740
 Approx polarizability:   0.099  -0.003  24.655   0.000   0.000   0.408
 Leave Link  601 at Wed Oct 28 15:32:13 2020, MaxMem=  2684354560 cpu:               0.8 elap:               0.1
 (Enter /udrive/faculty/rpeverati/g16/g16/l701.exe)
 ... and contract with generalized density number  0.
 Compute integral second derivatives.
 Leave Link  701 at Wed Oct 28 15:32:13 2020, MaxMem=  2684354560 cpu:               1.5 elap:               0.2
 (Enter /udrive/faculty/rpeverati/g16/g16/l702.exe)
 L702 exits ... SP integral derivatives will be done elsewhere.

 ******    1 imaginary frequencies (negative Signs) ******

                      1                      2                      3
                     A'                     A'                     A'
 Frequencies --  -2230.6210               302.9191               534.8149
 Red. masses --      1.0830                 1.0302                 9.7781
 Frc consts  --      3.1748                 0.0557                 1.6478
 IR Inten    --    659.0127                63.3240                13.3389

 - Thermochemistry -
 -------------------
 Temperature   298.150 Kelvin.  Pressure   1.00000 Atm.
 Atom     1 has atomic number 17 and mass  34.96885

 Molecular mass:    51.97159 amu.
 Principal axes and moments of inertia in atomic units:
                           1         2         3
     Eigenvalues --     0.00000 289.07684 289.07685
           X           -0.00001   1.00000   0.00000
           Y            1.00000   0.00001   0.00000
           Z           -0.00000   0.00000   1.00000
 This molecule is an asymmetric top.
 Rotational symmetry number  1.
 Rotational temperatures (Kelvin) ************     0.29962     0.29962
 Rotational constants (GHZ):      ************     6.24312     6.24312
    1 imaginary frequencies ignored.
 Zero-point vibrational energy       5010.8 (Joules/Mol)
                                    1.19760 (Kcal/Mol)
 Warning -- explicit consideration of   2 degrees of freedom as
           vibrations may cause significant error
 Vibrational temperatures:    435.83   769.48
          (Kelvin)

 Zero-point correction=                           0.001908 (Hartree/Particle)
 Thermal correction to Energy=                    0.005357
 Thermal correction to Enthalpy=                  0.006301
 Thermal correction to Gibbs Free Energy=        -0.016557
 Sum of electronic and zero-point Energies=              0.075483
 Sum of electronic and thermal Energies=                 0.078931
 Sum of electronic and thermal Enthalpies=               0.079875
 Sum of electronic and thermal Free Energies=            0.057017

                     E (Thermal)             CV                S
                      KCal/Mol        Cal/Mol-Kelvin    Cal/Mol-Kelvin
 Total                    3.362              8.803             48.108
 Electronic               0.000              0.000              2.183
 Translational            0.889              2.981             37.767
 Rotational               0.889              2.981              6.181
 Vibrational              1.584              2.841              1.977
 Vibration     1          0.694              1.668              1.401
 Vibration     2          0.890              1.173              0.577

 Optimization completed.
    -- Stationary point found.
 Normal termination of Gaussian 16 at Wed Oct 28 15:32:14 2020.
