 Gaussian 16, Revision A.03,

 ----------------------------------------------------------------------
 #P Opt(TS,MaxCyc=50,NoEigenTest,MaxStep=10,AddRedundant) PM3 5D 7F Int
 egral=UltraFineGrid SCF=(NoSymm,XQC,MaxCyc=120) IOp(1/33=1)
 ----------------------------------------------------------------------

 TstMul:  Mul=     1
 TstMul:  ICh=     0
 TstMul:  Mul=     1
 Symbolic Z-matrix:
 Charge =  0 Multiplicity = 1

 SCF Done:  E(RPM3) =  0.951515028793E-01 A.U. after   15 cycles
 SCF Done:  E(RPM3) =  0.934255606200E-01 A.U. after   13 cycles
 SCF Done:  E(RPM3) =  0.932768924798E-01 A.U. after   12 cycles
 SCF Done:  E(RPM3) =  0.932961800900E-01 A.U. after   12 cycles
 SCF Done:  E(RPM3) =  0.930256686273E-01 A.U. after   13 cycles
 SCF Done:  E(RPM3) =  0.930005517238E-01 A.U. after   13 cycles
 SCF Done:  E(RPM3) =  0.926562611265E-01 A.U. after   13 cycles
 SCF Done:  E(RPM3) =  0.927373166827E-01 A.U. after   13 cycles
 SCF Done:  E(RPM3) =  0.930030334104E-01 A.U. after   14 cycles
 SCF Done:  E(RPM3) =  0.917585307026E-01 A.U. after   13 cycles
 SCF Done:  E(RPM3) =  0.919640699157E-01 A.U. after   14 cycles
 SCF Done:  E(RPM3) =  0.919059441948E-01 A.U. after   13 cycles
 SCF Done:  E(RPM3) =  0.918870729591E-01 A.U. after   12 cycles
 SCF Done:  E(RPM3) =  0.918810911451E-01 A.U. after   12 cycles
 SCF Done:  E(RPM3) =  0.918797170685E-01 A.U. after   11 cycles
 SCF Done:  E(RPM3) =  0.918789806101E-01 A.U. after   11 cycles
 SCF Done:  E(RPM3) =  0.918787996348E-01 A.U. after   10 cycles
 Optimization completed.
    -- Stationary point found.
 Normal termination of Gaussian 16 at Wed Oct 21 14:33:03 2020.
 Gaussian 16:  ES64L-G16RevA.03 25-Dec-2016

 ----------------------------------------------------------------------
 #P Freq PM3 5D 7F Integral=UltraFineGrid SCF=(NoSymm,XQC,MaxCyc=120) I
 Op(1/33=1) Geom=Check Guess=Read
 ----------------------------------------------------------------------

 TstMul:  Mul=     1
 TstMul:  ICh=     0
 TstMul:  Mul=     1
 Structure from the checkpoint file:  "MN_96_RKT22_BH76_PM3_SE.chk"
 Charge =  0 Multiplicity = 1

                         Standard orientation:
 ---------------------------------------------------------------------
 Center     Atomic      Atomic             Coordinates (Angstroms)
 Number     Number       Type             X           Y           Z
 ---------------------------------------------------------------------
      1          6           0       -1.282656   -0.895589   -0.014469
      2          6           0       -1.207224    0.506626   -0.032777
      3          6           0        0.000039    1.176286    0.131578
      4          6           0        1.207272    0.506558   -0.032850
      5          6           0        1.282600   -0.895625   -0.014401
      6          1           0        2.156825   -1.363446   -0.467962
      7          1           0        0.966430   -1.426206    0.893877
      8          1           0        2.083310    1.091707   -0.336626
      9          1           0        0.000088    2.270975    0.174434
     10          1           0       -2.083271    1.091811   -0.336464
     11          1           0       -2.156925   -1.363239   -0.468115
     12          1           0       -0.000042   -1.264893   -0.575432
     13          1           0       -0.966604   -1.426242    0.893804
 ---------------------------------------------------------------------

 SCF Done:  E(RPM3) =  0.918787996346E-01 A.U. after    2 cycles

 The electronic state is 1-A.
 Alpha  occ. eigenvalues --   -1.41424  -1.09253  -0.99712  -0.76483  -0.68092
 Alpha  occ. eigenvalues --   -0.63728  -0.55394  -0.53686  -0.52220  -0.48572
 Alpha  occ. eigenvalues --   -0.47278  -0.45288  -0.35639  -0.32592
 Alpha virt. eigenvalues --   -0.00266   0.04343   0.12189   0.13234   0.13520
 Alpha virt. eigenvalues --    0.13992   0.14978   0.15003   0.16877   0.16952
 Alpha virt. eigenvalues --    0.18827   0.19338   0.21665   0.22213

 Mulliken charges:
               1
     1  C   -0.201322
     2  C   -0.080117
     3  C   -0.165492
     4  C   -0.080116
     5  C   -0.201313
     6  H    0.064876
     7  H    0.086153
     8  H    0.095539
     9  H    0.101960
    10  H    0.095533
    11  H    0.064875
    12  H    0.133278
    13  H    0.086145
 Sum of Mulliken charges =   0.00000

 Dipole moment (field-independent basis, Debye):
    X=              0.0001    Y=             -0.2437    Z=             -0.1244  Tot=              0.2736
 N-N= 1.025800864094D+02 E-N=-1.473769275117D+02  KE=-3.901227069940D+01
  Exact polarizability:  66.539   0.001  56.315  -0.000   1.349  17.189
 Approx polarizability:  57.422   0.001  48.067  -0.000   2.472  12.208
 Leave Link  601 at Wed Oct 21 14:33:43 2020, MaxMem=  2684354560 cpu:               2.7 elap:               1.0
 (Enter /udrive/faculty/rpeverati/g16/g16/l701.exe)
 ... and contract with generalized density number  0.
 Compute integral second derivatives.
 Leave Link  701 at Wed Oct 21 14:33:46 2020, MaxMem=  2684354560 cpu:               6.6 elap:               1.8
 (Enter /udrive/faculty/rpeverati/g16/g16/l702.exe)
 L702 exits ... SP integral derivatives will be done elsewhere.

 ******    1 imaginary frequencies (negative Signs) ******

                      1                      2                      3
                      A                      A                      A
 Frequencies --  -1899.8092               288.6202               385.4388
 Red. masses --      1.2696                 2.0651                 1.4777
 Frc consts  --      2.6998                 0.1014                 0.1293
 IR Inten    --      3.8111                 0.8224                 1.1000

                      4                      5                      6
                      A                      A                      A
 Frequencies --    458.5375               492.4041               560.6650
 Red. masses --      2.5557                 3.2849                 1.4573
 Frc consts  --      0.3166                 0.4693                 0.2699
 IR Inten    --      1.3984                 1.3106                 4.2854

                      7                      8                      9
                      A                      A                      A
 Frequencies --    725.6498               792.6102               795.4714
 Red. masses --      1.5327                 1.4209                 1.2272
 Frc consts  --      0.4755                 0.5259                 0.4575
 IR Inten    --     14.6658                64.8502                 0.5159

                     10                     11                     12
                      A                      A                      A
 Frequencies --    925.1439               947.3224               985.5039
 Red. masses --      1.2931                 1.2584                 1.3971
 Frc consts  --      0.6521                 0.6654                 0.7995
 IR Inten    --     11.7285                 1.5336                 0.1618

                     13                     14                     15
                      A                      A                      A
 Frequencies --   1013.1927              1024.9812              1106.8825
 Red. masses --      1.8533                 1.6524                 1.1340
 Frc consts  --      1.1209                 1.0228                 0.8186
 IR Inten    --      1.2787                12.3085                 0.0980

                     16                     17                     18
                      A                      A                      A
 Frequencies --   1120.8570              1172.8635              1224.7088
 Red. masses --      1.1837                 1.0506                 1.1951
 Frc consts  --      0.8762                 0.8515                 1.0561
 IR Inten    --      0.2762                 0.0687                 1.3720

                     19                     20                     21
                      A                      A                      A
 Frequencies --   1238.9971              1302.1279              1379.6308
 Red. masses --      1.4259                 1.0476                 1.0667
 Frc consts  --      1.2896                 1.0465                 1.1963
 IR Inten    --      2.0747                21.9517                 0.9403

                     22                     23                     24
                      A                      A                      A
 Frequencies --   1388.1102              1548.3819              1669.0042
 Red. masses --      1.9850                 4.0013                 1.2339
 Frc consts  --      2.2535                 5.6521                 2.0252
 IR Inten    --      5.2359                 0.1143                 6.7848

                     25                     26                     27
                      A                      A                      A
 Frequencies --   1702.9825              1714.5463              3038.2069
 Red. masses --      5.5729                 3.5074                 1.0905
 Frc consts  --      9.5225                 6.0747                 5.9309
 IR Inten    --     57.3182                 4.4703                 0.0159

                     28                     29                     30
                      A                      A                      A
 Frequencies --   3042.3619              3044.4997              3062.8692
 Red. masses --      1.0900                 1.0828                 1.0953
 Frc consts  --      5.9444                 5.9132                 6.0541
 IR Inten    --     18.7028                10.9716                27.8424

                     31                     32                     33
                      A                      A                      A
 Frequencies --   3065.0132              3107.4321              3107.5354
 Red. masses --      1.0875                 1.0797                 1.0727
 Frc consts  --      6.0191                 6.1424                 6.1033
 IR Inten    --      0.3145                 2.5426                11.2415

 - Thermochemistry -
 -------------------
 Temperature   298.150 Kelvin.  Pressure   1.00000 Atm.
 Atom     1 has atomic number  6 and mass  12.00000

 Molecular mass:    68.06260 amu.
 Principal axes and moments of inertia in atomic units:
                           1         2         3
     Eigenvalues --   220.95205 347.60416 548.06522
           X            1.00000   0.00000  -0.00000
           Y           -0.00000   0.99988  -0.01549
           Z            0.00000   0.01549   0.99988
 This molecule is an asymmetric top.
 Rotational symmetry number  1.
 Rotational temperatures (Kelvin)      0.39200     0.24917     0.15804
 Rotational constants (GHZ):           8.16802     5.19194     3.29293
    1 imaginary frequencies ignored.
 Zero-point vibrational energy     283709.7 (Joules/Mol)
                                   67.80824 (Kcal/Mol)
 Warning -- explicit consideration of   5 degrees of freedom as
           vibrations may cause significant error
 Vibrational temperatures:    415.26   554.56   659.73   708.46   806.67
          (Kelvin)           1044.05  1140.39  1144.51  1331.08  1362.99
                             1417.92  1457.76  1474.72  1592.56  1612.66
                             1687.49  1762.08  1782.64  1873.47  1984.98
                             1997.18  2227.78  2401.32  2450.21  2466.85
                             4371.30  4377.28  4380.36  4406.79  4409.87
                             4470.90  4471.05

 Zero-point correction=                           0.108059 (Hartree/Particle)
 Thermal correction to Energy=                    0.112917
 Thermal correction to Enthalpy=                  0.113861
 Thermal correction to Gibbs Free Energy=         0.080683
 Sum of electronic and zero-point Energies=              0.199938
 Sum of electronic and thermal Energies=                 0.204796
 Sum of electronic and thermal Enthalpies=               0.205740
 Sum of electronic and thermal Free Energies=            0.172562

                     E (Thermal)             CV                S
                      KCal/Mol        Cal/Mol-Kelvin    Cal/Mol-Kelvin
 Total                   70.857             18.674             69.830
 Electronic               0.000              0.000              0.000
 Translational            0.889              2.981             38.571
 Rotational               0.889              2.981             25.246
 Vibrational             69.079             12.713              6.013
 Vibration     1          0.685              1.695              1.482
 Vibration     2          0.754              1.501              1.018
 Vibration     3          0.817              1.342              0.770
 Vibration     4          0.848              1.267              0.677
 Vibration     5          0.916              1.116              0.523

 Optimization completed.
    -- Stationary point found.
 Normal termination of Gaussian 16 at Wed Oct 21 14:34:01 2020.
