 Gaussian 16, Revision A.03,

 ----------------------------------------------------------------------
 #P Opt(TS,MaxCyc=50,NoEigenTest,MaxStep=10,AddRedundant) PM3 5D 7F Int
 egral=UltraFineGrid SCF=(NoSymm,XQC,MaxCyc=120) IOp(1/33=1)
 ----------------------------------------------------------------------

 TstMul:  Mul=     2
 TstMul:  ICh=     0
 TstMul:  Mul=     2
 Symbolic Z-matrix:
 Charge =  0 Multiplicity = 2

 SCF Done:  E(UPM3) =  0.703288664730E-01 A.U. after   17 cycles
 SCF Done:  E(UPM3) =  0.688486036350E-01 A.U. after   15 cycles
 SCF Done:  E(UPM3) =  0.680885511919E-01 A.U. after   16 cycles
 SCF Done:  E(UPM3) =  0.671399870052E-01 A.U. after   16 cycles
 SCF Done:  E(UPM3) =  0.672941813076E-01 A.U. after   15 cycles
 SCF Done:  E(UPM3) =  0.677233888223E-01 A.U. after   15 cycles
 SCF Done:  E(UPM3) =  0.679320521265E-01 A.U. after   15 cycles
 SCF Done:  E(UPM3) =  0.679273410724E-01 A.U. after   14 cycles
 SCF Done:  E(UPM3) =  0.679260926318E-01 A.U. after   14 cycles
 SCF Done:  E(UPM3) =  0.679260659469E-01 A.U. after   14 cycles
 SCF Done:  E(UPM3) =  0.679261135401E-01 A.U. after   13 cycles
 SCF Done:  E(UPM3) =  0.679260383692E-01 A.U. after   13 cycles
 SCF Done:  E(UPM3) =  0.679255400134E-01 A.U. after   13 cycles
 SCF Done:  E(UPM3) =  0.679227867445E-01 A.U. after   15 cycles
 SCF Done:  E(UPM3) =  0.679155989884E-01 A.U. after   15 cycles
 SCF Done:  E(UPM3) =  0.679122624827E-01 A.U. after   15 cycles
 SCF Done:  E(UPM3) =  0.679099700447E-01 A.U. after   15 cycles
 SCF Done:  E(UPM3) =  0.679096849661E-01 A.U. after   14 cycles
 SCF Done:  E(UPM3) =  0.679096187496E-01 A.U. after   13 cycles
 Optimization completed.
    -- Stationary point found.
 Normal termination of Gaussian 16 at Wed Oct 21 14:32:51 2020.
 Gaussian 16:  ES64L-G16RevA.03 25-Dec-2016

 ----------------------------------------------------------------------
 #P Freq PM3 5D 7F Integral=UltraFineGrid SCF=(NoSymm,XQC,MaxCyc=120) I
 Op(1/33=1) Geom=Check Guess=Read
 ----------------------------------------------------------------------

 TstMul:  Mul=     2
 TstMul:  ICh=     0
 TstMul:  Mul=     2
 Structure from the checkpoint file:  "MN_95_RKT21_BH76_PM3_SE.chk"
 Charge =  0 Multiplicity = 2

                         Standard orientation:
 ---------------------------------------------------------------------
 Center     Atomic      Atomic             Coordinates (Angstroms)
 Number     Number       Type             X           Y           Z
 ---------------------------------------------------------------------
      1          6           0       -1.246935    0.000007    0.012151
      2          7           0        1.292349    0.000018   -0.122166
      3          1           0       -1.645655   -0.045015   -0.991436
      4          1           0       -1.492875    0.922026    0.519201
      5          1           0       -1.484316   -0.877405    0.596533
      6          1           0        0.027869    0.000823   -0.153450
      7          1           0        1.515576    0.808214    0.405973
      8          1           0        1.514564   -0.808813    0.405431
 ---------------------------------------------------------------------

 SCF Done:  E(UPM3) =  0.679096187496E-01 A.U. after    2 cycles

 The electronic state is 2-A.
 Alpha  occ. eigenvalues --   -1.14628  -0.95714  -0.57404  -0.53989  -0.51336
 Alpha  occ. eigenvalues --   -0.51200  -0.39581  -0.35091
 Alpha virt. eigenvalues --    0.12425   0.14837   0.16461   0.16622   0.17010
 Alpha virt. eigenvalues --    0.18448
  Beta  occ. eigenvalues --   -1.13018  -0.93782  -0.56931  -0.51172  -0.50515
  Beta  occ. eigenvalues --   -0.50000  -0.35954
  Beta virt. eigenvalues --   -0.00956   0.13668   0.15678   0.17602   0.17754
  Beta virt. eigenvalues --    0.18605   0.18946

 Mulliken charges and spin densities:
               1          2
     1  C   -0.195592   0.634373
     2  N   -0.075121   0.653347
     3  H    0.048409  -0.034705
     4  H    0.038073  -0.034117
     5  H    0.037558  -0.034089
     6  H    0.096329  -0.154078
     7  H    0.025166  -0.015363
     8  H    0.025179  -0.015368
 Sum of Mulliken charges =  -0.00000   1.00000

 Dipole moment (field-independent basis, Debye):
    X=             -0.1241    Y=             -0.0004    Z=              1.5163  Tot=              1.5213
 N-N= 3.599332767514D+01 E-N=-4.204769282622D+01  KE=-2.030000219813D+01
  Exact polarizability:  46.034  -0.002  14.999  -0.617  -0.001  10.671
 Approx polarizability:  20.395   0.000   9.018  -0.221  -0.001   6.363
 Leave Link  601 at Wed Oct 21 14:33:34 2020, MaxMem=  2684354560 cpu:               5.6 elap:               1.4
 (Enter /udrive/faculty/rpeverati/g16/g16/l701.exe)
 ... and contract with generalized density number  0.
 Compute integral second derivatives.
 Leave Link  701 at Wed Oct 21 14:33:37 2020, MaxMem=  2684354560 cpu:              10.4 elap:               1.7
 (Enter /udrive/faculty/rpeverati/g16/g16/l702.exe)
 L702 exits ... SP integral derivatives will be done elsewhere.

 ******    1 imaginary frequencies (negative Signs) ******

                      1                      2                      3
                      A                      A                      A
 Frequencies --  -2719.8517                22.6368               332.9143
 Red. masses --      1.0622                 1.0252                 1.2020
 Frc consts  --      4.6298                 0.0003                 0.0785
 IR Inten    --   1823.9299                33.4437                 5.2178

                      4                      5                      6
                      A                      A                      A
 Frequencies --    336.7283               527.9425               775.7657
 Red. masses --      1.0147                 3.0816                 1.1246
 Frc consts  --      0.0678                 0.5061                 0.3988
 IR Inten    --      3.0462                15.1208                 4.2248

                      7                      8                      9
                      A                      A                      A
 Frequencies --    855.3130              1153.8911              1283.4896
 Red. masses --      1.1802                 1.1121                 1.1271
 Frc consts  --      0.5087                 0.8724                 1.0940
 IR Inten    --     53.9156                63.5428                82.1221

                     10                     11                     12
                      A                      A                      A
 Frequencies --   1334.3217              1357.8765              1361.7713
 Red. masses --      1.0542                 1.0803                 1.0793
 Frc consts  --      1.1059                 1.1736                 1.1793
 IR Inten    --      5.5157                 0.5980                 0.1372

                     13                     14                     15
                      A                      A                      A
 Frequencies --   1662.4369              3210.9372              3214.5698
 Red. masses --      1.0848                 1.1044                 1.1005
 Frc consts  --      1.7664                 6.7085                 6.7000
 IR Inten    --      1.1169                 0.2695                 1.0008

                     16                     17                     18
                      A                      A                      A
 Frequencies --   3237.0158              3490.0049              3619.7384
 Red. masses --      1.0229                 1.0922                 1.0406
 Frc consts  --      6.3147                 7.8381                 8.0332
 IR Inten    --      1.4903                 3.4761                 6.3269

 - Thermochemistry -
 -------------------
 Temperature   298.150 Kelvin.  Pressure   1.00000 Atm.
 Atom     1 has atomic number  6 and mass  12.00000

 Molecular mass:    32.05002 amu.
 Principal axes and moments of inertia in atomic units:
                           1         2         3
     Eigenvalues --    18.19501 199.84363 202.73439
           X            0.99975  -0.00000   0.02225
           Y            0.00000   1.00000   0.00001
           Z           -0.02225  -0.00001   0.99975
 This molecule is an asymmetric top.
 Rotational symmetry number  1.
 Rotational temperatures (Kelvin)      4.76031     0.43341     0.42723
 Rotational constants (GHZ):          99.18881     9.03077     8.90200
    1 imaginary frequencies ignored.
 Zero-point vibrational energy     166145.5 (Joules/Mol)
                                   39.70972 (Kcal/Mol)
 Warning -- explicit consideration of   4 degrees of freedom as
           vibrations may cause significant error
 Vibrational temperatures:     32.57   478.99   484.48   759.59  1116.15
          (Kelvin)           1230.60  1660.19  1846.66  1919.79  1953.68
                             1959.29  2391.88  4619.82  4625.05  4657.34
                             5021.34  5208.00

 Zero-point correction=                           0.063281 (Hartree/Particle)
 Thermal correction to Energy=                    0.068180
 Thermal correction to Enthalpy=                  0.069124
 Thermal correction to Gibbs Free Energy=         0.036373
 Sum of electronic and zero-point Energies=              0.131191
 Sum of electronic and thermal Energies=                 0.136090
 Sum of electronic and thermal Enthalpies=               0.137034
 Sum of electronic and thermal Free Energies=            0.104283

                     E (Thermal)             CV                S
                      KCal/Mol        Cal/Mol-Kelvin    Cal/Mol-Kelvin
 Total                   42.784             14.412             68.930
 Electronic               0.000              0.000              1.377
 Translational            0.889              2.981             36.326
 Rotational               0.889              2.981             21.227
 Vibrational             41.006              8.451             10.000
 Vibration     1          0.593              1.985              6.388
 Vibration     2          0.715              1.610              1.246
 Vibration     3          0.717              1.602              1.228
 Vibration     4          0.883              1.188              0.592

                           ! Non-Optimized Parameters !
 Normal termination of Gaussian 16 at Wed Oct 21 14:33:49 2020.
