 Gaussian 16, Revision A.03,

 ----------------------------------------------------------------------
 #P Opt(TS,MaxCyc=50,NoEigenTest,MaxStep=10,AddRedundant) PM3 5D 7F Int
 egral=UltraFineGrid SCF=(NoSymm,XQC,MaxCyc=120) IOp(1/33=1)
 ----------------------------------------------------------------------

 TstMul:  Mul=     3
 TstMul:  ICh=     0
 TstMul:  Mul=     3
 Symbolic Z-matrix:
 Charge =  0 Multiplicity = 3

 SCF Done:  E(UPM3) =  0.128178875786     A.U. after   17 cycles
 SCF Done:  E(UPM3) =  0.125134649332     A.U. after   15 cycles
 SCF Done:  E(UPM3) =  0.126533460326     A.U. after   15 cycles
 SCF Done:  E(UPM3) =  0.127001677032     A.U. after   15 cycles
 SCF Done:  E(UPM3) =  0.127417890404     A.U. after   16 cycles
 SCF Done:  E(UPM3) =  0.127675633640     A.U. after   16 cycles
 SCF Done:  E(UPM3) =  0.127581493808     A.U. after   16 cycles
 SCF Done:  E(UPM3) =  0.127530128776     A.U. after   16 cycles
 SCF Done:  E(UPM3) =  0.127512866997     A.U. after   16 cycles
 SCF Done:  E(UPM3) =  0.127509121690     A.U. after   15 cycles
 SCF Done:  E(UPM3) =  0.127506308249     A.U. after   15 cycles
 Optimization completed.
    -- Stationary point found.
 Normal termination of Gaussian 16 at Wed Oct 21 14:27:17 2020.
 Gaussian 16:  ES64L-G16RevA.03 25-Dec-2016

 ----------------------------------------------------------------------
 #P Freq PM3 5D 7F Integral=UltraFineGrid SCF=(NoSymm,XQC,MaxCyc=120) I
 Op(1/33=1) Geom=Check Guess=Read
 ----------------------------------------------------------------------

 TstMul:  Mul=     3
 TstMul:  ICh=     0
 TstMul:  Mul=     3
 Structure from the checkpoint file:  "MN_92_RKT18_BH76_PM3_SE.chk"
 Charge =  0 Multiplicity = 3

                         Standard orientation:
 ---------------------------------------------------------------------
 Center     Atomic      Atomic             Coordinates (Angstroms)
 Number     Number       Type             X           Y           Z
 ---------------------------------------------------------------------
      1          6           0       -1.160761   -0.013295   -0.000029
      2          7           0        1.366519    0.125779    0.000236
      3          1           0       -1.379746   -0.896383    0.582989
      4          1           0       -1.444401   -0.111694   -1.038183
      5          1           0       -1.534487    0.893776    0.453582
      6          1           0        0.109798    0.124432    0.001196
      7          1           0        1.647770   -0.810813   -0.001064
 ---------------------------------------------------------------------

 SCF Done:  E(UPM3) =  0.127506308249     A.U. after    2 cycles

 The electronic state is 3-A.
 Alpha  occ. eigenvalues --   -1.12760  -0.88886  -0.56587  -0.52098  -0.51881
 Alpha  occ. eigenvalues --   -0.45055  -0.43380  -0.36766
 Alpha virt. eigenvalues --    0.13128   0.14250   0.15865   0.16027   0.16388
  Beta  occ. eigenvalues --   -1.10442  -0.85126  -0.53401  -0.51235  -0.50947
  Beta  occ. eigenvalues --   -0.38571
  Beta virt. eigenvalues --   -0.01806   0.00971   0.15006   0.15427   0.16990
  Beta virt. eigenvalues --    0.17145   0.18082

 Mulliken charges and spin densities:
               1          2
     1  C   -0.177137   0.627339
     2  N   -0.113753   1.672437
     3  H    0.037871  -0.033054
     4  H    0.042673  -0.033324
     5  H    0.048783  -0.033741
     6  H    0.108607  -0.158759
     7  H    0.052955  -0.040898
 Sum of Mulliken charges =  -0.00000   2.00000

 Dipole moment (field-independent basis, Debye):
    X=             -0.6588    Y=             -1.4286    Z=             -0.0017  Tot=              1.5732
 N-N= 3.180493364364D+01 E-N=-3.515562731410D+01  KE=-1.942789033113D+01
  Exact polarizability:  42.824   0.041  12.116  -0.012  -0.021  10.982
 Approx polarizability:  20.248   0.079   7.373  -0.006  -0.009   5.938
 Leave Link  601 at Wed Oct 21 14:27:39 2020, MaxMem=  2684354560 cpu:               2.2 elap:               0.8
 (Enter /udrive/faculty/rpeverati/g16/g16/l701.exe)
 ... and contract with generalized density number  0.
 Compute integral second derivatives.
 Leave Link  701 at Wed Oct 21 14:27:40 2020, MaxMem=  2684354560 cpu:               2.6 elap:               0.8
 (Enter /udrive/faculty/rpeverati/g16/g16/l702.exe)
 L702 exits ... SP integral derivatives will be done elsewhere.

 ******    1 imaginary frequencies (negative Signs) ******

                      1                      2                      3
                      A                      A                      A
 Frequencies --  -2595.4595                11.8175               338.1750
 Red. masses --      1.0613                 1.0568                 1.1100
 Frc consts  --      4.2122                 0.0001                 0.0748
 IR Inten    --   1507.1751                77.7981                 8.6524

                      4                      5                      6
                      A                      A                      A
 Frequencies --    411.3625               526.9793               813.8988
 Red. masses --      1.0760                 4.3006                 1.1475
 Frc consts  --      0.1073                 0.7037                 0.4478
 IR Inten    --     14.9345                15.9308                38.5696

                      7                      8                      9
                      A                      A                      A
 Frequencies --   1044.9255              1176.0844              1285.4347
 Red. masses --      1.0744                 1.1184                 1.0845
 Frc consts  --      0.6911                 0.9114                 1.0558
 IR Inten    --     34.6821                31.8748                40.8168

                     10                     11                     12
                      A                      A                      A
 Frequencies --   1355.3298              1358.7141              3212.6680
 Red. masses --      1.0802                 1.0839                 1.1033
 Frc consts  --      1.1691                 1.1790                 6.7093
 IR Inten    --      0.2616                 0.3302                 0.5658

                     13                     14                     15
                      A                      A                      A
 Frequencies --   3216.0400              3236.0908              3576.1197
 Red. masses --      1.1026                 1.0219                 1.0719
 Frc consts  --      6.7188                 6.3054                 8.0765
 IR Inten    --      1.5433                 1.6573                 4.0478

 - Thermochemistry -
 -------------------
 Temperature   298.150 Kelvin.  Pressure   1.00000 Atm.
 Atom     1 has atomic number  6 and mass  12.00000

 Molecular mass:    31.04220 amu.
 Principal axes and moments of inertia in atomic units:
                           1         2         3
     Eigenvalues --    14.69330 188.95073 191.95849
           X            0.99969  -0.02501  -0.00004
           Y            0.02501   0.99969  -0.00014
           Z            0.00005   0.00013   1.00000
 This molecule is an asymmetric top.
 Rotational symmetry number  1.
 Rotational temperatures (Kelvin)      5.89479     0.45839     0.45121
 Rotational constants (GHZ):         122.82745     9.55138     9.40173
    1 imaginary frequencies ignored.
 Zero-point vibrational energy     128979.2 (Joules/Mol)
                                   30.82677 (Kcal/Mol)
 Warning -- explicit consideration of   4 degrees of freedom as
           vibrations may cause significant error
 Vibrational temperatures:     17.00   486.56   591.86   758.21  1171.02
          (Kelvin)           1503.41  1692.12  1849.45  1950.02  1954.89
                             4622.31  4627.16  4656.01  5145.24

 Zero-point correction=                           0.049126 (Hartree/Particle)
 Thermal correction to Energy=                    0.053907
 Thermal correction to Enthalpy=                  0.054851
 Thermal correction to Gibbs Free Energy=         0.021532
 Sum of electronic and zero-point Energies=              0.176632
 Sum of electronic and thermal Energies=                 0.181413
 Sum of electronic and thermal Enthalpies=               0.182358
 Sum of electronic and thermal Free Energies=            0.149038

                     E (Thermal)             CV                S
                      KCal/Mol        Cal/Mol-Kelvin    Cal/Mol-Kelvin
 Total                   33.827             13.763             70.127
 Electronic               0.000              0.000              2.183
 Translational            0.889              2.981             36.231
 Rotational               0.889              2.981             20.905
 Vibrational             32.050              7.802             10.808
 Vibration     1          0.593              1.987              7.679
 Vibration     2          0.718              1.599              1.221
 Vibration     3          0.775              1.446              0.922
 Vibration     4          0.882              1.190              0.594

                           ! Non-Optimized Parameters !
 Normal termination of Gaussian 16 at Wed Oct 21 14:27:48 2020.
