 Gaussian 16, Revision A.03,
 Gaussian 16:  ES64L-G16RevA.03 25-Dec-2016

 ----------------------------------------------------------------------
 #P Opt(MaxCyc=100) BP86/6-31G* 5D 7F Integral=UltraFineGrid SCF=(NoSym
 m,XQC,MaxCyc=120) IOp(1/33=1)
 ----------------------------------------------------------------------

 TstMul:  Mul=     2
 TstMul:  ICh=     0
 TstMul:  Mul=     2
 Symbolic Z-matrix:
 Charge =  0 Multiplicity = 2

 SCF Done:  E(UB-P86) =  -79.1461419395     A.U. after   13 cycles
 SCF Done:  E(UB-P86) =  -79.1469053298     A.U. after   11 cycles
 SCF Done:  E(UB-P86) =  -79.1469137286     A.U. after    9 cycles
 Optimization completed.
    -- Stationary point found.

                         Standard orientation:
 ---------------------------------------------------------------------
 Center     Atomic      Atomic             Coordinates (Angstroms)
 Number     Number       Type             X           Y           Z
 ---------------------------------------------------------------------
      1          6           0        0.797234   -0.000005   -0.021160
      2          6           0       -0.695565    0.000196   -0.001359
      3          1           0       -1.114041    0.901096   -0.487269
      4          1           0        1.360514   -0.935623    0.047366
      5          1           0       -1.103436   -0.012609    1.035964
      6          1           0       -1.114504   -0.888992   -0.508468
      7          1           0        1.361452    0.934978    0.047522
 ---------------------------------------------------------------------

 The electronic state is 2-A.
 Alpha  occ. eigenvalues --   -9.91002  -9.90272  -0.67882  -0.54182  -0.39738
 Alpha  occ. eigenvalues --   -0.36187  -0.34291  -0.31033  -0.15821
 Alpha virt. eigenvalues --    0.08952   0.11013   0.11623   0.14488   0.19153
 Alpha virt. eigenvalues --    0.22109   0.47376   0.50148   0.50694   0.56730
 Alpha virt. eigenvalues --    0.57605   0.69911   0.73884   0.81120   0.82170

  Beta  occ. eigenvalues --   -9.90347  -9.89702  -0.66502  -0.52221  -0.39141
  Beta  occ. eigenvalues --   -0.35121  -0.33535  -0.30639
  Beta virt. eigenvalues --   -0.06927   0.09433   0.11851   0.12442   0.15258
  Beta virt. eigenvalues --    0.19621   0.23051   0.48100   0.50496   0.55654
  Beta virt. eigenvalues --    0.58458   0.61055   0.70764   0.75830   0.81810

 Mulliken charges and spin densities:
               1          2
     1  C   -0.312067   1.076576
     2  C   -0.493943  -0.075066
     3  H    0.167128   0.014745
     4  H    0.151354  -0.049341
     5  H    0.168773   0.066486
     6  H    0.167250   0.015974
     7  H    0.151504  -0.049375
 Sum of Mulliken charges =  -0.00000   1.00000

 Dipole moment (field-independent basis, Debye):
    X=             -0.2454    Y=             -0.0006    Z=              0.1305  Tot=              0.2779
 Quadrupole moment (field-independent basis, Debye-Ang):
   XX=            -13.9157   YY=            -13.3961   ZZ=            -14.9697
   XY=              0.0014   XZ=              0.1525   YZ=              0.0002

 Normal termination of Gaussian 16 at Wed Oct  7 13:15:38 2020.
