 Gaussian 16, Revision A.03,
 Gaussian 16:  ES64L-G16RevA.03 25-Dec-2016

 ----------------------------------------------------------------------
 #P Opt(MaxCyc=100) BP86/6-31G* 5D 7F Integral=UltraFineGrid SCF=(NoSym
 m,XQC,MaxCyc=120) IOp(1/33=1)
 ----------------------------------------------------------------------

 TstMul:  Mul=     1
 TstMul:  ICh=     0
 TstMul:  Mul=     1
 Symbolic Z-matrix:
 Charge =  0 Multiplicity = 1

 SCF Done:  E(RB-P86) =  -195.290726599     A.U. after   14 cycles
 SCF Done:  E(RB-P86) =  -195.292549945     A.U. after   13 cycles
 SCF Done:  E(RB-P86) =  -195.292576623     A.U. after   11 cycles
 SCF Done:  E(RB-P86) =  -195.292578749     A.U. after    8 cycles
 Optimization completed.
    -- Stationary point found.

                         Standard orientation:
 ---------------------------------------------------------------------
 Center     Atomic      Atomic             Coordinates (Angstroms)
 Number     Number       Type             X           Y           Z
 ---------------------------------------------------------------------
      1          6           0       -2.079757   -0.609669    0.000001
      2          6           0       -1.242851    0.640282    0.000050
      3          6           0        0.112497    0.731614    0.000034
      4          6           0        1.066528   -0.369787   -0.000035
      5          6           0        2.409516   -0.202480   -0.000045
      6          1           0       -2.743840   -0.638517    0.886167
      7          1           0       -2.743873   -0.638427   -0.886144
      8          1           0       -1.478439   -1.533339   -0.000057
      9          1           0       -1.810567    1.581658    0.000105
     10          1           0        0.557206    1.737525    0.000077
     11          1           0        0.664662   -1.392017   -0.000081
     12          1           0        3.097723   -1.053871   -0.000097
     13          1           0        2.861533    0.797231   -0.000000
 ---------------------------------------------------------------------

 The electronic state is 1-A.
 Alpha  occ. eigenvalues --   -9.91354  -9.91164  -9.90717  -9.90623  -9.90152
 Alpha  occ. eigenvalues --   -0.72898  -0.67940  -0.61376  -0.53033  -0.47368
 Alpha  occ. eigenvalues --   -0.42355  -0.39536  -0.36635  -0.35492  -0.33404
 Alpha  occ. eigenvalues --   -0.32253  -0.28961  -0.27410  -0.19183
 Alpha virt. eigenvalues --   -0.05106   0.04919   0.07534   0.08243   0.10622
 Alpha virt. eigenvalues --    0.13293   0.14130   0.14413   0.16203   0.19351
 Alpha virt. eigenvalues --    0.21855   0.29383   0.34099   0.39237   0.43695

 Mulliken charges:
               1
     1  C   -0.528203
     2  C   -0.118195
     3  C   -0.120148
     4  C   -0.060479
     5  C   -0.377005
     6  H    0.172819
     7  H    0.172819
     8  H    0.167984
     9  H    0.135569
    10  H    0.126956
    11  H    0.129964
    12  H    0.150030
    13  H    0.147889
 Sum of Mulliken charges =  -0.00000

 Dipole moment (field-independent basis, Debye):
    X=             -0.5572    Y=             -0.1431    Z=              0.0000  Tot=              0.5753
 Quadrupole moment (field-independent basis, Debye-Ang):
   XX=            -28.6951   YY=            -29.3616   ZZ=            -34.2825
   XY=              0.0915   XZ=             -0.0001   YZ=              0.0002

 Normal termination of Gaussian 16 at Wed Oct  7 13:17:16 2020.
