 Gaussian 16, Revision A.03,
 Gaussian 16:  ES64L-G16RevA.03 25-Dec-2016

 ----------------------------------------------------------------------
 #P Opt(MaxCyc=100) BP86/6-31G* 5D 7F Integral=UltraFineGrid SCF=(NoSym
 m,XQC,MaxCyc=120) IOp(1/33=1)
 ----------------------------------------------------------------------

 TstMul:  Mul=     1
 TstMul:  ICh=     0
 TstMul:  Mul=     1
 Symbolic Z-matrix:
 Charge =  0 Multiplicity = 1

 SCF Done:  E(RB-P86) =  -78.5770229534     A.U. after    9 cycles
 SCF Done:  E(RB-P86) =  -78.5777234161     A.U. after    9 cycles
 SCF Done:  E(RB-P86) =  -78.5777272564     A.U. after    6 cycles
 Optimization completed.
    -- Stationary point found.

                         Standard orientation:
 ---------------------------------------------------------------------
 Center     Atomic      Atomic             Coordinates (Angstroms)
 Number     Number       Type             X           Y           Z
 ---------------------------------------------------------------------
      1          6           0        0.000000    0.000000    0.670443
      2          6           0        0.000000    0.000000   -0.670443
      3          1           0       -0.000000    0.931812    1.248269
      4          1           0       -0.000000   -0.931812    1.248269
      5          1           0        0.000000    0.931812   -1.248269
      6          1           0       -0.000000   -0.931812   -1.248269
 ---------------------------------------------------------------------

 The electronic state is 1-AG.
 Alpha  occ. eigenvalues --   -9.90676  -9.90625  -0.68123  -0.51902  -0.41398
 Alpha  occ. eigenvalues --   -0.36674  -0.30986  -0.23488
 Alpha virt. eigenvalues --   -0.02007   0.09531   0.10931   0.12706   0.21768
 Alpha virt. eigenvalues --    0.29404   0.44532   0.50612   0.52988   0.58923
 Alpha virt. eigenvalues --    0.61795   0.64220   0.79769   0.81334   0.87238

 Mulliken charges:
               1
     1  C   -0.304169
     2  C   -0.304169
     3  H    0.152084
     4  H    0.152084
     5  H    0.152084
     6  H    0.152084
 Sum of Mulliken charges =  -0.00000

 Dipole moment (field-independent basis, Debye):
    X=             -0.0000    Y=             -0.0000    Z=              0.0000  Tot=              0.0000
 Quadrupole moment (field-independent basis, Debye-Ang):
   XX=            -15.1025   YY=            -12.0607   ZZ=            -11.9652
   XY=              0.0000   XZ=             -0.0000   YZ=              0.0000

 Normal termination of Gaussian 16 at Wed Oct  7 13:14:53 2020.
