 Gaussian 16, Revision A.03,
 Gaussian 16:  ES64L-G16RevA.03 25-Dec-2016

 ----------------------------------------------------------------------
 #P Opt(MaxCyc=100) BP86/6-31G* 5D 7F Integral=UltraFineGrid SCF=(NoSym
 m,XQC,MaxCyc=120) IOp(1/33=1)
 ----------------------------------------------------------------------

 TstMul:  Mul=     2
 TstMul:  ICh=     0
 TstMul:  Mul=     2
 Symbolic Z-matrix:
 Charge =  0 Multiplicity = 2

 SCF Done:  E(UB-P86) =  -118.455384366     A.U. after   14 cycles
 SCF Done:  E(UB-P86) =  -118.456478389     A.U. after   11 cycles
 SCF Done:  E(UB-P86) =  -118.456486020     A.U. after    9 cycles
 Optimization completed.
    -- Stationary point found.

                         Standard orientation:
 ---------------------------------------------------------------------
 Center     Atomic      Atomic             Coordinates (Angstroms)
 Number     Number       Type             X           Y           Z
 ---------------------------------------------------------------------
      1          6           0        1.221128   -0.287138    0.000058
      2          6           0       -0.071182    0.575798   -0.000057
      3          6           0       -1.325710   -0.239848   -0.000013
      4          1           0        1.261353   -0.937128    0.892102
      5          1           0        1.261377   -0.937329   -0.891838
      6          1           0        2.122977    0.353119   -0.000005
      7          1           0       -0.049170    1.237839   -0.888221
      8          1           0       -0.049227    1.238029    0.887962
      9          1           0       -1.746553   -0.623384    0.935268
     10          1           0       -1.746177   -0.624018   -0.935204
 ---------------------------------------------------------------------

 The electronic state is 2-A.
 Alpha  occ. eigenvalues --   -9.90875  -9.90838  -9.89812  -0.70403  -0.60370
 Alpha  occ. eigenvalues --   -0.51783  -0.41117  -0.37912  -0.34566  -0.33323
 Alpha  occ. eigenvalues --   -0.30531  -0.28902  -0.15991
 Alpha virt. eigenvalues --    0.07951   0.11127   0.11165   0.12875   0.14636
 Alpha virt. eigenvalues --    0.14764   0.19087   0.19389   0.23452   0.47785
 Alpha virt. eigenvalues --    0.49395   0.49952   0.51600   0.54680   0.56945

  Beta  occ. eigenvalues --   -9.90910  -9.89677  -9.89585  -0.69550  -0.58881
  Beta  occ. eigenvalues --   -0.50653  -0.40706  -0.37422  -0.34097  -0.32467
  Beta  occ. eigenvalues --   -0.30066  -0.28722
  Beta virt. eigenvalues --   -0.07279   0.08361   0.11370   0.12374   0.13111
  Beta virt. eigenvalues --    0.14897   0.15080   0.19638   0.19831   0.24416
  Beta virt. eigenvalues --    0.48577   0.50196   0.52182   0.52752   0.57371

 Mulliken charges and spin densities:
               1          2
     1  C   -0.468953   0.051920
     2  C   -0.290825  -0.067710
     3  C   -0.314483   1.072809
     4  H    0.157992  -0.000485
     5  H    0.157990  -0.000488
     6  H    0.153236   0.015183
     7  H    0.153670   0.013388
     8  H    0.153666   0.013360
     9  H    0.148855  -0.048990
    10  H    0.148850  -0.048989
 Sum of Mulliken charges =   0.00000   1.00000

 Dipole moment (field-independent basis, Debye):
    X=              0.2506    Y=             -0.0035    Z=              0.0000  Tot=              0.2506
 Quadrupole moment (field-independent basis, Debye-Ang):
   XX=            -21.5230   YY=            -21.0985   ZZ=            -19.8716
   XY=              0.7469   XZ=             -0.0005   YZ=              0.0005

 Normal termination of Gaussian 16 at Wed Oct  7 13:16:27 2020.
