 Gaussian 16, Revision A.03,

 ----------------------------------------------------------------------
 #P Opt(TS,MaxCyc=50,NoEigenTest,MaxStep=10,AddRedundant) BP86/6-31G* 5
 D 7F Integral=UltraFineGrid SCF=(NoSymm,XQC,MaxCyc=120) IOp(1/33=1)
 ----------------------------------------------------------------------

 TstMul:  Mul=     2
 TstMul:  ICh=     0
 TstMul:  Mul=     2
 Symbolic Z-matrix:
 Charge =  0 Multiplicity = 2

 SCF Done:  E(UB-P86) =  -79.0792344783     A.U. after   15 cycles
 SCF Done:  E(UB-P86) =  -79.0807948673     A.U. after   14 cycles
 SCF Done:  E(UB-P86) =  -79.0799498758     A.U. after   14 cycles
 SCF Done:  E(UB-P86) =  -79.0792117243     A.U. after   14 cycles
 SCF Done:  E(UB-P86) =  -79.0786268550     A.U. after   14 cycles
 SCF Done:  E(UB-P86) =  -79.0781757706     A.U. after   14 cycles
 SCF Done:  E(UB-P86) =  -79.0778294668     A.U. after   14 cycles
 SCF Done:  E(UB-P86) =  -79.0775622847     A.U. after   14 cycles
 SCF Done:  E(UB-P86) =  -79.0773526968     A.U. after   13 cycles
 SCF Done:  E(UB-P86) =  -79.0771857785     A.U. after   13 cycles
 SCF Done:  E(UB-P86) =  -79.0757939610     A.U. after    9 cycles
 SCF Done:  E(UB-P86) =  -79.0757815066     A.U. after    9 cycles
 SCF Done:  E(UB-P86) =  -79.0757710146     A.U. after    9 cycles
 SCF Done:  E(UB-P86) =  -79.0757630845     A.U. after    9 cycles
 SCF Done:  E(UB-P86) =  -79.0757573645     A.U. after    9 cycles
 SCF Done:  E(UB-P86) =  -79.0757538843     A.U. after    9 cycles
 SCF Done:  E(UB-P86) =  -79.0757516262     A.U. after    9 cycles
 SCF Done:  E(UB-P86) =  -79.0757508474     A.U. after    9 cycles
 SCF Done:  E(UB-P86) =  -79.0757508606     A.U. after    8 cycles
 Optimization completed.
    -- Stationary point found.
 Normal termination of Gaussian 16 at Wed Oct  7 13:25:54 2020.
 Gaussian 16:  ES64L-G16RevA.03 25-Dec-2016

 ----------------------------------------------------------------------
 #P Freq BP86/6-31G* 5D 7F Integral=UltraFineGrid SCF=(NoSymm,XQC,MaxCy
 c=120) IOp(1/33=1) Geom=Check Guess=Read
 ----------------------------------------------------------------------

 TstMul:  Mul=     2
 TstMul:  ICh=     0
 TstMul:  Mul=     2
 Structure from the checkpoint file:  "MN_13_c2h5ts_BH76_BP86_631Gs.chk"
 Charge =  0 Multiplicity = 2

                         Standard orientation:
 ---------------------------------------------------------------------
 Center     Atomic      Atomic             Coordinates (Angstroms)
 Number     Number       Type             X           Y           Z
 ---------------------------------------------------------------------
      1          6           0       -0.207850    0.596616   -0.026981
      2          6           0        0.670633   -0.415622    0.007959
      3          1           0       -3.702825   -1.448350    0.152240
      4          1           0       -0.477325    1.159960    0.874230
      5          1           0       -0.695727    0.907213   -0.958441
      6          1           0        0.940388   -0.978799   -0.893289
      7          1           0        1.158791   -0.725985    0.939390
 ---------------------------------------------------------------------

 SCF Done:  E(UB-P86) =  -79.0757508606     A.U. after    1 cycles

 The electronic state is 2-A.
 Alpha  occ. eigenvalues --   -9.90684  -9.90633  -0.68132  -0.51914  -0.41393
 Alpha  occ. eigenvalues --   -0.36697  -0.30982  -0.26929  -0.23475
 Alpha virt. eigenvalues --   -0.02004   0.09543   0.10925   0.12704   0.21772
 Alpha virt. eigenvalues --    0.29419   0.44534   0.50403   0.52960   0.58626
 Alpha virt. eigenvalues --    0.61532   0.64079   0.68036   0.79766   0.81331

  Beta  occ. eigenvalues --   -9.90682  -9.90631  -0.68130  -0.51913  -0.41393
  Beta  occ. eigenvalues --   -0.36696  -0.30982  -0.23503
  Beta virt. eigenvalues --   -0.06716  -0.01984   0.09540   0.10921   0.12701
  Beta virt. eigenvalues --    0.21766   0.29415   0.44527   0.50554   0.52959
  Beta virt. eigenvalues --    0.58864   0.61764   0.64202   0.79760   0.81328

 Mulliken charges and spin densities:
               1          2
     1  C   -0.304294  -0.001015
     2  C   -0.304143   0.001922
     3  H   -0.000250   0.999264
     4  H    0.152164   0.000043
     5  H    0.152237  -0.000064
     6  H    0.152146  -0.000078
     7  H    0.152140  -0.000073
 Sum of Mulliken charges =  -0.00000   1.00000

 Dipole moment (field-independent basis, Debye):
    X=              0.0049    Y=              0.0019    Z=             -0.0004  Tot=              0.0053
 Quadrupole moment (field-independent basis, Debye-Ang):
   XX=            -15.0076   YY=            -14.5423   ZZ=            -13.4490
   XY=             -1.5073   XZ=              0.4043   YZ=              0.3433

  Exact polarizability:  18.978 -10.868  21.861   1.813   1.220  20.785
 Approx polarizability:  33.365 -23.045  39.695   2.820   1.411  29.360

 ******    2 imaginary frequencies (negative Signs) ******

                      1                      2                      3
                      A                      A                      A
 Frequencies --    -56.7827               -17.6321                11.3326
 Red. masses --      1.0468                 1.1029                 1.2943
 Frc consts  --      0.0020                 0.0002                 0.0001
 IR Inten    --      0.0150                 0.0035                 0.0009

                      4                      5                      6
                      A                      A                      A
 Frequencies --    807.5518               903.2558               934.6409
 Red. masses --      1.0428                 1.5210                 1.1607
 Frc consts  --      0.4007                 0.7311                 0.5974
 IR Inten    --      1.1578                 0.0083                88.1684

                      7                      8                      9
                      A                      A                      A
 Frequencies --   1037.2362              1206.8257              1355.3512
 Red. masses --      1.0078                 1.5277                 1.2162
 Frc consts  --      0.6388                 1.3110                 1.3163
 IR Inten    --      0.0003                 0.0000                 0.0006

                     10                     11                     12
                      A                      A                      A
 Frequencies --   1445.3977              1665.5848              3071.6330
 Red. masses --      1.1122                 3.1882                 1.0475
 Frc consts  --      1.3690                 5.2111                 5.8230
 IR Inten    --      5.2715                 0.0046                21.0349

                     13                     14                     15
                      A                      A                      A
 Frequencies --   3086.6040              3142.6186              3169.2480
 Red. masses --      1.0731                 1.1141                 1.1176
 Frc consts  --      6.0233                 6.4829                 6.6138
 IR Inten    --      0.0011                 0.0008                34.7844

 - Thermochemistry -
 -------------------
 Temperature   298.150 Kelvin.  Pressure   1.00000 Atm.
 Atom     1 has atomic number  6 and mass  12.00000

 Molecular mass:    29.03913 amu.
 Principal axes and moments of inertia in atomic units:
                           1         2         3
     Eigenvalues --    53.38493  94.37673 123.33197
           X            0.97470   0.22348  -0.00240
           Y           -0.22344   0.97464   0.01213
           Z            0.00505  -0.01129   0.99992
 This molecule is an asymmetric top.
 Rotational symmetry number  1.
 Rotational temperatures (Kelvin)      1.62244     0.91775     0.70228
 Rotational constants (GHZ):          33.80619    19.12274    14.63320
    2 imaginary frequencies ignored.
 Zero-point vibrational energy     130615.9 (Joules/Mol)
                                   31.21796 (Kcal/Mol)
 Warning -- explicit consideration of   1 degrees of freedom as
           vibrations may cause significant error
 Vibrational temperatures:     16.31  1161.89  1299.58  1344.74  1492.35
          (Kelvin)           1736.35  1950.05  2079.60  2396.41  4419.39
                             4440.93  4521.53  4559.84

 Zero-point correction=                           0.049749 (Hartree/Particle)
 Thermal correction to Energy=                    0.053743
 Thermal correction to Enthalpy=                  0.054687
 Thermal correction to Gibbs Free Energy=         0.022923
 Sum of electronic and zero-point Energies=            -79.026002
 Sum of electronic and thermal Energies=               -79.022008
 Sum of electronic and thermal Enthalpies=             -79.021064
 Sum of electronic and thermal Free Energies=          -79.052828

                     E (Thermal)             CV                S
                      KCal/Mol        Cal/Mol-Kelvin    Cal/Mol-Kelvin
 Total                   33.724             10.331             66.853
 Electronic               0.000              0.000              1.377
 Translational            0.889              2.981             36.032
 Rotational               0.889              2.981             21.057
 Vibrational             31.947              4.369              8.386
 Vibration     1          0.593              1.987              7.763

                           ! Non-Optimized Parameters !
 Normal termination of Gaussian 16 at Wed Oct  7 13:26:29 2020.
