 Gaussian 16, Revision A.03,
 Gaussian 16:  ES64L-G16RevA.03 25-Dec-2016

 ----------------------------------------------------------------------
 #P Opt(MaxCyc=100) BP86/6-31G* 5D 7F Integral=UltraFineGrid SCF=(NoSym
 m,XQC,MaxCyc=120) IOp(1/33=1)
 ----------------------------------------------------------------------

 TstMul:  Mul=     1
 TstMul:  ICh=     0
 TstMul:  Mul=     1
 Symbolic Z-matrix:
 Charge =  0 Multiplicity = 1

 SCF Done:  E(RB-P86) =  -500.128206436     A.U. after   11 cycles
 SCF Done:  E(RB-P86) =  -500.128886763     A.U. after   10 cycles
 SCF Done:  E(RB-P86) =  -500.128894480     A.U. after    7 cycles
 SCF Done:  E(RB-P86) =  -500.128896507     A.U. after    8 cycles
 Optimization completed.
    -- Stationary point found.

                         Standard orientation:
 ---------------------------------------------------------------------
 Center     Atomic      Atomic             Coordinates (Angstroms)
 Number     Number       Type             X           Y           Z
 ---------------------------------------------------------------------
      1          6           0        0.000000    0.000000   -1.140833
      2         17           0        0.000000    0.000000    0.665836
      3          1           0        0.000000    1.042147   -1.491404
      4          1           0        0.902526   -0.521074   -1.491404
      5          1           0       -0.902526   -0.521074   -1.491404
 ---------------------------------------------------------------------

 The electronic state is 1-A1.
 Alpha  occ. eigenvalues -- -100.70983  -9.96515  -9.17320  -6.99878  -6.98655
 Alpha  occ. eigenvalues --   -6.98655  -0.77541  -0.61541  -0.40332  -0.40332
 Alpha  occ. eigenvalues --   -0.37578  -0.25738  -0.25738
 Alpha virt. eigenvalues --   -0.01164   0.07967   0.11278   0.11278   0.37033
 Alpha virt. eigenvalues --    0.40839   0.42452   0.42452   0.48805   0.48805
 Alpha virt. eigenvalues --    0.51330   0.78059   0.78059   0.81264   0.83395

 Mulliken charges:
               1
     1  C   -0.568370
     2  Cl  -0.075661
     3  H    0.214677
     4  H    0.214677
     5  H    0.214677
 Sum of Mulliken charges =  -0.00000

 Dipole moment (field-independent basis, Debye):
    X=             -0.0000    Y=             -0.0000    Z=             -2.0443  Tot=              2.0443
 Quadrupole moment (field-independent basis, Debye-Ang):
   XX=            -19.7521   YY=            -19.7521   ZZ=            -17.9161
   XY=             -0.0000   XZ=              0.0000   YZ=              0.0000

 Normal termination of Gaussian 16 at Wed Oct  7 13:16:18 2020.
