 Gaussian 16, Revision A.03,
 Gaussian 16:  ES64L-G16RevA.03 25-Dec-2016

 ----------------------------------------------------------------------
 #P Opt(MaxCyc=100) BP86/6-31G* 5D 7F Integral=UltraFineGrid SCF=(NoSym
 m,XQC,MaxCyc=120) IOp(1/33=1)
 ----------------------------------------------------------------------

 TstMul:  Mul=     1
 TstMul:  ICh=     0
 TstMul:  Mul=     1
 Symbolic Z-matrix:
 Charge =  0 Multiplicity = 1

 SCF Done:  E(RB-P86) =  -79.8183066672     A.U. after    9 cycles
 SCF Done:  E(RB-P86) =  -79.8191481454     A.U. after    9 cycles
 SCF Done:  E(RB-P86) =  -79.8191499388     A.U. after    6 cycles
 Optimization completed.
    -- Stationary point found.

                         Standard orientation:
 ---------------------------------------------------------------------
 Center     Atomic      Atomic             Coordinates (Angstroms)
 Number     Number       Type             X           Y           Z
 ---------------------------------------------------------------------
      1          6           0       -0.767678   -0.000000   -0.000000
      2          6           0        0.767678    0.000000   -0.000000
      3          1           0        1.170490   -0.581763   -0.848545
      4          1           0       -1.170492   -1.025782    0.079042
      5          1           0        1.170490   -0.443982    0.928092
      6          1           0        1.170491    1.025743   -0.079548
      7          1           0       -1.170490    0.581344    0.848832
      8          1           0       -1.170490    0.444440   -0.927873
 ---------------------------------------------------------------------

 The electronic state is 1-A.
 Alpha  occ. eigenvalues --   -9.89441  -9.89438  -0.67550  -0.54882  -0.38158
 Alpha  occ. eigenvalues --   -0.38158  -0.32063  -0.29637  -0.29637
 Alpha virt. eigenvalues --    0.08056   0.12853   0.13139   0.13139   0.16066
 Alpha virt. eigenvalues --    0.16066   0.20190   0.47593   0.50649   0.50649
 Alpha virt. eigenvalues --    0.59670   0.59670   0.61334   0.82986   0.82986

 Mulliken charges:
               1
     1  C   -0.470813
     2  C   -0.470813
     3  H    0.156938
     4  H    0.156938
     5  H    0.156938
     6  H    0.156938
     7  H    0.156938
     8  H    0.156938
 Sum of Mulliken charges =  -0.00000

 Dipole moment (field-independent basis, Debye):
    X=              0.0000    Y=              0.0000    Z=              0.0000  Tot=              0.0000
 Quadrupole moment (field-independent basis, Debye-Ang):
   XX=            -15.1964   YY=            -14.7067   ZZ=            -14.7067
   XY=              0.0000   XZ=             -0.0000   YZ=              0.0000

 Normal termination of Gaussian 16 at Wed Oct  7 13:15:36 2020.
