 Gaussian 16, Revision A.03,

 ----------------------------------------------------------------------
 #P Opt(TS,MaxCyc=50,NoEigenTest,MaxStep=10,AddRedundant) BP86/6-31G* 5
 D 7F Integral=UltraFineGrid SCF=(NoSymm,XQC,MaxCyc=120) IOp(1/33=1)
 ----------------------------------------------------------------------

 TstMul:  Mul=     2
 TstMul:  ICh=     0
 TstMul:  Mul=     2
 Symbolic Z-matrix:
 Charge =  0 Multiplicity = 2

 SCF Done:  E(UB-P86) =  -118.405585176     A.U. after   15 cycles
 SCF Done:  E(UB-P86) =  -118.407737406     A.U. after   14 cycles
 SCF Done:  E(UB-P86) =  -118.406617728     A.U. after   14 cycles
 SCF Done:  E(UB-P86) =  -118.405742342     A.U. after   14 cycles
 SCF Done:  E(UB-P86) =  -118.405165614     A.U. after   14 cycles
 SCF Done:  E(UB-P86) =  -118.404841942     A.U. after   14 cycles
 SCF Done:  E(UB-P86) =  -118.404724236     A.U. after   14 cycles
 SCF Done:  E(UB-P86) =  -118.404719858     A.U. after   11 cycles
 SCF Done:  E(UB-P86) =  -118.404721405     A.U. after    9 cycles
 SCF Done:  E(UB-P86) =  -118.404736078     A.U. after   12 cycles
 SCF Done:  E(UB-P86) =  -118.404742335     A.U. after   11 cycles
 SCF Done:  E(UB-P86) =  -118.404755030     A.U. after   11 cycles
 SCF Done:  E(UB-P86) =  -118.404760998     A.U. after   11 cycles
 SCF Done:  E(UB-P86) =  -118.404764655     A.U. after   11 cycles
 SCF Done:  E(UB-P86) =  -118.404765625     A.U. after   10 cycles
 SCF Done:  E(UB-P86) =  -118.404766026     A.U. after   10 cycles
 SCF Done:  E(UB-P86) =  -118.404766163     A.U. after    9 cycles
 SCF Done:  E(UB-P86) =  -118.404766254     A.U. after    9 cycles
 Optimization completed.
    -- Stationary point found.
 Normal termination of Gaussian 16 at Wed Oct  7 13:21:09 2020.
 Gaussian 16:  ES64L-G16RevA.03 25-Dec-2016

 ----------------------------------------------------------------------
 #P Freq BP86/6-31G* 5D 7F Integral=UltraFineGrid SCF=(NoSymm,XQC,MaxCy
 c=120) IOp(1/33=1) Geom=Check Guess=Read
 ----------------------------------------------------------------------

 TstMul:  Mul=     2
 TstMul:  ICh=     0
 TstMul:  Mul=     2
 Structure from the checkpoint file:  "MN_17_c3h7ts_BH76_BP86_631Gs.chk"
 Charge =  0 Multiplicity = 2

                         Standard orientation:
 ---------------------------------------------------------------------
 Center     Atomic      Atomic             Coordinates (Angstroms)
 Number     Number       Type             X           Y           Z
 ---------------------------------------------------------------------
      1          6           0       -0.560118    0.644328    0.000074
      2          6           0       -1.455531   -0.376867   -0.000050
      3          1           0       -0.275350    1.149777   -0.928804
      4          1           0       -0.274894    1.149194    0.929129
      5          1           0       -1.814359   -0.828685    0.931677
      6          1           0       -1.814782   -0.828012   -0.931942
      7          6           0        1.761167   -0.231894   -0.000062
      8          1           0        2.282096    0.729054   -0.026155
      9          1           0        1.704678   -0.813756   -0.922278
     10          1           0        1.719504   -0.770977    0.948604
 ---------------------------------------------------------------------

 SCF Done:  E(UB-P86) =  -118.404766254     A.U. after    1 cycles

 The electronic state is 2-A.
 Alpha  occ. eigenvalues --   -9.90858  -9.90774  -9.90208  -0.67862  -0.60476
 Alpha  occ. eigenvalues --   -0.51633  -0.41035  -0.36762  -0.35835  -0.35447
 Alpha  occ. eigenvalues --   -0.30666  -0.24988  -0.15557
 Alpha virt. eigenvalues --   -0.00425   0.07690   0.11040   0.11265   0.13770
 Alpha virt. eigenvalues --    0.15492   0.15518   0.21792   0.29234   0.42417
 Alpha virt. eigenvalues --    0.49542   0.49832   0.51712   0.55937   0.56016

  Beta  occ. eigenvalues --   -9.91005  -9.89808  -9.89586  -0.67457  -0.57807
  Beta  occ. eigenvalues --   -0.51282  -0.40890  -0.36343  -0.35023  -0.34838
  Beta  occ. eigenvalues --   -0.30558  -0.23325
  Beta virt. eigenvalues --   -0.08507   0.01183   0.08358   0.11330   0.11700
  Beta virt. eigenvalues --    0.14084   0.16130   0.16152   0.21880   0.29478
  Beta virt. eigenvalues --    0.43034   0.50162   0.51465   0.54341   0.56560

 Mulliken charges and spin densities:
               1          2
     1  C   -0.285417  -0.134638
     2  C   -0.311585   0.323014
     3  H    0.157746   0.007638
     4  H    0.157779   0.007634
     5  H    0.147819  -0.015021
     6  H    0.147807  -0.015022
     7  C   -0.514755   0.937398
     8  H    0.162523  -0.035733
     9  H    0.169180  -0.037632
    10  H    0.168904  -0.037638
 Sum of Mulliken charges =   0.00000   1.00000

 Dipole moment (field-independent basis, Debye):
    X=              0.1763    Y=              0.0556    Z=              0.0003  Tot=              0.1848
 Quadrupole moment (field-independent basis, Debye-Ang):
   XX=            -21.9818   YY=            -20.3791   ZZ=            -19.2131
   XY=              1.5163   XZ=              0.0005   YZ=             -0.0000

  Exact polarizability:  53.966   7.546  32.564  -0.001  -0.006  31.974
 Approx polarizability:  97.914  19.801  53.294   0.001  -0.006  46.575

 ******    1 imaginary frequencies (negative Signs) ******

                      1                      2                      3
                      A                      A                      A
 Frequencies --   -254.4825                76.2632               191.0260
 Red. masses --      8.5208                 1.0915                 2.4813
 Frc consts  --      0.3251                 0.0037                 0.0533
 IR Inten    --      0.6584                 0.0039                 0.9168

                      4                      5                      6
                      A                      A                      A
 Frequencies --    307.1278               403.2010               417.8140
 Red. masses --      1.0643                 1.1030                 1.0827
 Frc consts  --      0.0591                 0.1056                 0.1114
 IR Inten    --      0.1599                 1.6659                 0.8111

                      7                      8                      9
                      A                      A                      A
 Frequencies --    687.7742               803.0827               840.5586
 Red. masses --      1.0862                 1.0426                 1.4489
 Frc consts  --      0.3027                 0.3962                 0.6032
 IR Inten    --     12.4605                 1.0425                20.2310

                     10                     11                     12
                      A                      A                      A
 Frequencies --    898.6775              1000.4054              1206.5650
 Red. masses --      1.1352                 1.0153                 1.5047
 Frc consts  --      0.5402                 0.5987                 1.2906
 IR Inten    --     62.4824                 0.0278                 0.0420

                     13                     14                     15
                      A                      A                      A
 Frequencies --   1312.7721              1393.3608              1398.5253
 Red. masses --      1.4420                 1.0978                 1.0970
 Frc consts  --      1.4642                 1.2558                 1.2642
 IR Inten    --      0.5700                 2.2405                 2.0566

                     16                     17                     18
                      A                      A                      A
 Frequencies --   1441.5615              1589.7956              3059.2185
 Red. masses --      1.1130                 2.2496                 1.0110
 Frc consts  --      1.3627                 3.3499                 5.5745
 IR Inten    --      4.3041                 0.1596                 0.0152

                     19                     20                     21
                      A                      A                      A
 Frequencies --   3077.9621              3089.7897              3150.0484
 Red. masses --      1.0488                 1.0655                 1.1145
 Frc consts  --      5.8544                 5.9934                 6.5156
 IR Inten    --     16.4219                 1.0645                 1.0814

                     22                     23                     24
                      A                      A                      A
 Frequencies --   3176.9691              3220.0215              3230.4064
 Red. masses --      1.1179                 1.1162                 1.1164
 Frc consts  --      6.6475                 6.8186                 6.8643
 IR Inten    --     27.4449                 9.9332                10.0016

 - Thermochemistry -
 -------------------
 Temperature   298.150 Kelvin.  Pressure   1.00000 Atm.
 Atom     1 has atomic number  6 and mass  12.00000

 Molecular mass:    43.05478 amu.
 Principal axes and moments of inertia in atomic units:
                           1         2         3
     Eigenvalues --    65.74123 319.89567 348.10913
           X            0.99983   0.01836   0.00000
           Y           -0.01836   0.99983  -0.00006
           Z           -0.00001   0.00006   1.00000
 This molecule is an asymmetric top.
 Rotational symmetry number  1.
 Rotational temperatures (Kelvin)      1.31750     0.27076     0.24881
 Rotational constants (GHZ):          27.45220     5.64166     5.18441
    1 imaginary frequencies ignored.
 Zero-point vibrational energy     215165.9 (Joules/Mol)
                                   51.42588 (Kcal/Mol)
 Warning -- explicit consideration of   5 degrees of freedom as
           vibrations may cause significant error
 Vibrational temperatures:    109.73   274.84   441.89   580.12   601.14
          (Kelvin)            989.55  1155.46  1209.38  1293.00  1439.36
                             1735.98  1888.79  2004.74  2012.17  2074.09
                             2287.36  4401.53  4428.50  4445.52  4532.22
                             4570.95  4632.89  4647.83

 Zero-point correction=                           0.081952 (Hartree/Particle)
 Thermal correction to Energy=                    0.087556
 Thermal correction to Enthalpy=                  0.088501
 Thermal correction to Gibbs Free Energy=         0.054013
 Sum of electronic and zero-point Energies=           -118.322814
 Sum of electronic and thermal Energies=              -118.317210
 Sum of electronic and thermal Enthalpies=            -118.316266
 Sum of electronic and thermal Free Energies=         -118.350753

                     E (Thermal)             CV                S
                      KCal/Mol        Cal/Mol-Kelvin    Cal/Mol-Kelvin
 Total                   54.942             18.001             72.584
 Electronic               0.000              0.000              1.377
 Translational            0.889              2.981             37.206
 Rotational               0.889              2.981             23.508
 Vibrational             53.165             12.040             10.493
 Vibration     1          0.599              1.965              3.985
 Vibration     2          0.634              1.852              2.218
 Vibration     3          0.697              1.660              1.378
 Vibration     4          0.769              1.463              0.951
 Vibration     5          0.781              1.432              0.899

                           ! Non-Optimized Parameters !
 Normal termination of Gaussian 16 at Wed Oct  7 13:21:58 2020.
