 Gaussian 16, Revision A.03,
 Gaussian 16:  ES64L-G16RevA.03 25-Dec-2016

 ----------------------------------------------------------------------
 #P Opt(MaxCyc=100) BP86/6-31G* 5D 7F Integral=UltraFineGrid SCF=(NoSym
 m,XQC,MaxCyc=120) IOp(1/33=1)
 ----------------------------------------------------------------------

 TstMul:  Mul=     2
 TstMul:  ICh=     0
 TstMul:  Mul=     2
 Symbolic Z-matrix:
 Charge =  0 Multiplicity = 2

 SCF Done:  E(UB-P86) =  -79.1461161719     A.U. after   13 cycles
 SCF Done:  E(UB-P86) =  -79.1469025162     A.U. after   11 cycles
 SCF Done:  E(UB-P86) =  -79.1469137236     A.U. after    9 cycles
 SCF Done:  E(UB-P86) =  -79.1469152017     A.U. after    8 cycles
 Optimization completed.
    -- Stationary point found.

                         Standard orientation:
 ---------------------------------------------------------------------
 Center     Atomic      Atomic             Coordinates (Angstroms)
 Number     Number       Type             X           Y           Z
 ---------------------------------------------------------------------
      1          6           0       -0.010704   -0.694823    0.000000
      2          6           0       -0.010704    0.797103   -0.000000
      3          1           0        1.020928   -1.118103   -0.000000
      4          1           0       -0.512190   -1.108169    0.894942
      5          1           0       -0.512190   -1.108169   -0.894942
      6          1           0        0.065949    1.360379   -0.934896
      7          1           0        0.065949    1.360379    0.934896
 ---------------------------------------------------------------------

 The electronic state is 2-A'.
 Alpha  occ. eigenvalues --   -9.90999  -9.90273  -0.67896  -0.54188  -0.39738
 Alpha  occ. eigenvalues --   -0.36174  -0.34325  -0.31022  -0.15820
 Alpha virt. eigenvalues --    0.08958   0.11014   0.11612   0.14479   0.19158
 Alpha virt. eigenvalues --    0.22156   0.47353   0.50147   0.50690   0.56769
 Alpha virt. eigenvalues --    0.57616   0.69924   0.73915   0.81084   0.82157

  Beta  occ. eigenvalues --   -9.90349  -9.89699  -0.66515  -0.52229  -0.39140
  Beta  occ. eigenvalues --   -0.35104  -0.33570  -0.30628
  Beta virt. eigenvalues --   -0.06934   0.09438   0.11843   0.12442   0.15252
  Beta virt. eigenvalues --    0.19626   0.23098   0.48079   0.50496   0.55654
  Beta virt. eigenvalues --    0.58500   0.61060   0.70776   0.75860   0.81776

 Mulliken charges and spin densities:
               1          2
     1  C   -0.494015  -0.075208
     2  C   -0.311842   1.076065
     3  H    0.168634   0.066942
     4  H    0.167191   0.015428
     5  H    0.167191   0.015428
     6  H    0.151420  -0.049327
     7  H    0.151420  -0.049327
 Sum of Mulliken charges =   0.00000   1.00000

 Dipole moment (field-independent basis, Debye):
    X=              0.1280    Y=             -0.2475    Z=              0.0000  Tot=              0.2787
 Quadrupole moment (field-independent basis, Debye-Ang):
   XX=            -14.9685   YY=            -13.9125   ZZ=            -13.3990
   XY=              0.1674   XZ=             -0.0000   YZ=             -0.0000

 Normal termination of Gaussian 16 at Wed Oct  7 13:16:28 2020.
