 Gaussian 16, Revision A.03,
 Gaussian 16:  ES64L-G16RevA.03 25-Dec-2016

 ----------------------------------------------------------------------
 #P Opt(MaxCyc=100) BP86/6-31G* 5D 7F Integral=UltraFineGrid SCF=(NoSym
 m,XQC,MaxCyc=120) IOp(1/33=1)
 ----------------------------------------------------------------------

 TstMul:  Mul=     1
 TstMul:  ICh=     0
 TstMul:  Mul=     1
 Symbolic Z-matrix:
 Charge =  0 Multiplicity = 1

 SCF Done:  E(RB-P86) =  -40.5105060569     A.U. after    9 cycles
 SCF Done:  E(RB-P86) =  -40.5109974458     A.U. after    5 cycles
 Optimization completed.
    -- Stationary point found.

                         Standard orientation:
 ---------------------------------------------------------------------
 Center     Atomic      Atomic             Coordinates (Angstroms)
 Number     Number       Type             X           Y           Z
 ---------------------------------------------------------------------
      1          6           0        0.000000    0.000000    0.000000
      2          1           0        0.635942    0.635942    0.635942
      3          1           0       -0.635942   -0.635942    0.635942
      4          1           0        0.635942   -0.635942   -0.635942
      5          1           0       -0.635942    0.635942   -0.635942
 ---------------------------------------------------------------------

 The electronic state is 1-A1.
 Alpha  occ. eigenvalues --   -9.88744  -0.62176  -0.34304  -0.34304  -0.34304
 Alpha virt. eigenvalues --    0.09400   0.14564   0.14564   0.14564   0.49762
 Alpha virt. eigenvalues --    0.49762   0.49762   0.84167   0.84167   0.84167
 Alpha virt. eigenvalues --    0.87871   1.06227   1.58575   1.58575   2.15360

 Mulliken charges:
               1
     1  C   -0.679257
     2  H    0.169814
     3  H    0.169814
     4  H    0.169814
     5  H    0.169814
 Sum of Mulliken charges =   0.00000

 Dipole moment (field-independent basis, Debye):
    X=              0.0000    Y=              0.0000    Z=              0.0000  Tot=              0.0000
 Quadrupole moment (field-independent basis, Debye-Ang):
   XX=             -8.2553   YY=             -8.2553   ZZ=             -8.2553
   XY=              0.0000   XZ=              0.0000   YZ=              0.0000

 Normal termination of Gaussian 16 at Wed Oct  7 13:16:32 2020.
