 Gaussian 16, Revision A.03,
 Gaussian 16:  ES64L-G16RevA.03 25-Dec-2016

 ----------------------------------------------------------------------
 #P Opt(MaxCyc=100) BP86/6-31G* 5D 7F Integral=UltraFineGrid SCF=(NoSym
 m,XQC,MaxCyc=120) IOp(1/33=1)
 ----------------------------------------------------------------------

 TstMul:  Mul=     1
 TstMul:  ICh=     0
 TstMul:  Mul=     1
 Symbolic Z-matrix:
 Charge =  0 Multiplicity = 1

 SCF Done:  E(RB-P86) =  -115.707582113     A.U. after   11 cycles
 SCF Done:  E(RB-P86) =  -115.708776979     A.U. after   11 cycles
 SCF Done:  E(RB-P86) =  -115.708790304     A.U. after    7 cycles
 Optimization completed.
    -- Stationary point found.

                         Standard orientation:
 ---------------------------------------------------------------------
 Center     Atomic      Atomic             Coordinates (Angstroms)
 Number     Number       Type             X           Y           Z
 ---------------------------------------------------------------------
      1          6           0       -0.047194    0.662915    0.000000
      2          8           0       -0.047194   -0.762709    0.000000
      3          1           0       -1.104420    0.976587    0.000000
      4          1           0        0.888512   -1.047574    0.000000
      5          1           0        0.438315    1.097587    0.900724
      6          1           0        0.438315    1.097587   -0.900724
 ---------------------------------------------------------------------

 The electronic state is 1-A'.
 Alpha  occ. eigenvalues --  -18.78010  -9.94367  -0.92142  -0.61074  -0.44934
 Alpha  occ. eigenvalues --   -0.38106  -0.36926  -0.28236  -0.21275
 Alpha virt. eigenvalues --    0.05114   0.10359   0.13408   0.14362   0.16627
 Alpha virt. eigenvalues --    0.48640   0.53264   0.54216   0.73222   0.79363
 Alpha virt. eigenvalues --    0.81229   0.84077   0.91973   0.94567   0.98033

 Mulliken charges:
               1
     1  C   -0.249496
     2  O   -0.591304
     3  H    0.171354
     4  H    0.393636
     5  H    0.137905
     6  H    0.137905
 Sum of Mulliken charges =  -0.00000

 Dipole moment (field-independent basis, Debye):
    X=              1.4115    Y=              0.8249    Z=              0.0000  Tot=              1.6349
 Quadrupole moment (field-independent basis, Debye-Ang):
   XX=            -11.5470   YY=            -13.0373   ZZ=            -13.6460
   XY=             -2.1073   XZ=              0.0000   YZ=              0.0000

 Normal termination of Gaussian 16 at Wed Oct  7 13:16:18 2020.
