 Gaussian 16, Revision A.03,
 Gaussian 16:  ES64L-G16RevA.03 25-Dec-2016

 ----------------------------------------------------------------------
 #P Opt(MaxCyc=100) BP86/6-31G* 5D 7F Integral=UltraFineGrid SCF=(NoSym
 m,XQC,MaxCyc=120) IOp(1/33=1)
 ----------------------------------------------------------------------

 TstMul:  Mul=     1
 TstMul:  ICh=    -1
 TstMul:  Mul=     1
 Symbolic Z-matrix:
 Charge = -1 Multiplicity = 1

 SCF Done:  E(RB-P86) =  -960.423577503     A.U. after   13 cycles
 SCF Done:  E(RB-P86) =  -960.424810443     A.U. after   12 cycles
 SCF Done:  E(RB-P86) =  -960.425068361     A.U. after   12 cycles
 SCF Done:  E(RB-P86) =  -960.425352859     A.U. after   11 cycles
 SCF Done:  E(RB-P86) =  -960.425440342     A.U. after   11 cycles
 SCF Done:  E(RB-P86) =  -960.425450782     A.U. after    9 cycles
 SCF Done:  E(RB-P86) =  -960.425452433     A.U. after    8 cycles
 SCF Done:  E(RB-P86) =  -960.425452969     A.U. after    7 cycles
 Optimization completed.
    -- Stationary point found.

                         Standard orientation:
 ---------------------------------------------------------------------
 Center     Atomic      Atomic             Coordinates (Angstroms)
 Number     Number       Type             X           Y           Z
 ---------------------------------------------------------------------
      1         17           0        0.000000    0.000000   -2.356922
      2          6           0        0.000000    0.000000   -0.455621
      3          1           0       -0.000000    1.042979   -0.126578
      4          1           0       -0.903246   -0.521489   -0.126578
      5          1           0        0.903246   -0.521489   -0.126578
      6         17           0        0.000000    0.000000    2.540066
 ---------------------------------------------------------------------

 The electronic state is 1-A1.
 Alpha  occ. eigenvalues -- -100.55916-100.41096  -9.80037  -9.02203  -8.86913
 Alpha  occ. eigenvalues --   -6.84603  -6.83632  -6.83632  -6.68808  -6.68669
 Alpha  occ. eigenvalues --   -6.68669  -0.60676  -0.45751  -0.41203  -0.23473
 Alpha  occ. eigenvalues --   -0.23473  -0.20886  -0.11479  -0.11479   0.00338
 Alpha  occ. eigenvalues --    0.00817   0.00817
 Alpha virt. eigenvalues --    0.12721   0.24343   0.28297   0.28297   0.49648
 Alpha virt. eigenvalues --    0.54477   0.55606   0.55606   0.58157   0.62948
 Alpha virt. eigenvalues --    0.62948   0.67414   0.68139   0.68139   0.88494

 Mulliken charges:
               1
     1  Cl  -0.264485
     2  C   -0.507097
     3  H    0.216443
     4  H    0.216443
     5  H    0.216443
     6  Cl  -0.877748
 Sum of Mulliken charges =  -1.00000

 Dipole moment (field-independent basis, Debye):
    X=             -0.0000    Y=             -0.0000    Z=             -6.6754  Tot=              6.6754
 Quadrupole moment (field-independent basis, Debye-Ang):
   XX=            -35.5641   YY=            -35.5641   ZZ=            -72.9190
   XY=             -0.0000   XZ=              0.0000   YZ=              0.0000

 Normal termination of Gaussian 16 at Wed Oct  7 13:18:15 2020.
