 Gaussian 16, Revision A.03,

 ----------------------------------------------------------------------
 #P Opt(TS,MaxCyc=50,NoEigenTest,MaxStep=10,AddRedundant) BP86/6-31G* 5
 D 7F Integral=UltraFineGrid SCF=(NoSymm,XQC,MaxCyc=120) IOp(1/33=1)
 ----------------------------------------------------------------------

 TstMul:  Mul=     1
 TstMul:  ICh=    -1
 TstMul:  Mul=     1
 Symbolic Z-matrix:
 Charge = -1 Multiplicity = 1

 SCF Done:  E(RB-P86) =  -960.417724294     A.U. after   13 cycles
 SCF Done:  E(RB-P86) =  -960.418346788     A.U. after   12 cycles
 SCF Done:  E(RB-P86) =  -960.418471216     A.U. after   12 cycles
 SCF Done:  E(RB-P86) =  -960.418491689     A.U. after   11 cycles
 SCF Done:  E(RB-P86) =  -960.418488732     A.U. after    8 cycles
 SCF Done:  E(RB-P86) =  -960.418457231     A.U. after   12 cycles
 SCF Done:  E(RB-P86) =  -960.418463896     A.U. after    9 cycles
 Optimization completed.
    -- Stationary point found.
 Normal termination of Gaussian 16 at Wed Oct  7 13:17:52 2020.
 Gaussian 16:  ES64L-G16RevA.03 25-Dec-2016

 ----------------------------------------------------------------------
 #P Freq BP86/6-31G* 5D 7F Integral=UltraFineGrid SCF=(NoSymm,XQC,MaxCy
 c=120) IOp(1/33=1) Geom=Check Guess=Read
 ----------------------------------------------------------------------

 TstMul:  Mul=     1
 TstMul:  ICh=    -1
 TstMul:  Mul=     1
 Structure from the checkpoint file:  "MN_28_clch3clts_BH76_BP86_631Gs.chk"
 Charge = -1 Multiplicity = 1

                         Standard orientation:
 ---------------------------------------------------------------------
 Center     Atomic      Atomic             Coordinates (Angstroms)
 Number     Number       Type             X           Y           Z
 ---------------------------------------------------------------------
      1         17           0        2.361232   -0.000009   -0.000051
      2          6           0       -0.000114    0.000034    0.000157
      3          1           0        0.000097    0.942319   -0.534888
      4          1           0        0.000109   -0.934643   -0.548061
      5          1           0        0.000104   -0.007573    1.083753
      6         17           0       -2.361210   -0.000009   -0.000051
 ---------------------------------------------------------------------

 SCF Done:  E(RB-P86) =  -960.418463896     A.U. after    1 cycles

 The electronic state is 1-A.
 Alpha  occ. eigenvalues -- -100.47775-100.47770  -9.80227  -8.93772  -8.93767
 Alpha  occ. eigenvalues --   -6.75909  -6.75903  -6.75380  -6.75380  -6.75375
 Alpha  occ. eigenvalues --   -6.75375  -0.51387  -0.48643  -0.43743  -0.23339
 Alpha  occ. eigenvalues --   -0.23334  -0.12384  -0.05423  -0.05423  -0.04742
 Alpha  occ. eigenvalues --   -0.04742  -0.04712
 Alpha virt. eigenvalues --    0.10566   0.23046   0.29597   0.29601   0.53603
 Alpha virt. eigenvalues --    0.53950   0.60016   0.60021   0.60493   0.60493
 Alpha virt. eigenvalues --    0.65132   0.68911   0.68911   0.69697   0.83069

 Mulliken charges:
               1
     1  Cl  -0.616133
     2  C   -0.426938
     3  H    0.219676
     4  H    0.219682
     5  H    0.219640
     6  Cl  -0.615927
 Sum of Mulliken charges =  -1.00000

 Dipole moment (field-independent basis, Debye):
    X=             -0.0019    Y=              0.0001    Z=              0.0006  Tot=              0.0020
 Quadrupole moment (field-independent basis, Debye-Ang):
   XX=            -71.4315   YY=            -35.4852   ZZ=            -35.4864
   XY=             -0.0000   XZ=              0.0000   YZ=              0.0000

  Exact polarizability: 101.822  -0.000  22.983   0.000  -0.000  22.982
 Approx polarizability: 220.991  -0.000  32.976   0.000  -0.000  32.973

 ******    1 imaginary frequencies (negative Signs) ******

                      1                      2                      3
                      A                      A                      A
 Frequencies --   -292.3106               192.2455               192.3014
 Red. masses --     13.2681                 4.3447                 4.3450
 Frc consts  --      0.6680                 0.0946                 0.0947
 IR Inten    --    774.8957                11.9074                11.9074

                      4                      5                      6
                      A                      A                      A
 Frequencies --    207.3871               892.5236               892.6516
 Red. masses --     34.9652                 1.0123                 1.0123
 Frc consts  --      0.8860                 0.4751                 0.4752
 IR Inten    --      0.0000                 0.0000                 0.0000

                      7                      8                      9
                      A                      A                      A
 Frequencies --    959.3425              1373.6492              1373.8794
 Red. masses --      1.0436                 1.1050                 1.1049
 Frc consts  --      0.5659                 1.2284                 1.2288
 IR Inten    --     41.9413                 5.0744                 5.0705

                     10                     11                     12
                      A                      A                      A
 Frequencies --   3143.4057              3335.7925              3336.0987
 Red. masses --      1.0078                 1.1228                 1.1229
 Frc consts  --      5.8673                 7.3613                 7.3629
 IR Inten    --      0.0000                 0.0000                 0.0000

 - Thermochemistry -
 -------------------
 Temperature   298.150 Kelvin.  Pressure   1.00000 Atm.
 Atom     1 has atomic number 17 and mass  34.96885

 Molecular mass:    84.96118 amu.
 Principal axes and moments of inertia in atomic units:
                           1         2         3
     Eigenvalues --    12.677781398.796781398.79888
           X            1.00000  -0.00000   0.00000
           Y            0.00000   1.00000  -0.00008
           Z           -0.00000   0.00008   1.00000
 This molecule is an asymmetric top.
 Rotational symmetry number  1.
 Rotational temperatures (Kelvin)      6.83195     0.06192     0.06192
 Rotational constants (GHZ):         142.35465     1.29021     1.29021
    1 imaginary frequencies ignored.
 Zero-point vibrational energy      95098.8 (Joules/Mol)
                                   22.72916 (Kcal/Mol)
 Warning -- explicit consideration of   3 degrees of freedom as
           vibrations may cause significant error
 Vibrational temperatures:    276.60   276.68   298.38  1284.14  1284.33
          (Kelvin)           1380.28  1976.37  1976.71  4522.66  4799.46
                             4799.90

 Zero-point correction=                           0.036221 (Hartree/Particle)
 Thermal correction to Energy=                    0.040920
 Thermal correction to Enthalpy=                  0.041864
 Thermal correction to Gibbs Free Energy=         0.008192
 Sum of electronic and zero-point Energies=           -960.382243
 Sum of electronic and thermal Energies=              -960.377544
 Sum of electronic and thermal Enthalpies=            -960.376600
 Sum of electronic and thermal Free Energies=         -960.410272

                     E (Thermal)             CV                S
                      KCal/Mol        Cal/Mol-Kelvin    Cal/Mol-Kelvin
 Total                   25.677             13.168             70.869
 Electronic               0.000              0.000              0.000
 Translational            0.889              2.981             39.232
 Rotational               0.889              2.981             24.721
 Vibrational             23.900              7.206              6.916
 Vibration     1          0.634              1.851              2.206
 Vibration     2          0.634              1.851              2.206
 Vibration     3          0.641              1.829              2.067

 Optimization completed.
    -- Stationary point found.
 Normal termination of Gaussian 16 at Wed Oct  7 13:18:24 2020.
