 Gaussian 16, Revision A.03,
 Gaussian 16:  ES64L-G16RevA.03 25-Dec-2016

 ----------------------------------------------------------------------
 #P Opt(MaxCyc=100) BP86/6-31G* 5D 7F Integral=UltraFineGrid SCF=(NoSym
 m,XQC,MaxCyc=120) IOp(1/33=1)
 ----------------------------------------------------------------------

 TstMul:  Mul=     1
 TstMul:  ICh=    -1
 TstMul:  Mul=     1
 Symbolic Z-matrix:
 Charge = -1 Multiplicity = 1

 SCF Done:  E(RB-P86) =  -599.941123313     A.U. after   19 cycles
 SCF Done:  E(RB-P86) =  -599.945830788     A.U. after   15 cycles
 SCF Done:  E(RB-P86) =  -599.949762326     A.U. after   14 cycles
 SCF Done:  E(RB-P86) =  -599.951685871     A.U. after   14 cycles
 SCF Done:  E(RB-P86) =  -599.955328609     A.U. after   12 cycles
 SCF Done:  E(RB-P86) =  -599.970766653     A.U. after   14 cycles
 SCF Done:  E(RB-P86) =  -599.992768300     A.U. after   13 cycles
 SCF Done:  E(RB-P86) =  -600.003622954     A.U. after   13 cycles
 SCF Done:  E(RB-P86) =  -600.010959171     A.U. after   13 cycles
 SCF Done:  E(RB-P86) =  -600.013969420     A.U. after   12 cycles
 SCF Done:  E(RB-P86) =  -600.015450936     A.U. after   11 cycles
 SCF Done:  E(RB-P86) =  -600.015863310     A.U. after   11 cycles
 SCF Done:  E(RB-P86) =  -600.016151394     A.U. after   10 cycles
 Optimization completed.
    -- Stationary point found.

                         Standard orientation:
 ---------------------------------------------------------------------
 Center     Atomic      Atomic             Coordinates (Angstroms)
 Number     Number       Type             X           Y           Z
 ---------------------------------------------------------------------
      1         17           0        0.000000    0.000000    1.980152
      2          6           0        0.000000    0.000000   -1.223374
      3          1           0        0.000000    1.032870   -0.841158
      4          1           0        0.894491   -0.516435   -0.841158
      5          1           0       -0.894491   -0.516435   -0.841158
      6          9           0        0.000000    0.000000   -2.644319
 ---------------------------------------------------------------------

 The electronic state is 1-A1.
 Alpha  occ. eigenvalues -- -100.38996 -24.11002  -9.80325  -8.84773  -6.66615
 Alpha  occ. eigenvalues --   -6.66561  -6.66561  -0.91107  -0.46065  -0.39199
 Alpha  occ. eigenvalues --   -0.26219  -0.24801  -0.24801  -0.12313  -0.12313
 Alpha  occ. eigenvalues --    0.02469   0.02753   0.02753
 Alpha virt. eigenvalues --    0.23330   0.26330   0.30198   0.30198   0.57400
 Alpha virt. eigenvalues --    0.64981   0.65889   0.65889   0.69401   0.69401
 Alpha virt. eigenvalues --    0.77535   0.96456   0.96456   1.04547   1.08920

 Mulliken charges:
               1
     1  Cl  -0.942545
     2  C   -0.160607
     3  H    0.156062
     4  H    0.156062
     5  H    0.156062
     6  F   -0.365034
 Sum of Mulliken charges =  -1.00000

 Dipole moment (field-independent basis, Debye):
    X=             -0.0000    Y=             -0.0000    Z=             -6.3787  Tot=              6.3787
 Quadrupole moment (field-independent basis, Debye-Ang):
   XX=            -27.3828   YY=            -27.3828   ZZ=            -53.8212
   XY=             -0.0000   XZ=             -0.0000   YZ=              0.0000

 Normal termination of Gaussian 16 at Wed Oct  7 13:23:13 2020.
