 Gaussian 16, Revision A.03,
 Gaussian 16:  ES64L-G16RevA.03 25-Dec-2016

 ----------------------------------------------------------------------
 #P Opt(MaxCyc=100) BP86/6-31G* 5D 7F Integral=UltraFineGrid SCF=(NoSym
 m,XQC,MaxCyc=120) IOp(1/33=1)
 ----------------------------------------------------------------------

 TstMul:  Mul=     1
 TstMul:  ICh=    -1
 TstMul:  Mul=     1
 Symbolic Z-matrix:
 Charge = -1 Multiplicity = 1

 SCF Done:  E(RB-P86) =  -239.521761088     A.U. after   16 cycles
 SCF Done:  E(RB-P86) =  -239.524098099     A.U. after   12 cycles
 SCF Done:  E(RB-P86) =  -239.525198682     A.U. after   12 cycles
 SCF Done:  E(RB-P86) =  -239.525851495     A.U. after   12 cycles
 SCF Done:  E(RB-P86) =  -239.525964295     A.U. after   10 cycles
 SCF Done:  E(RB-P86) =  -239.526004055     A.U. after    9 cycles
 SCF Done:  E(RB-P86) =  -239.526005975     A.U. after    8 cycles
 SCF Done:  E(RB-P86) =  -239.526006950     A.U. after    8 cycles
 Optimization completed.
    -- Stationary point found.

                         Standard orientation:
 ---------------------------------------------------------------------
 Center     Atomic      Atomic             Coordinates (Angstroms)
 Number     Number       Type             X           Y           Z
 ---------------------------------------------------------------------
      1          9           0        0.000000    0.000000   -1.813581
      2          6           0        0.000000    0.000000   -0.334305
      3          1           0       -0.000000    1.028779    0.045765
      4          1           0       -0.890949   -0.514390    0.045765
      5          1           0        0.890949   -0.514390    0.045765
      6          9           0        0.000000    0.000000    2.021195
 ---------------------------------------------------------------------

 The electronic state is 1-A1.
 Alpha  occ. eigenvalues --  -24.03705 -23.80016  -9.73763  -0.82751  -0.56086
 Alpha  occ. eigenvalues --   -0.39449  -0.18608  -0.17767  -0.17767  -0.06304
 Alpha  occ. eigenvalues --   -0.06304   0.11124   0.12198   0.12198
 Alpha virt. eigenvalues --    0.28891   0.31067   0.35648   0.35648   0.72464
 Alpha virt. eigenvalues --    0.72464   0.73314   1.02105   1.02105   1.05927
 Alpha virt. eigenvalues --    1.19730   1.38646   1.38646   1.39042   1.52827

 Mulliken charges:
               1
     1  F   -0.413399
     2  C   -0.201958
     3  H    0.122518
     4  H    0.122518
     5  H    0.122518
     6  F   -0.752196
 Sum of Mulliken charges =  -1.00000

 Dipole moment (field-independent basis, Debye):
    X=             -0.0000    Y=             -0.0000    Z=             -4.4749  Tot=              4.4749
 Quadrupole moment (field-independent basis, Debye-Ang):
   XX=            -18.0055   YY=            -18.0055   ZZ=            -39.0803
   XY=             -0.0000   XZ=             -0.0000   YZ=             -0.0000

 Normal termination of Gaussian 16 at Wed Oct  7 13:18:23 2020.
