 Gaussian 16, Revision A.03,

 ----------------------------------------------------------------------
 #P Opt(TS,MaxCyc=50,NoEigenTest,MaxStep=10,AddRedundant) BP86/6-31G* 5
 D 7F Integral=UltraFineGrid SCF=(NoSymm,XQC,MaxCyc=120) IOp(1/33=1)
 ----------------------------------------------------------------------

 TstMul:  Mul=     1
 TstMul:  ICh=    -1
 TstMul:  Mul=     1
 Symbolic Z-matrix:
 Charge = -1 Multiplicity = 1

 SCF Done:  E(RB-P86) =  -239.515570023     A.U. after   13 cycles
 SCF Done:  E(RB-P86) =  -239.516159137     A.U. after   12 cycles
 SCF Done:  E(RB-P86) =  -239.516207659     A.U. after    9 cycles
 SCF Done:  E(RB-P86) =  -239.516208006     A.U. after   11 cycles
 SCF Done:  E(RB-P86) =  -239.516207911     A.U. after    8 cycles
 Optimization completed.
    -- Stationary point found.
 Normal termination of Gaussian 16 at Wed Oct  7 13:17:56 2020.
 Gaussian 16:  ES64L-G16RevA.03 25-Dec-2016

 ----------------------------------------------------------------------
 #P Freq BP86/6-31G* 5D 7F Integral=UltraFineGrid SCF=(NoSymm,XQC,MaxCy
 c=120) IOp(1/33=1) Geom=Check Guess=Read
 ----------------------------------------------------------------------

 TstMul:  Mul=     1
 TstMul:  ICh=    -1
 TstMul:  Mul=     1
 Structure from the checkpoint file:  "MN_39_fch3fts_BH76_BP86_631Gs.chk"
 Charge = -1 Multiplicity = 1

                         Standard orientation:
 ---------------------------------------------------------------------
 Center     Atomic      Atomic             Coordinates (Angstroms)
 Number     Number       Type             X           Y           Z
 ---------------------------------------------------------------------
      1          9           0        1.827684    0.000018   -0.000021
      2          6           0       -0.000017   -0.000026    0.000032
      3          1           0        0.000039   -0.391409    1.014590
      4          1           0        0.000106    1.074279   -0.168334
      5          1           0       -0.000010   -0.683098   -0.846082
      6          9           0       -1.827688    0.000024   -0.000019
 ---------------------------------------------------------------------

 SCF Done:  E(RB-P86) =  -239.516207911     A.U. after    1 cycles

 The electronic state is 1-A.
 Alpha  occ. eigenvalues --  -23.89691 -23.89687  -9.72803  -0.66718  -0.66131
 Alpha  occ. eigenvalues --   -0.37355  -0.15966  -0.15964  -0.06188   0.03292
 Alpha  occ. eigenvalues --    0.03292   0.03906   0.04691   0.04691
 Alpha virt. eigenvalues --    0.27640   0.29495   0.35140   0.35142   0.74760
 Alpha virt. eigenvalues --    0.74763   0.81750   0.97214   1.05796   1.05800
 Alpha virt. eigenvalues --    1.29033   1.36906   1.36906   1.49772   1.50267

 Mulliken charges:
               1
     1  F   -0.604260
     2  C   -0.143547
     3  H    0.117338
     4  H    0.117353
     5  H    0.117346
     6  F   -0.604231
 Sum of Mulliken charges =  -1.00000

 Dipole moment (field-independent basis, Debye):
    X=             -0.0002    Y=             -0.0001    Z=              0.0001  Tot=              0.0003
 Quadrupole moment (field-independent basis, Debye-Ang):
   XX=            -37.5110   YY=            -17.6959   ZZ=            -17.6963
   XY=              0.0001   XZ=              0.0000   YZ=              0.0000

  Exact polarizability:  31.606   0.000  15.320   0.000   0.000  15.320
 Approx polarizability:  70.632   0.001  20.934   0.000  -0.000  20.933

 ******    1 imaginary frequencies (negative Signs) ******

                      1                      2                      3
                      A                      A                      A
 Frequencies --   -434.5824               310.8784               311.0038
 Red. masses --      9.0295                 4.3348                 4.3351
 Frc consts  --      1.0048                 0.2468                 0.2470
 IR Inten    --    569.2510                13.2428                13.2441

                      4                      5                      6
                      A                      A                      A
 Frequencies --    345.8099               925.3187               925.3990
 Red. masses --     18.9615                 1.0213                 1.0213
 Frc consts  --      1.3360                 0.5152                 0.5153
 IR Inten    --      0.0000                 0.0000                 0.0000

                      7                      8                      9
                      A                      A                      A
 Frequencies --   1038.8183              1331.8710              1331.9582
 Red. masses --      1.1058                 1.1235                 1.1235
 Frc consts  --      0.7031                 1.1742                 1.1743
 IR Inten    --      3.8194                 1.6454                 1.6430

                     10                     11                     12
                      A                      A                      A
 Frequencies --   3040.6513              3223.6914              3223.8421
 Red. masses --      1.0079                 1.1280                 1.1280
 Frc consts  --      5.4905                 6.9069                 6.9076
 IR Inten    --      0.0000                62.7896                62.7673

 - Thermochemistry -
 -------------------
 Temperature   298.150 Kelvin.  Pressure   1.00000 Atm.
 Atom     1 has atomic number  9 and mass  18.99840

 Molecular mass:    53.02028 amu.
 Principal axes and moments of inertia in atomic units:
                           1         2         3
     Eigenvalues --    12.76742 459.64394 459.64507
           X            1.00000   0.00000   0.00000
           Y           -0.00000   1.00000   0.00004
           Z           -0.00000  -0.00004   1.00000
 This molecule is an asymmetric top.
 Rotational symmetry number  1.
 Rotational temperatures (Kelvin)      6.78398     0.18844     0.18844
 Rotational constants (GHZ):         141.35516     3.92639     3.92638
    1 imaginary frequencies ignored.
 Zero-point vibrational energy      95756.5 (Joules/Mol)
                                   22.88636 (Kcal/Mol)
 Warning -- explicit consideration of   3 degrees of freedom as
           vibrations may cause significant error
 Vibrational temperatures:    447.28   447.47   497.54  1331.33  1331.44
          (Kelvin)           1494.63  1916.27  1916.39  4374.82  4638.17
                             4638.39

 Zero-point correction=                           0.036472 (Hartree/Particle)
 Thermal correction to Energy=                    0.040633
 Thermal correction to Enthalpy=                  0.041577
 Thermal correction to Gibbs Free Energy=         0.010873
 Sum of electronic and zero-point Energies=           -239.479736
 Sum of electronic and thermal Energies=              -239.475575
 Sum of electronic and thermal Enthalpies=            -239.474631
 Sum of electronic and thermal Free Energies=         -239.505335

                     E (Thermal)             CV                S
                      KCal/Mol        Cal/Mol-Kelvin    Cal/Mol-Kelvin
 Total                   25.498             12.387             64.623
 Electronic               0.000              0.000              0.000
 Translational            0.889              2.981             37.827
 Rotational               0.889              2.981             22.516
 Vibrational             23.720              6.425              4.280
 Vibration     1          0.700              1.653              1.358
 Vibration     2          0.700              1.653              1.357
 Vibration     3          0.724              1.584              1.185

 Optimization completed.
    -- Stationary point found.
 Normal termination of Gaussian 16 at Wed Oct  7 13:18:25 2020.
