 Gaussian 16, Revision A.03,
 Gaussian 16:  ES64L-G16RevA.03 25-Dec-2016

 ----------------------------------------------------------------------
 #P Opt(MaxCyc=100) BP86/6-31G* 5D 7F Integral=UltraFineGrid SCF=(NoSym
 m,XQC,MaxCyc=120) IOp(1/33=1)
 ----------------------------------------------------------------------

 TstMul:  Mul=     1
 TstMul:  ICh=    -1
 TstMul:  Mul=     1
 Symbolic Z-matrix:
 Charge = -1 Multiplicity = 1

 SCF Done:  E(RB-P86) =  -600.015206426     A.U. after   12 cycles
 SCF Done:  E(RB-P86) =  -600.016097046     A.U. after   11 cycles
 SCF Done:  E(RB-P86) =  -600.016125034     A.U. after    8 cycles
 SCF Done:  E(RB-P86) =  -600.016147052     A.U. after    9 cycles
 SCF Done:  E(RB-P86) =  -600.016150961     A.U. after    8 cycles
 SCF Done:  E(RB-P86) =  -600.016151936     A.U. after    6 cycles
 SCF Done:  E(RB-P86) =  -600.016152307     A.U. after    7 cycles
 Optimization completed.
    -- Stationary point found.

                         Standard orientation:
 ---------------------------------------------------------------------
 Center     Atomic      Atomic             Coordinates (Angstroms)
 Number     Number       Type             X           Y           Z
 ---------------------------------------------------------------------
      1          9           0        0.000000    0.000000   -2.644527
      2          6           0        0.000000    0.000000   -1.223175
      3          1           0       -0.000000    1.033543   -0.841669
      4          1           0       -0.895075   -0.516772   -0.841669
      5          1           0        0.895075   -0.516772   -0.841669
      6         17           0        0.000000    0.000000    1.980282
 ---------------------------------------------------------------------

 The electronic state is 1-A1.
 Alpha  occ. eigenvalues -- -100.38996 -24.10991  -9.80342  -8.84773  -6.66615
 Alpha  occ. eigenvalues --   -6.66561  -6.66561  -0.91088  -0.46056  -0.39198
 Alpha  occ. eigenvalues --   -0.26199  -0.24796  -0.24796  -0.12310  -0.12310
 Alpha  occ. eigenvalues --    0.02470   0.02753   0.02753
 Alpha virt. eigenvalues --    0.23311   0.26314   0.30179   0.30179   0.57392
 Alpha virt. eigenvalues --    0.64980   0.65893   0.65893   0.69407   0.69407
 Alpha virt. eigenvalues --    0.77526   0.96436   0.96436   1.04480   1.08906

 Mulliken charges:
               1
     1  F   -0.365267
     2  C   -0.160296
     3  H    0.156040
     4  H    0.156040
     5  H    0.156040
     6  Cl  -0.942557
 Sum of Mulliken charges =  -1.00000

 Dipole moment (field-independent basis, Debye):
    X=              0.0000    Y=             -0.0000    Z=             -6.3781  Tot=              6.3781
 Quadrupole moment (field-independent basis, Debye-Ang):
   XX=            -27.3817   YY=            -27.3817   ZZ=            -53.8325
   XY=             -0.0000   XZ=             -0.0000   YZ=              0.0000

 Normal termination of Gaussian 16 at Wed Oct  7 13:18:02 2020.
