 Gaussian 16, Revision A.03,
 Gaussian 16:  ES64L-G16RevA.03 25-Dec-2016

 ----------------------------------------------------------------------
 #P Opt(MaxCyc=100) BP86/6-31G* 5D 7F Integral=UltraFineGrid SCF=(NoSym
 m,XQC,MaxCyc=120) IOp(1/33=1)
 ----------------------------------------------------------------------

 TstMul:  Mul=     1
 TstMul:  ICh=     0
 TstMul:  Mul=     1
 Symbolic Z-matrix:
 Charge =  0 Multiplicity = 1

 SCF Done:  E(RB-P86) =  -199.502360878     A.U. after   10 cycles
 SCF Done:  E(RB-P86) =  -199.502887865     A.U. after    8 cycles
 SCF Done:  E(RB-P86) =  -199.502899188     A.U. after    6 cycles
 Optimization completed.
    -- Stationary point found.

                         Standard orientation:
 ---------------------------------------------------------------------
 Center     Atomic      Atomic             Coordinates (Angstroms)
 Number     Number       Type             X           Y           Z
 ---------------------------------------------------------------------
      1          9           0        0.000000    0.000000    0.711540
      2          9           0        0.000000    0.000000   -0.711540
 ---------------------------------------------------------------------

 The electronic state is 1-SGG.
 Alpha  occ. eigenvalues --  -24.38322 -24.38312  -1.21950  -0.99460  -0.54001
 Alpha  occ. eigenvalues --   -0.44243  -0.44243  -0.32129  -0.32129
 Alpha virt. eigenvalues --   -0.19166   0.99920   0.99920   1.02772   1.15594
 Alpha virt. eigenvalues --    1.17958   1.17958   1.20069   1.47426   1.47426
 Alpha virt. eigenvalues --    1.63312   1.63312   1.66485   1.85810   1.85810

 Mulliken charges:
               1
     1  F   -0.000000
     2  F   -0.000000
 Sum of Mulliken charges =  -0.00000

 Dipole moment (field-independent basis, Debye):
    X=             -0.0000    Y=             -0.0000    Z=              0.0000  Tot=              0.0000
 Quadrupole moment (field-independent basis, Debye-Ang):
   XX=             -9.2881   YY=             -9.2881   ZZ=             -8.2815
   XY=             -0.0000   XZ=              0.0000   YZ=              0.0000

 Normal termination of Gaussian 16 at Wed Oct  7 13:17:27 2020.
