 Gaussian 16, Revision A.03,
 Gaussian 16:  ES64L-G16RevA.03 25-Dec-2016

 ----------------------------------------------------------------------
 #P Opt(MaxCyc=100) BP86/6-31G* 5D 7F Integral=UltraFineGrid SCF=(NoSym
 m,XQC,MaxCyc=120) IOp(1/33=1)
 ----------------------------------------------------------------------

 TstMul:  Mul=     1
 TstMul:  ICh=     0
 TstMul:  Mul=     1
 Symbolic Z-matrix:
 Charge =  0 Multiplicity = 1

 SCF Done:  E(RB-P86) =  -460.819553064     A.U. after   10 cycles
 SCF Done:  E(RB-P86) =  -460.819876149     A.U. after    9 cycles
 Optimization completed.
    -- Stationary point found.

                         Standard orientation:
 ---------------------------------------------------------------------
 Center     Atomic      Atomic             Coordinates (Angstroms)
 Number     Number       Type             X           Y           Z
 ---------------------------------------------------------------------
      1         17           0        0.000000    0.000000    0.072126
      2          1           0        0.000000    0.000000   -1.226143
 ---------------------------------------------------------------------

 The electronic state is 1-SG.
 Alpha  occ. eigenvalues -- -100.72764  -9.19307  -7.01845  -7.00619  -7.00619
 Alpha  occ. eigenvalues --   -0.77646  -0.43353  -0.29095  -0.29095
 Alpha virt. eigenvalues --   -0.02318   0.34046   0.37543   0.40208   0.40208
 Alpha virt. eigenvalues --    0.64123   0.76707   0.76707   0.80001   0.80001
 Alpha virt. eigenvalues --    1.09628

 Mulliken charges:
               1
     1  Cl  -0.231123
     2  H    0.231123
 Sum of Mulliken charges =   0.00000

 Dipole moment (field-independent basis, Debye):
    X=              0.0000    Y=              0.0000    Z=             -1.4864  Tot=              1.4864
 Quadrupole moment (field-independent basis, Debye-Ang):
   XX=            -13.9117   YY=            -13.9117   ZZ=            -10.3074
   XY=              0.0000   XZ=              0.0000   YZ=             -0.0000

 Normal termination of Gaussian 16 at Wed Oct  7 13:17:48 2020.
