 Gaussian 16, Revision A.03,

 ----------------------------------------------------------------------
 #P Opt(TS,MaxCyc=50,NoEigenTest,MaxStep=10,AddRedundant) BP86/6-31G* 5
 D 7F Integral=UltraFineGrid SCF=(NoSymm,XQC,MaxCyc=120) IOp(1/33=1)
 ----------------------------------------------------------------------

 TstMul:  Mul=     1
 TstMul:  ICh=     0
 TstMul:  Mul=     1
 Symbolic Z-matrix:
 Charge =  0 Multiplicity = 1

 SCF Done:  E(RB-P86) =  -93.3407239063     A.U. after   13 cycles
 SCF Done:  E(RB-P86) =  -93.3409111846     A.U. after   11 cycles
 SCF Done:  E(RB-P86) =  -93.3409327470     A.U. after   11 cycles
 SCF Done:  E(RB-P86) =  -93.3409270886     A.U. after    8 cycles
 Optimization completed.
    -- Stationary point found.
 Normal termination of Gaussian 16 at Wed Oct  7 13:18:23 2020.
 Gaussian 16:  ES64L-G16RevA.03 25-Dec-2016

 ----------------------------------------------------------------------
 #P Freq BP86/6-31G* 5D 7F Integral=UltraFineGrid SCF=(NoSymm,XQC,MaxCy
 c=120) IOp(1/33=1) Geom=Check Guess=Read
 ----------------------------------------------------------------------

 TstMul:  Mul=     1
 TstMul:  ICh=     0
 TstMul:  Mul=     1
 Structure from the checkpoint file:  "MN_49_hcnts_BH76_BP86_631Gs.chk"
 Charge =  0 Multiplicity = 1

                         Standard orientation:
 ---------------------------------------------------------------------
 Center     Atomic      Atomic             Coordinates (Angstroms)
 Number     Number       Type             X           Y           Z
 ---------------------------------------------------------------------
      1          6           0        0.080660    0.633318    0.000000
      2          7           0        0.080660   -0.571609    0.000000
      3          1           0       -1.048578    0.201350    0.000000
 ---------------------------------------------------------------------

 SCF Done:  E(RB-P86) =  -93.3409270886     A.U. after    1 cycles

 The electronic state is 1-A'.
 Alpha  occ. eigenvalues --  -14.08921  -9.97563  -0.90443  -0.47576  -0.40462
 Alpha  occ. eigenvalues --   -0.34190  -0.28750
 Alpha virt. eigenvalues --   -0.09589  -0.03413   0.02351   0.28870   0.48561
 Alpha virt. eigenvalues --    0.49027   0.52708   0.61902   0.64934   0.68770
 Alpha virt. eigenvalues --    0.72033   0.76906   1.19387   1.40470   1.41666

 Mulliken charges:
               1
     1  C   -0.049092
     2  N   -0.218058
     3  H    0.267150
 Sum of Mulliken charges =   0.00000

 Dipole moment (field-independent basis, Debye):
    X=             -1.2256    Y=              0.0905    Z=              0.0000  Tot=              1.2289
 Quadrupole moment (field-independent basis, Debye-Ang):
   XX=             -9.4860   YY=            -14.1121   ZZ=            -11.8339
   XY=             -0.2042   XZ=              0.0000   YZ=              0.0000

  Exact polarizability:  13.300   0.386  17.821  -0.000   0.000   8.727
 Approx polarizability:  23.298   2.064  44.606  -0.000   0.000  13.817

 ******    1 imaginary frequencies (negative Signs) ******

                      1                      2                      3
                     A'                     A'                     A'
 Frequencies --  -1098.6230              1976.6891              2522.1109
 Red. masses --      1.1640                11.8421                 1.0585
 Frc consts  --      0.8278                27.2619                 3.9671
 IR Inten    --     63.0010                 9.9356                99.9889

 - Thermochemistry -
 -------------------
 Temperature   298.150 Kelvin.  Pressure   1.00000 Atm.
 Atom     1 has atomic number  6 and mass  12.00000

 Molecular mass:    27.01090 amu.
 Principal axes and moments of inertia in atomic units:
                           1         2         3
     Eigenvalues --     4.39354  33.69179  38.08533
           X           -0.02898   0.99958   0.00000
           Y            0.99958   0.02898   0.00000
           Z            0.00000   0.00000   1.00000
 This molecule is an asymmetric top.
 Rotational symmetry number  1.
 Rotational temperatures (Kelvin)     19.71395     2.57077     2.27421
 Rotational constants (GHZ):         410.77194    53.56620    47.38678
    1 imaginary frequencies ignored.
 Zero-point vibrational energy      26908.8 (Joules/Mol)
                                    6.43136 (Kcal/Mol)
 Vibrational temperatures:   2844.01  3628.76
          (Kelvin)

 Zero-point correction=                           0.010249 (Hartree/Particle)
 Thermal correction to Energy=                    0.013082
 Thermal correction to Enthalpy=                  0.014026
 Thermal correction to Gibbs Free Energy=        -0.010777
 Sum of electronic and zero-point Energies=            -93.330678
 Sum of electronic and thermal Energies=               -93.327845
 Sum of electronic and thermal Enthalpies=             -93.326901
 Sum of electronic and thermal Free Energies=          -93.351704

                     E (Thermal)             CV                S
                      KCal/Mol        Cal/Mol-Kelvin    Cal/Mol-Kelvin
 Total                    8.209              5.976             52.203
 Electronic               0.000              0.000              0.000
 Translational            0.889              2.981             35.816
 Rotational               0.889              2.981             16.385
 Vibrational              6.432              0.015              0.002

 Optimization completed.
    -- Stationary point found.
 Normal termination of Gaussian 16 at Wed Oct  7 13:18:45 2020.
