 Gaussian 16, Revision A.03,
 Gaussian 16:  ES64L-G16RevA.03 25-Dec-2016

 ----------------------------------------------------------------------
 #P Opt(MaxCyc=100) BP86/6-31G* 5D 7F Integral=UltraFineGrid SCF=(NoSym
 m,XQC,MaxCyc=120) IOp(1/33=1)
 ----------------------------------------------------------------------

 TstMul:  Mul=     1
 TstMul:  ICh=     0
 TstMul:  Mul=     1
 Symbolic Z-matrix:
 Charge =  0 Multiplicity = 1

 SCF Done:  E(RB-P86) =  -399.404600759     A.U. after   10 cycles
 SCF Done:  E(RB-P86) =  -399.405139969     A.U. after    9 cycles
 SCF Done:  E(RB-P86) =  -399.405141445     A.U. after    6 cycles
 Optimization completed.
    -- Stationary point found.

                         Standard orientation:
 ---------------------------------------------------------------------
 Center     Atomic      Atomic             Coordinates (Angstroms)
 Number     Number       Type             X           Y           Z
 ---------------------------------------------------------------------
      1         16           0        0.000000    0.000000    0.104777
      2          1           0        0.000000    0.979968   -0.838215
      3          1           0       -0.000000   -0.979968   -0.838215
 ---------------------------------------------------------------------

 The electronic state is 1-A1.
 Alpha  occ. eigenvalues --  -88.10573  -7.68906  -5.71201  -5.70847  -5.69963
 Alpha  occ. eigenvalues --   -0.68331  -0.41023  -0.33190  -0.22704
 Alpha virt. eigenvalues --   -0.01516   0.02212   0.28751   0.30302   0.31434
 Alpha virt. eigenvalues --    0.33271   0.63406   0.67219   0.69830   0.70551
 Alpha virt. eigenvalues --    0.70566   0.94588   1.10961

 Mulliken charges:
               1
     1  S   -0.254096
     2  H    0.127048
     3  H    0.127048
 Sum of Mulliken charges =   0.00000

 Dipole moment (field-independent basis, Debye):
    X=             -0.0000    Y=              0.0000    Z=             -1.4629  Tot=              1.4629
 Quadrupole moment (field-independent basis, Debye-Ang):
   XX=            -16.6280   YY=            -12.2052   ZZ=            -13.4946
   XY=              0.0000   XZ=              0.0000   YZ=             -0.0000

 Normal termination of Gaussian 16 at Wed Oct  7 13:17:46 2020.
