 Gaussian 16, Revision A.03,
 Gaussian 16:  ES64L-G16RevA.03 25-Dec-2016

 ----------------------------------------------------------------------
 #P Opt(MaxCyc=100) BP86/6-31G* 5D 7F Integral=UltraFineGrid SCF=(NoSym
 m,XQC,MaxCyc=120) IOp(1/33=1)
 ----------------------------------------------------------------------

 TstMul:  Mul=     2
 TstMul:  ICh=     0
 TstMul:  Mul=     2
 Symbolic Z-matrix:
 Charge =  0 Multiplicity = 2

 SCF Done:  E(UB-P86) =  -110.030168459     A.U. after   14 cycles
 SCF Done:  E(UB-P86) =  -110.030994007     A.U. after   12 cycles
 SCF Done:  E(UB-P86) =  -110.031037684     A.U. after   10 cycles
 SCF Done:  E(UB-P86) =  -110.031040716     A.U. after    9 cycles
 Optimization completed.
    -- Stationary point found.

                         Standard orientation:
 ---------------------------------------------------------------------
 Center     Atomic      Atomic             Coordinates (Angstroms)
 Number     Number       Type             X           Y           Z
 ---------------------------------------------------------------------
      1          7           0       -0.063838    0.667364    0.000000
      2          7           0       -0.063838   -0.521746    0.000000
      3          1           0        0.893737   -1.019329    0.000000
 ---------------------------------------------------------------------

 The electronic state is 2-A'.
 Alpha  occ. eigenvalues --  -14.10396 -14.09139  -0.98077  -0.60999  -0.42650
 Alpha  occ. eigenvalues --   -0.38473  -0.36227  -0.16976
 Alpha virt. eigenvalues --   -0.09121   0.04198   0.33017   0.57602   0.58085
 Alpha virt. eigenvalues --    0.60287   0.62448   0.68533   0.69719   0.75690
 Alpha virt. eigenvalues --    0.87954   1.19663   1.40196   1.41812   1.42394

  Beta  occ. eigenvalues --  -14.10110 -14.07833  -0.96678  -0.58923  -0.39433
  Beta  occ. eigenvalues --   -0.37668  -0.33698
  Beta virt. eigenvalues --   -0.10671  -0.07852   0.06516   0.34377   0.58557
  Beta virt. eigenvalues --    0.58570   0.62469   0.67358   0.69831   0.70699
  Beta virt. eigenvalues --    0.78754   0.89024   1.21326   1.41572   1.43813

 Mulliken charges and spin densities:
               1          2
     1  N   -0.079952   0.692414
     2  N   -0.223926   0.130083
     3  H    0.303878   0.177503
 Sum of Mulliken charges =   0.00000   1.00000

 Dipole moment (field-independent basis, Debye):
    X=              1.3645    Y=             -1.2583    Z=              0.0000  Tot=              1.8561
 Quadrupole moment (field-independent basis, Debye-Ang):
   XX=            -10.7516   YY=            -11.8904   ZZ=            -11.0199
   XY=             -1.3258   XZ=              0.0000   YZ=              0.0000

 Normal termination of Gaussian 16 at Wed Oct  7 13:18:58 2020.
