 Gaussian 16, Revision A.03,

 ----------------------------------------------------------------------
 #P Opt(TS,MaxCyc=50,NoEigenTest,MaxStep=10,AddRedundant) BP86/6-31G* 5
 D 7F Integral=UltraFineGrid SCF=(NoSymm,XQC,MaxCyc=120) IOp(1/33=1)
 ----------------------------------------------------------------------

 TstMul:  Mul=     2
 TstMul:  ICh=     0
 TstMul:  Mul=     2
 Symbolic Z-matrix:
 Charge =  0 Multiplicity = 2

 SCF Done:  E(UB-P86) =  -110.015377886     A.U. after   15 cycles
 SCF Done:  E(UB-P86) =  -110.016092748     A.U. after   13 cycles
 SCF Done:  E(UB-P86) =  -110.016007362     A.U. after   10 cycles
 SCF Done:  E(UB-P86) =  -110.015797859     A.U. after   13 cycles
 SCF Done:  E(UB-P86) =  -110.015785888     A.U. after    9 cycles
 SCF Done:  E(UB-P86) =  -110.014962192     A.U. after   13 cycles
 SCF Done:  E(UB-P86) =  -110.014629327     A.U. after   13 cycles
 SCF Done:  E(UB-P86) =  -110.014605734     A.U. after   13 cycles
 SCF Done:  E(UB-P86) =  -110.014612400     A.U. after   10 cycles
 SCF Done:  E(UB-P86) =  -110.014617264     A.U. after   10 cycles
 SCF Done:  E(UB-P86) =  -110.014615451     A.U. after   11 cycles
 Optimization completed.
    -- Stationary point found.
 Normal termination of Gaussian 16 at Wed Oct  7 13:22:08 2020.
 Gaussian 16:  ES64L-G16RevA.03 25-Dec-2016

 ----------------------------------------------------------------------
 #P Freq BP86/6-31G* 5D 7F Integral=UltraFineGrid SCF=(NoSymm,XQC,MaxCy
 c=120) IOp(1/33=1) Geom=Check Guess=Read
 ----------------------------------------------------------------------

 TstMul:  Mul=     2
 TstMul:  ICh=     0
 TstMul:  Mul=     2
 Structure from the checkpoint file:  "MN_59_hn2ts_BH76_BP86_631Gs.chk"
 Charge =  0 Multiplicity = 2

                         Standard orientation:
 ---------------------------------------------------------------------
 Center     Atomic      Atomic             Coordinates (Angstroms)
 Number     Number       Type             X           Y           Z
 ---------------------------------------------------------------------
      1          7           0        0.093146   -0.657031    0.000000
      2          7           0        0.093146    0.475772    0.000000
      3          1           0       -1.304040    1.268807    0.000000
 ---------------------------------------------------------------------

 SCF Done:  E(UB-P86) =  -110.014615451     A.U. after    1 cycles

 The electronic state is 2-A'.
 Alpha  occ. eigenvalues --  -14.12979 -14.11687  -1.02052  -0.52378  -0.43335
 Alpha  occ. eigenvalues --   -0.41304  -0.38193  -0.21789
 Alpha virt. eigenvalues --   -0.08027  -0.05138   0.36471   0.54859   0.56357
 Alpha virt. eigenvalues --    0.57943   0.60227   0.69433   0.70946   0.73569
 Alpha virt. eigenvalues --    0.85771   1.22322   1.38618   1.39916   1.44984

  Beta  occ. eigenvalues --  -14.12878 -14.11181  -1.01562  -0.50918  -0.41566
  Beta  occ. eigenvalues --   -0.40962  -0.37025
  Beta virt. eigenvalues --   -0.13100  -0.07521  -0.01425   0.36966   0.55854
  Beta virt. eigenvalues --    0.56535   0.59916   0.65132   0.69793   0.71575
  Beta virt. eigenvalues --    0.77478   0.89842   1.23335   1.39303   1.40839

 Mulliken charges and spin densities:
               1          2
     1  N    0.003964   0.245233
     2  N   -0.059077  -0.000171
     3  H    0.055113   0.754939
 Sum of Mulliken charges =  -0.00000   1.00000

 Dipole moment (field-independent basis, Debye):
    X=             -0.2278    Y=              0.2375    Z=              0.0000  Tot=              0.3291
 Quadrupole moment (field-independent basis, Debye-Ang):
   XX=            -11.4276   YY=            -12.7383   ZZ=            -11.2865
   XY=             -0.1421   XZ=              0.0000   YZ=              0.0000

  Exact polarizability:  15.415  -7.368  20.228   0.000  -0.000   6.157
 Approx polarizability:  26.055 -14.848  49.900   0.000  -0.000   9.716

 ******    1 imaginary frequencies (negative Signs) ******

                      1                      2                      3
                     A'                     A'                     A'
 Frequencies --   -888.7847               594.8882              2172.9816
 Red. masses --      1.0825                 1.3935                10.9417
 Frc consts  --      0.5038                 0.2906                30.4403
 IR Inten    --    138.8922                 1.7507                61.6168

 - Thermochemistry -
 -------------------
 Temperature   298.150 Kelvin.  Pressure   1.00000 Atm.
 Atom     1 has atomic number  7 and mass  14.00307

 Molecular mass:    29.01397 amu.
 Principal axes and moments of inertia in atomic units:
                           1         2         3
     Eigenvalues --     5.46394  39.82275  45.28668
           X           -0.19584   0.98064   0.00000
           Y            0.98064   0.19584   0.00000
           Z            0.00000   0.00000   1.00000
 This molecule is an asymmetric top.
 Rotational symmetry number  1.
 Rotational temperatures (Kelvin)     15.85193     2.17499     1.91257
 Rotational constants (GHZ):         330.30062    45.31936    39.85148
    1 imaginary frequencies ignored.
 Zero-point vibrational energy      16555.5 (Joules/Mol)
                                    3.95687 (Kcal/Mol)
 Warning -- explicit consideration of   1 degrees of freedom as
           vibrations may cause significant error
 Vibrational temperatures:    855.91  3126.44
          (Kelvin)

 Zero-point correction=                           0.006306 (Hartree/Particle)
 Thermal correction to Energy=                    0.009301
 Thermal correction to Enthalpy=                  0.010245
 Thermal correction to Gibbs Free Energy=        -0.015795
 Sum of electronic and zero-point Energies=           -110.008310
 Sum of electronic and thermal Energies=              -110.005314
 Sum of electronic and thermal Enthalpies=            -110.004370
 Sum of electronic and thermal Free Energies=         -110.030410

                     E (Thermal)             CV                S
                      KCal/Mol        Cal/Mol-Kelvin    Cal/Mol-Kelvin
 Total                    5.837              7.010             54.806
 Electronic               0.000              0.000              1.377
 Translational            0.889              2.981             36.030
 Rotational               0.889              2.981             16.940
 Vibrational              4.059              1.049              0.459
 Vibration     1          0.953              1.043              0.459

 Optimization completed.
    -- Stationary point found.
 Normal termination of Gaussian 16 at Wed Oct  7 13:22:49 2020.
