 Gaussian 16, Revision A.03,

 ----------------------------------------------------------------------
 #P Opt(TS,MaxCyc=150,NoEigenTest,MaxStep=10,AddRedundant) BP86/6-31G*
 5D 7F Integral=UltraFineGrid SCF=(NoSymm,XQC,MaxCyc=120) IOp(1/33=1)
 ----------------------------------------------------------------------

 TstMul:  Mul=     2
 TstMul:  ICh=     0
 TstMul:  Mul=     2
 Symbolic Z-matrix:
 Charge =  0 Multiplicity = 2

 SCF Done:  E(UB-P86) =  -113.808471088     A.U. after   14 cycles
 SCF Done:  E(UB-P86) =  -113.809076452     A.U. after   13 cycles
 SCF Done:  E(UB-P86) =  -113.808957579     A.U. after   10 cycles
 SCF Done:  E(UB-P86) =  -113.808636670     A.U. after   13 cycles
 SCF Done:  E(UB-P86) =  -113.808178059     A.U. after   13 cycles
 SCF Done:  E(UB-P86) =  -113.807792887     A.U. after   13 cycles
 SCF Done:  E(UB-P86) =  -113.807638863     A.U. after   10 cycles
 SCF Done:  E(UB-P86) =  -113.807540855     A.U. after    9 cycles
 SCF Done:  E(UB-P86) =  -113.807503754     A.U. after    9 cycles
 SCF Done:  E(UB-P86) =  -113.807478849     A.U. after    9 cycles
 SCF Done:  E(UB-P86) =  -113.803324987     A.U. after   10 cycles
 SCF Done:  E(UB-P86) =  -113.803310914     A.U. after   10 cycles
 SCF Done:  E(UB-P86) =  -113.803298915     A.U. after   11 cycles
 SCF Done:  E(UB-P86) =  -113.803288765     A.U. after   11 cycles
 SCF Done:  E(UB-P86) =  -113.803280268     A.U. after   10 cycles
 SCF Done:  E(UB-P86) =  -113.803273324     A.U. after   10 cycles
 SCF Done:  E(UB-P86) =  -113.803267880     A.U. after   10 cycles
 SCF Done:  E(UB-P86) =  -113.803263699     A.U. after   10 cycles
 SCF Done:  E(UB-P86) =  -113.803260493     A.U. after   10 cycles
 Optimization completed.
    -- Stationary point found.

 1\1\GINC-NODE33\FTS\UBP86\6-31G(d)\C1H1O1(2)\RPEVERATI\07-Oct-2020\0\\
 #P Opt(TS,MaxCyc=150,NoEigenTest,MaxStep=10,AddRedundant) BP86/6-31G*
 5D 7F Integral=UltraFineGrid SCF=(NoSymm,XQC,MaxCyc=120) IOp(1/33=1)\\
 TS search on BH76.\\0,2\H,-2.5502581368,2.240906306,0.\C,0.7104159757,
 0.1241278617,0.\O,0.536242678,-1.0124783839,0.\\Version=ES64L-G16RevA.
 03\State=2-A'\HF=-113.8032605\S2=0.750002\S2-1=0.\S2A=0.75\RMSD=4.662e
 -09\RMSF=1.351e-05\Dipole=-0.0119466,-0.0550605,0.\Quadrupole=0.454876
 7,-0.9287827,0.473906,-0.2622218,0.,0.\PG=CS [SG(C1H1O1)]\\@

 Normal termination of Gaussian 16 at Wed Oct  7 13:30:05 2020.
 Gaussian 16:  ES64L-G16RevA.03 25-Dec-2016

 ----------------------------------------------------------------------
 #P Freq BP86/6-31G* 5D 7F Integral=UltraFineGrid SCF=(NoSymm,XQC,MaxCy
 c=120) IOp(1/33=1) Geom=Check Guess=Read
 ----------------------------------------------------------------------

 TstMul:  Mul=     2
 TstMul:  ICh=     0
 TstMul:  Mul=     2
 Structure from the checkpoint file:  "MN_51_hcots_BH76_BP86_631Gs.chk"
 Charge =  0 Multiplicity = 2

                         Standard orientation:
 ---------------------------------------------------------------------
 Center     Atomic      Atomic             Coordinates (Angstroms)
 Number     Number       Type             X           Y           Z
 ---------------------------------------------------------------------
      1          1           0       -3.307438    2.105157    0.000000
      2          6           0        0.236246    0.506702    0.000000
      3          8           0        0.236246   -0.643171   -0.000000
 ---------------------------------------------------------------------

 SCF Done:  E(UB-P86) =  -113.803260493     A.U. after    1 cycles

 The electronic state is 2-A'.
 Alpha  occ. eigenvalues --  -18.89554 -10.02408  -1.05978  -0.50809  -0.41774
 Alpha  occ. eigenvalues --   -0.41774  -0.32136  -0.27289
 Alpha virt. eigenvalues --   -0.06496  -0.06475   0.23621   0.47423   0.47764
 Alpha virt. eigenvalues --    0.54693   0.67420   0.67578   0.78011   0.85813
 Alpha virt. eigenvalues --    0.86036   1.41425   1.41426   1.44617   1.46010

  Beta  occ. eigenvalues --  -18.89553 -10.02406  -1.05976  -0.50807  -0.41773
  Beta  occ. eigenvalues --   -0.41772  -0.32129
  Beta virt. eigenvalues --   -0.07086  -0.06498  -0.05812   0.23588   0.47656
  Beta virt. eigenvalues --    0.47746   0.54965   0.67422   0.78005   0.85229
  Beta virt. eigenvalues --    0.85809   0.90729   1.41427   1.41428   1.44597

 Mulliken charges and spin densities:
               1          2
     1  H    0.000477   0.999035
     2  C    0.135262   0.000398
     3  O   -0.135740   0.000567
 Sum of Mulliken charges =   0.00000   1.00000

 Dipole moment (field-independent basis, Debye):
    X=             -0.0088    Y=             -0.1429    Z=              0.0000  Tot=              0.1432
 Quadrupole moment (field-independent basis, Debye-Ang):
   XX=            -11.1491   YY=            -13.1360   ZZ=            -11.1864
   XY=             -0.0579   XZ=              0.0000   YZ=             -0.0000

  Exact polarizability:   8.443  -0.169  13.026  -0.000   0.000   8.099
 Approx polarizability:  13.632  -0.171  29.554  -0.000   0.000  13.269

 ******    1 imaginary frequencies (negative Signs) ******

                      1                      2                      3
                     A'                     A'                     A'
 Frequencies --    -50.7218                16.8348              2116.8211
 Red. masses --      1.0757                 2.4264                13.4388
 Frc consts  --      0.0016                 0.0004                35.4796
 IR Inten    --      0.0090                 0.0707                56.8339

 - Thermochemistry -
 -------------------
 Temperature   298.150 Kelvin.  Pressure   1.00000 Atm.
 Atom     1 has atomic number  1 and mass   1.00783

 Molecular mass:    29.00274 amu.
 Principal axes and moments of inertia in atomic units:
                           1         2         3
     Eigenvalues --    18.88417  74.78543  93.66961
           X           -0.66526   0.74661   0.00000
           Y            0.74661   0.66526   0.00000
           Z            0.00000   0.00000   1.00000
 This molecule is an asymmetric top.
 Rotational symmetry number  1.
 Rotational temperatures (Kelvin)      4.58659     1.15817     0.92467
 Rotational constants (GHZ):          95.56898    24.13226    19.26710
    1 imaginary frequencies ignored.
 Zero-point vibrational energy      12762.1 (Joules/Mol)
                                    3.05021 (Kcal/Mol)
 Warning -- explicit consideration of   1 degrees of freedom as
           vibrations may cause significant error
 Vibrational temperatures:     24.22  3045.63
          (Kelvin)

 Zero-point correction=                           0.004861 (Hartree/Particle)
 Thermal correction to Energy=                    0.008600
 Thermal correction to Enthalpy=                  0.009544
 Thermal correction to Gibbs Free Energy=        -0.020818
 Sum of electronic and zero-point Energies=           -113.798400
 Sum of electronic and thermal Energies=              -113.794660
 Sum of electronic and thermal Enthalpies=            -113.793716
 Sum of electronic and thermal Free Energies=         -113.824079

                     E (Thermal)             CV                S
                      KCal/Mol        Cal/Mol-Kelvin    Cal/Mol-Kelvin
 Total                    5.397              7.955             63.903
 Electronic               0.000              0.000              1.377
 Translational            0.889              2.981             36.028
 Rotational               0.889              2.981             19.520
 Vibrational              3.619              1.994              6.977
 Vibration     1          0.593              1.986              6.976

                           ! Non-Optimized Parameters !
 Normal termination of Gaussian 16 at Wed Oct  7 13:30:27 2020.
