 Gaussian 16, Revision A.03,
 Gaussian 16:  ES64L-G16RevA.03 25-Dec-2016

 ----------------------------------------------------------------------
 #P Opt(MaxCyc=100) BP86/6-31G* 5D 7F Integral=UltraFineGrid SCF=(NoSym
 m,XQC,MaxCyc=120) IOp(1/33=1)
 ----------------------------------------------------------------------

 TstMul:  Mul=     1
 TstMul:  ICh=     0
 TstMul:  Mul=     1
 Symbolic Z-matrix:
 Charge =  0 Multiplicity = 1

 SCF Done:  E(RB-P86) =  -100.415958542     A.U. after    9 cycles
 SCF Done:  E(RB-P86) =  -100.416703636     A.U. after    9 cycles
 SCF Done:  E(RB-P86) =  -100.416712047     A.U. after    7 cycles
 Optimization completed.
    -- Stationary point found.

                         Standard orientation:
 ---------------------------------------------------------------------
 Center     Atomic      Atomic             Coordinates (Angstroms)
 Number     Number       Type             X           Y           Z
 ---------------------------------------------------------------------
      1          9           0        0.000000    0.000000    0.094246
      2          1           0        0.000000    0.000000   -0.848216
 ---------------------------------------------------------------------

 The electronic state is 1-SG.
 Alpha  occ. eigenvalues --  -24.25289  -1.06001  -0.45449  -0.30402  -0.30402
 Alpha virt. eigenvalues --    0.04446   0.74982   1.11558   1.11558   1.19887
 Alpha virt. eigenvalues --    1.57729   1.73312   1.73312   1.80180   1.80180
 Alpha virt. eigenvalues --    2.51431

 Mulliken charges:
               1
     1  F   -0.475910
     2  H    0.475910
 Sum of Mulliken charges =   0.00000

 Dipole moment (field-independent basis, Debye):
    X=              0.0000    Y=             -0.0000    Z=             -1.8445  Tot=              1.8445
 Quadrupole moment (field-independent basis, Debye-Ang):
   XX=             -5.4165   YY=             -5.4165   ZZ=             -3.3828
   XY=              0.0000   XZ=              0.0000   YZ=             -0.0000

 Normal termination of Gaussian 16 at Wed Oct  7 13:18:35 2020.
