 Gaussian 16, Revision A.03,

 ----------------------------------------------------------------------
 #P Opt(TS,MaxCyc=50,NoEigenTest,MaxStep=10,AddRedundant) BP86/6-31G* 5
 D 7F Integral=UltraFineGrid SCF=(NoSymm,XQC,MaxCyc=120) IOp(1/33=1)
 ----------------------------------------------------------------------

 TstMul:  Mul=     2
 TstMul:  ICh=     0
 TstMul:  Mul=     2
 Symbolic Z-matrix:
 Charge =  0 Multiplicity = 2

 SCF Done:  E(UB-P86) =  -140.188135478     A.U. after   14 cycles
 SCF Done:  E(UB-P86) =  -140.189204708     A.U. after   12 cycles
 SCF Done:  E(UB-P86) =  -140.189735165     A.U. after   13 cycles
 SCF Done:  E(UB-P86) =  -140.189188363     A.U. after   13 cycles
 SCF Done:  E(UB-P86) =  -140.189110965     A.U. after   13 cycles
 SCF Done:  E(UB-P86) =  -140.189112518     A.U. after    9 cycles
 SCF Done:  E(UB-P86) =  -140.189113258     A.U. after    9 cycles
 Optimization completed.
    -- Stationary point found.

 1\1\GINC-NODE62\FTS\UBP86\6-31G(d)\C1H4F1(2)\RPEVERATI\07-Oct-2020\0\\
 #P Opt(TS,MaxCyc=50,NoEigenTest,MaxStep=10,AddRedundant) BP86/6-31G* 5
 D 7F Integral=UltraFineGrid SCF=(NoSymm,XQC,MaxCyc=120) IOp(1/33=1)\\T
 S search on BH76.\\0,2\H,0.0021450245,2.0677027788,0.\F,0.0007925327,0
 .7815453316,0.\C,-0.0006043704,-0.9070307695,0.\H,1.0629229824,-1.1658
 903083,0.\H,-0.5325251863,-1.1647354384,0.9212438562\H,-0.5325251863,-
 1.1647354384,-0.9212438562\\Version=ES64L-G16RevA.03\State=2-A'\HF=-14
 0.1891133\S2=0.757576\S2-1=0.\S2A=0.750012\RMSD=3.513e-09\RMSF=1.328e-

 Normal termination of Gaussian 16 at Wed Oct  7 13:20:22 2020.
 Gaussian 16:  ES64L-G16RevA.03 25-Dec-2016

 ----------------------------------------------------------------------
 #P Freq BP86/6-31G* 5D 7F Integral=UltraFineGrid SCF=(NoSymm,XQC,MaxCy
 c=120) IOp(1/33=1) Geom=Check Guess=Read
 ----------------------------------------------------------------------

 TstMul:  Mul=     2
 TstMul:  ICh=     0
 TstMul:  Mul=     2
 Structure from the checkpoint file:  "MN_53_hfch3ts_BH76_BP86_631Gs.chk"
 Charge =  0 Multiplicity = 2

                         Standard orientation:
 ---------------------------------------------------------------------
 Center     Atomic      Atomic             Coordinates (Angstroms)
 Number     Number       Type             X           Y           Z
 ---------------------------------------------------------------------
      1          1           0        0.000256    2.059069    0.000000
      2          9           0       -0.000032    0.772911    0.000000
      3          6           0       -0.000032   -0.915666   -0.000000
      4          1           0        1.063709   -1.173646   -0.000000
      5          1           0       -0.531740   -1.173811    0.921244
      6          1           0       -0.531740   -1.173811   -0.921244
 ---------------------------------------------------------------------

 SCF Done:  E(UB-P86) =  -140.189113258     A.U. after    1 cycles

 The electronic state is 2-A'.
 Alpha  occ. eigenvalues --  -24.26328  -9.95435  -1.02223  -0.63752  -0.44025
 Alpha  occ. eigenvalues --   -0.39215  -0.39212  -0.28818  -0.28817  -0.15330
 Alpha virt. eigenvalues --   -0.00981   0.08463   0.13649   0.13652   0.45082
 Alpha virt. eigenvalues --    0.51008   0.51013   0.64267   0.77124   0.81872
 Alpha virt. eigenvalues --    0.81876   0.96071   1.14998   1.15002   1.47282

  Beta  occ. eigenvalues --  -24.26241  -9.94679  -1.02024  -0.62185  -0.42168
  Beta  occ. eigenvalues --   -0.38656  -0.38653  -0.28611  -0.28610
  Beta virt. eigenvalues --   -0.07970   0.03680   0.09064   0.14124   0.14127
  Beta virt. eigenvalues --    0.48642   0.51543   0.51548   0.72519   0.78487
  Beta virt. eigenvalues --    0.82463   0.82467   0.97640   1.15448   1.15451

 Mulliken charges and spin densities:
               1          2
     1  H    0.099583   0.641223
     2  F   -0.320566  -0.079609
     3  C   -0.323363   0.496069
     4  H    0.181440  -0.019230
     5  H    0.181453  -0.019226
     6  H    0.181453  -0.019226
 Sum of Mulliken charges =  -0.00000   1.00000

 Dipole moment (field-independent basis, Debye):
    X=              0.0002    Y=             -1.3785    Z=              0.0000  Tot=              1.3785
 Quadrupole moment (field-independent basis, Debye-Ang):
   XX=            -12.8164   YY=            -11.9949   ZZ=            -12.8156
   XY=              0.0002   XZ=             -0.0000   YZ=              0.0000

  Exact polarizability:  13.322   0.004  48.781  -0.000  -0.000  13.323
 Approx polarizability:  17.929   0.010  99.615  -0.000   0.000  17.930

 ******    1 imaginary frequencies (negative Signs) ******

                      1                      2                      3
                     A'                     A'                     A"
 Frequencies --  -1241.3370               160.0763               160.1277
 Red. masses --      2.0589                 1.1626                 1.1626
 Frc consts  --      1.8693                 0.0176                 0.0176
 IR Inten    --   1120.3037                 7.6968                 7.6965

                      4                      5                      6
                     A"                     A'                     A'
 Frequencies --    788.0775               788.1492               956.9652
 Red. masses --      1.1339                 1.1339                 1.4583
 Frc consts  --      0.4149                 0.4150                 0.7868
 IR Inten    --      0.9244                 0.9256               162.9299

                      7                      8                      9
                     A'                     A'                     A"
 Frequencies --   1176.6718              1429.3022              1429.5344
 Red. masses --      1.2710                 1.0860                 1.0860
 Frc consts  --      1.0368                 1.3071                 1.3076
 IR Inten    --     51.6050                 3.1491                 3.1457

                     10                     11                     12
                     A'                     A'                     A"
 Frequencies --   3042.4119              3185.0727              3185.2826
 Red. masses --      1.0171                 1.1144                 1.1144
 Frc consts  --      5.5469                 6.6608                 6.6618
 IR Inten    --      1.8313                14.8510                14.8343

 - Thermochemistry -
 -------------------
 Temperature   298.150 Kelvin.  Pressure   1.00000 Atm.
 Atom     1 has atomic number  1 and mass   1.00783

 Molecular mass:    35.02970 amu.
 Principal axes and moments of inertia in atomic units:
                           1         2         3
     Eigenvalues --    12.21630 112.19729 112.19877
           X            0.00001   0.00000   1.00000
           Y            1.00000   0.00000  -0.00001
           Z            0.00000   1.00000   0.00000
 This molecule is an asymmetric top.
 Rotational symmetry number  1.
 Rotational temperatures (Kelvin)      7.09003     0.77198     0.77197
 Rotational constants (GHZ):         147.73223    16.08543    16.08521
    1 imaginary frequencies ignored.
 Zero-point vibrational energy      97505.6 (Joules/Mol)
                                   23.30441 (Kcal/Mol)
 Warning -- explicit consideration of   2 degrees of freedom as
           vibrations may cause significant error
 Vibrational temperatures:    230.31   230.39  1133.87  1133.97  1376.86
          (Kelvin)           1692.97  2056.45  2056.78  4377.35  4582.61
                             4582.91

 Zero-point correction=                           0.037138 (Hartree/Particle)
 Thermal correction to Energy=                    0.041461
 Thermal correction to Enthalpy=                  0.042405
 Thermal correction to Gibbs Free Energy=         0.012302
 Sum of electronic and zero-point Energies=           -140.151975
 Sum of electronic and thermal Energies=              -140.147652
 Sum of electronic and thermal Enthalpies=            -140.146708
 Sum of electronic and thermal Free Energies=         -140.176811

                     E (Thermal)             CV                S
                      KCal/Mol        Cal/Mol-Kelvin    Cal/Mol-Kelvin
 Total                   26.017             11.924             63.358
 Electronic               0.000              0.000              1.377
 Translational            0.889              2.981             36.591
 Rotational               0.889              2.981             19.670
 Vibrational             24.240              5.963              5.720
 Vibration     1          0.622              1.891              2.549
 Vibration     2          0.622              1.891              2.548

 Optimization completed.
    -- Stationary point found.
 Normal termination of Gaussian 16 at Wed Oct  7 13:21:04 2020.
