 Gaussian 16, Revision A.03,

 ----------------------------------------------------------------------
 #P Opt(TS,MaxCyc=50,NoEigenTest,MaxStep=10,AddRedundant) BP86/6-31G* 5
 D 7F Integral=UltraFineGrid SCF=(NoSymm,XQC,MaxCyc=120) IOp(1/33=1)
 ----------------------------------------------------------------------

 TstMul:  Mul=     2
 TstMul:  ICh=     0
 TstMul:  Mul=     2
 Symbolic Z-matrix:
 Charge =  0 Multiplicity = 2

 SCF Done:  E(UB-P86) =  -100.870646197     A.U. after    9 cycles
 SCF Done:  E(UB-P86) =  -100.872191295     A.U. after    9 cycles
 SCF Done:  E(UB-P86) =  -100.872818033     A.U. after    9 cycles
 SCF Done:  E(UB-P86) =  -100.872844658     A.U. after    7 cycles
 Optimization completed.
    -- Stationary point found.
 Normal termination of Gaussian 16 at Wed Oct  7 13:18:46 2020.
 Gaussian 16:  ES64L-G16RevA.03 25-Dec-2016

 ----------------------------------------------------------------------
 #P Freq BP86/6-31G* 5D 7F Integral=UltraFineGrid SCF=(NoSymm,XQC,MaxCy
 c=120) IOp(1/33=1) Geom=Check Guess=Read
 ----------------------------------------------------------------------

 TstMul:  Mul=     2
 TstMul:  ICh=     0
 TstMul:  Mul=     2
 Structure from the checkpoint file:  "MN_54_hfhts_BH76_BP86_631Gs.chk"
 Charge =  0 Multiplicity = 2

                         Standard orientation:
 ---------------------------------------------------------------------
 Center     Atomic      Atomic             Coordinates (Angstroms)
 Number     Number       Type             X           Y           Z
 ---------------------------------------------------------------------
      1          1           0        0.000000    0.000000    1.194793
      2          9           0        0.000000    0.000000    0.000000
      3          1           0        0.000000    0.000000   -1.194793
 ---------------------------------------------------------------------

 SCF Done:  E(UB-P86) =  -100.872844658     A.U. after    1 cycles

 The electronic state is 2-SGG.
 Alpha  occ. eigenvalues --  -24.29758  -1.06279  -0.52515  -0.33324  -0.33324
 Alpha  occ. eigenvalues --   -0.16737
 Alpha virt. eigenvalues --   -0.02136   0.55219   0.68863   1.08481   1.08481
 Alpha virt. eigenvalues --    1.51986   1.57883   1.70642   1.70642   1.77972
 Alpha virt. eigenvalues --    1.77972   2.22964
  Beta  occ. eigenvalues --  -24.29612  -1.05952  -0.50079  -0.32999  -0.32999
  Beta virt. eigenvalues --   -0.08405   0.03754   0.62484   0.76873   1.08858
  Beta virt. eigenvalues --    1.08858   1.52539   1.60403   1.70279   1.70279
  Beta virt. eigenvalues --    1.78055   1.78055   2.25514

 Mulliken charges and spin densities:
               1          2
     1  H    0.186150   0.545439
     2  F   -0.372300  -0.090878
     3  H    0.186150   0.545439
 Sum of Mulliken charges =  -0.00000   1.00000

 Dipole moment (field-independent basis, Debye):
    X=              0.0000    Y=             -0.0000    Z=             -0.0000  Tot=              0.0000
 Quadrupole moment (field-independent basis, Debye-Ang):
   XX=             -6.9872   YY=             -6.9872   ZZ=             -4.7419
   XY=             -0.0000   XZ=             -0.0000   YZ=              0.0000

  Exact polarizability:   1.956   0.000   1.956   0.000  -0.000  34.752
 Approx polarizability:   2.399   0.000   2.399  -0.000  -0.000  74.240

 ******    3 imaginary frequencies (negative Signs) ******

                      1                      2                      3
                     SGU                    PIU                    PIU
 Frequencies --  -2030.7753               -90.0265               -90.0265
 Red. masses --      1.1085                 1.1085                 1.1085
 Frc consts  --      2.6935                 0.0053                 0.0053
 IR Inten    --   3186.1406                43.6080                43.6080

                      4
                     SGG
 Frequencies --   2075.9881
 Red. masses --      1.0078
 Frc consts  --      2.5591
 IR Inten    --      0.0000

 - Thermochemistry -
 -------------------
 Temperature   298.150 Kelvin.  Pressure   1.00000 Atm.
 Atom     1 has atomic number  1 and mass   1.00783

 Molecular mass:    21.01405 amu.
 Principal axes and moments of inertia in atomic units:
                           1         2         3
     Eigenvalues --     0.00000  10.27538  10.27538
           X           -0.00000   1.00000   0.00000
           Y            0.00000   0.00000   1.00000
           Z            1.00000   0.00000   0.00000
 This molecule is a prolate symmetric top.
 Rotational symmetry number  2.
 Rotational temperature (Kelvin)      8.42927
 Rotational constant (GHZ):         175.637402
    3 imaginary frequencies ignored.
 Zero-point vibrational energy      12417.2 (Joules/Mol)
                                    2.96777 (Kcal/Mol)
 Vibrational temperatures:   2986.88
          (Kelvin)

 Zero-point correction=                           0.004729 (Hartree/Particle)
 Thermal correction to Energy=                    0.007090
 Thermal correction to Enthalpy=                  0.008035
 Thermal correction to Gibbs Free Energy=        -0.012939
 Sum of electronic and zero-point Energies=           -100.868115
 Sum of electronic and thermal Energies=              -100.865754
 Sum of electronic and thermal Enthalpies=            -100.864810
 Sum of electronic and thermal Free Energies=         -100.885784

                     E (Thermal)             CV                S
                      KCal/Mol        Cal/Mol-Kelvin    Cal/Mol-Kelvin
 Total                    4.449              4.977             44.142
 Electronic               0.000              0.000              1.377
 Translational            0.889              2.981             35.068
 Rotational               0.592              1.987              7.696
 Vibrational              2.968              0.009              0.001

 Optimization completed.
    -- Stationary point found.
 Normal termination of Gaussian 16 at Wed Oct  7 13:19:11 2020.
