 Gaussian 16, Revision A.03,

 ----------------------------------------------------------------------
 #P Opt(TS,MaxCyc=50,NoEigenTest,MaxStep=10,AddRedundant) BP86/6-31G* 5
 D 7F Integral=UltraFineGrid SCF=(NoSymm,XQC,MaxCyc=120) IOp(1/33=1)
 ----------------------------------------------------------------------

 TstMul:  Mul=     2
 TstMul:  ICh=     0
 TstMul:  Mul=     2
 Symbolic Z-matrix:
 Charge =  0 Multiplicity = 2

 SCF Done:  E(UB-P86) =  -200.012539989     A.U. after   19 cycles
 SCF Done:  E(UB-P86) =  -200.014735522     A.U. after   14 cycles
 SCF Done:  E(UB-P86) =  -200.012487293     A.U. after   15 cycles
 SCF Done:  E(UB-P86) =  -200.010792389     A.U. after   14 cycles
 SCF Done:  E(UB-P86) =  -200.009384715     A.U. after   15 cycles
 SCF Done:  E(UB-P86) =  -200.008217003     A.U. after   15 cycles
 SCF Done:  E(UB-P86) =  -200.007245464     A.U. after   15 cycles
 SCF Done:  E(UB-P86) =  -200.006430762     A.U. after   15 cycles
 SCF Done:  E(UB-P86) =  -200.005740047     A.U. after   15 cycles
 SCF Done:  E(UB-P86) =  -200.005147400     A.U. after   14 cycles
 SCF Done:  E(UB-P86) =  -200.001072572     A.U. after   10 cycles
 SCF Done:  E(UB-P86) =  -200.001046946     A.U. after   10 cycles
 SCF Done:  E(UB-P86) =  -200.001027288     A.U. after    9 cycles
 SCF Done:  E(UB-P86) =  -200.001011891     A.U. after    9 cycles
 SCF Done:  E(UB-P86) =  -200.000999205     A.U. after    9 cycles
 SCF Done:  E(UB-P86) =  -200.000989406     A.U. after    9 cycles
 SCF Done:  E(UB-P86) =  -200.000983173     A.U. after    9 cycles
 SCF Done:  E(UB-P86) =  -200.000980065     A.U. after    9 cycles
 SCF Done:  E(UB-P86) =  -200.000978788     A.U. after    8 cycles
 Optimization completed.
    -- Stationary point found.
 Normal termination of Gaussian 16 at Wed Oct  7 13:25:21 2020.
 Gaussian 16:  ES64L-G16RevA.03 25-Dec-2016

 ----------------------------------------------------------------------
 #P Freq BP86/6-31G* 5D 7F Integral=UltraFineGrid SCF=(NoSymm,XQC,MaxCy
 c=120) IOp(1/33=1) Geom=Check Guess=Read
 ----------------------------------------------------------------------

 TstMul:  Mul=     2
 TstMul:  ICh=     0
 TstMul:  Mul=     2
 Structure from the checkpoint file:  "MN_52_hf2ts_BH76_BP86_631Gs.chk"
 Charge =  0 Multiplicity = 2

                         Standard orientation:
 ---------------------------------------------------------------------
 Center     Atomic      Atomic             Coordinates (Angstroms)
 Number     Number       Type             X           Y           Z
 ---------------------------------------------------------------------
      1          1           0        0.000000    0.000000   -4.015152
      2          9           0        0.000000    0.000000   -0.488703
      3          9           0        0.000000    0.000000    0.934831
 ---------------------------------------------------------------------

 SCF Done:  E(UB-P86) =  -200.000978788     A.U. after    1 cycles

 The electronic state is 2-SG.
 Alpha  occ. eigenvalues --  -24.38286 -24.38273  -1.21893  -0.99437  -0.53962
 Alpha  occ. eigenvalues --   -0.44201  -0.44201  -0.32102  -0.32102  -0.27485
 Alpha virt. eigenvalues --   -0.19151   0.66022   0.99944   0.99944   1.03095
 Alpha virt. eigenvalues --    1.15793   1.17985   1.17985   1.20114   1.47461
 Alpha virt. eigenvalues --    1.47461   1.63357   1.63357   1.66510   1.85826

  Beta  occ. eigenvalues --  -24.38285 -24.38270  -1.21889  -0.99433  -0.53957
  Beta  occ. eigenvalues --   -0.44200  -0.44200  -0.32100  -0.32100
  Beta virt. eigenvalues --   -0.19162  -0.03646   0.99944   0.99944   0.99970
  Beta virt. eigenvalues --    1.05161   1.16082   1.17984   1.17984   1.20126
  Beta virt. eigenvalues --    1.47464   1.47464   1.63357   1.63357   1.66517

 Mulliken charges and spin densities:
               1          2
     1  H    0.000994   0.998879
     2  F   -0.000475   0.000050
     3  F   -0.000519   0.001071
 Sum of Mulliken charges =  -0.00000   1.00000

 Dipole moment (field-independent basis, Debye):
    X=              0.0000    Y=             -0.0000    Z=             -0.0214  Tot=              0.0214
 Quadrupole moment (field-independent basis, Debye-Ang):
   XX=            -10.5774   YY=            -10.5774   ZZ=             -9.4860
   XY=             -0.0000   XZ=              0.0000   YZ=             -0.0000

  Exact polarizability:   2.768   0.000   2.768   0.000  -0.000  11.241
 Approx polarizability:   3.555   0.000   3.555  -0.000  -0.000  26.501

 ******    1 imaginary frequencies (negative Signs) ******

                      1                      2                      3
                     SG                     PI                     PI
 Frequencies --    -41.6827                15.6743                15.6743
 Red. masses --      1.0331                 1.8856                 1.8856
 Frc consts  --      0.0011                 0.0003                 0.0003
 IR Inten    --      0.2510                 0.0006                 0.0006

                      4
                     SG
 Frequencies --   1002.1970
 Red. masses --     18.9885
 Frc consts  --     11.2369
 IR Inten    --      0.4362

 - Thermochemistry -
 -------------------
 Temperature   298.150 Kelvin.  Pressure   1.00000 Atm.
 Atom     1 has atomic number  1 and mass   1.00783

 Molecular mass:    39.00463 amu.
 Principal axes and moments of inertia in atomic units:
                           1         2         3
     Eigenvalues --     0.00000 131.71853 131.71853
           X            0.00000   0.00000   1.00000
           Y            0.00000   1.00000   0.00000
           Z            1.00000   0.00000   0.00000
 This molecule is a prolate symmetric top.
 Rotational symmetry number  1.
 Rotational temperature (Kelvin)      0.65757
 Rotational constant (GHZ):          13.701498
    1 imaginary frequencies ignored.
 Zero-point vibrational energy       6182.0 (Joules/Mol)
                                    1.47753 (Kcal/Mol)
 Warning -- explicit consideration of   2 degrees of freedom as
           vibrations may cause significant error
 Vibrational temperatures:     22.55    22.55  1441.94
          (Kelvin)

 Zero-point correction=                           0.002355 (Hartree/Particle)
 Thermal correction to Energy=                    0.006569
 Thermal correction to Enthalpy=                  0.007514
 Thermal correction to Gibbs Free Energy=        -0.024207
 Sum of electronic and zero-point Energies=           -199.998624
 Sum of electronic and thermal Energies=              -199.994409
 Sum of electronic and thermal Enthalpies=            -199.993465
 Sum of electronic and thermal Free Energies=         -200.025185

                     E (Thermal)             CV                S
                      KCal/Mol        Cal/Mol-Kelvin    Cal/Mol-Kelvin
 Total                    4.122              9.315             66.761
 Electronic               0.000              0.000              1.377
 Translational            0.889              2.981             36.912
 Rotational               0.592              1.987             14.143
 Vibrational              2.641              4.347             14.329
 Vibration     1          0.593              1.986              7.118
 Vibration     2          0.593              1.986              7.118

                           ! Non-Optimized Parameters !
 Normal termination of Gaussian 16 at Wed Oct  7 13:25:44 2020.
