 Gaussian 16, Revision A.03,
 Gaussian 16:  ES64L-G16RevA.03 25-Dec-2016

 ----------------------------------------------------------------------
 #P Opt(MaxCyc=100) BP86/6-31G* 5D 7F Integral=UltraFineGrid SCF=(NoSym
 m,XQC,MaxCyc=120) IOp(1/33=1)
 ----------------------------------------------------------------------

 TstMul:  Mul=     1
 TstMul:  ICh=     0
 TstMul:  Mul=     1
 Symbolic Z-matrix:
 Charge =  0 Multiplicity = 1

 SCF Done:  E(RB-P86) =  -184.676664312     A.U. after   13 cycles
 SCF Done:  E(RB-P86) =  -184.679056126     A.U. after   12 cycles
 SCF Done:  E(RB-P86) =  -184.679122030     A.U. after    9 cycles
 SCF Done:  E(RB-P86) =  -184.679122189     A.U. after    7 cycles
 Optimization completed.
    -- Stationary point found.

                         Standard orientation:
 ---------------------------------------------------------------------
 Center     Atomic      Atomic             Coordinates (Angstroms)
 Number     Number       Type             X           Y           Z
 ---------------------------------------------------------------------
      1          7           0        0.000000    0.000000   -1.221727
      2          7           0        0.000000    0.000000   -0.070354
      3          8           0        0.000000    0.000000    1.130571
 ---------------------------------------------------------------------

 The electronic state is 1-SG.
 Alpha  occ. eigenvalues --  -18.89728 -14.23687 -14.11402  -1.14264  -0.99050
 Alpha  occ. eigenvalues --   -0.54591  -0.49974  -0.49974  -0.41848  -0.30060
 Alpha  occ. eigenvalues --   -0.30060
 Alpha virt. eigenvalues --   -0.05941  -0.05941   0.07230   0.38472   0.54948
 Alpha virt. eigenvalues --    0.55479   0.55479   0.68254   0.69326   0.69472
 Alpha virt. eigenvalues --    0.69472   0.89364   0.89364   0.96414   1.27858

 Mulliken charges:
               1
     1  N   -0.107430
     2  N    0.506167
     3  O   -0.398737
 Sum of Mulliken charges =  -0.00000

 Dipole moment (field-independent basis, Debye):
    X=              0.0000    Y=              0.0000    Z=              0.1667  Tot=              0.1667
 Quadrupole moment (field-independent basis, Debye-Ang):
   XX=            -15.0402   YY=            -15.0402   ZZ=            -18.6592
   XY=              0.0000   XZ=              0.0000   YZ=              0.0000

 Normal termination of Gaussian 16 at Wed Oct  7 13:19:59 2020.
