 Gaussian 16, Revision A.03,
 Gaussian 16:  ES64L-G16RevA.03 25-Dec-2016

 ----------------------------------------------------------------------
 #P Opt(MaxCyc=100) BP86/6-31G* 5D 7F Integral=UltraFineGrid SCF=(NoSym
 m,XQC,MaxCyc=120) IOp(1/33=1)
 ----------------------------------------------------------------------

 TstMul:  Mul=     1
 TstMul:  ICh=     0
 TstMul:  Mul=     1
 Symbolic Z-matrix:
 Charge =  0 Multiplicity = 1

 SCF Done:  E(RB-P86) =  -93.3900063907     A.U. after   11 cycles
 SCF Done:  E(RB-P86) =  -93.3909210882     A.U. after   10 cycles
 SCF Done:  E(RB-P86) =  -93.3909264712     A.U. after    7 cycles
 Optimization completed.
    -- Stationary point found.

                         Standard orientation:
 ---------------------------------------------------------------------
 Center     Atomic      Atomic             Coordinates (Angstroms)
 Number     Number       Type             X           Y           Z
 ---------------------------------------------------------------------
      1          6           0        0.000000    0.000000   -0.751409
      2          7           0        0.000000    0.000000    0.437367
      3          1           0        0.000000    0.000000    1.446884
 ---------------------------------------------------------------------

 The electronic state is 1-SG.
 Alpha  occ. eigenvalues --  -14.05812  -9.95985  -0.85735  -0.60501  -0.32849
 Alpha  occ. eigenvalues --   -0.32849  -0.26711
 Alpha virt. eigenvalues --   -0.01653  -0.01653   0.04073   0.32114   0.46151
 Alpha virt. eigenvalues --    0.51397   0.51397   0.60520   0.67739   0.67739
 Alpha virt. eigenvalues --    0.86011   1.11175   1.36618   1.42812   1.42812

 Mulliken charges:
               1
     1  C    0.018764
     2  N   -0.382488
     3  H    0.363723
 Sum of Mulliken charges =  -0.00000

 Dipole moment (field-independent basis, Debye):
    X=              0.0000    Y=             -0.0000    Z=              2.9555  Tot=              2.9555
 Quadrupole moment (field-independent basis, Debye-Ang):
   XX=            -11.5636   YY=            -11.5636   ZZ=             -9.8712
   XY=             -0.0000   XZ=              0.0000   YZ=              0.0000

 Normal termination of Gaussian 16 at Wed Oct  7 13:18:58 2020.
