 Gaussian 16, Revision A.03,

 ----------------------------------------------------------------------
 #P Opt(TS,MaxCyc=50,NoEigenTest,MaxStep=10,AddRedundant) BP86/6-31G* 5
 D 7F Integral=UltraFineGrid SCF=(NoSymm,XQC,MaxCyc=120) IOp(1/33=1)
 ----------------------------------------------------------------------

 TstMul:  Mul=     1
 TstMul:  ICh=    -1
 TstMul:  Mul=     1
 Symbolic Z-matrix:
 Charge = -1 Multiplicity = 1

 SCF Done:  E(RB-P86) =  -215.476362140     A.U. after   14 cycles
 SCF Done:  E(RB-P86) =  -215.477964140     A.U. after   13 cycles
 SCF Done:  E(RB-P86) =  -215.478117048     A.U. after   11 cycles
 SCF Done:  E(RB-P86) =  -215.478207023     A.U. after   11 cycles
 SCF Done:  E(RB-P86) =  -215.478223147     A.U. after    9 cycles
 SCF Done:  E(RB-P86) =  -215.478238319     A.U. after    9 cycles
 SCF Done:  E(RB-P86) =  -215.478244496     A.U. after   13 cycles
 SCF Done:  E(RB-P86) =  -215.478208891     A.U. after   12 cycles
 SCF Done:  E(RB-P86) =  -215.478203496     A.U. after   11 cycles
 SCF Done:  E(RB-P86) =  -215.478203895     A.U. after    8 cycles
 Optimization completed.
    -- Stationary point found.
 Normal termination of Gaussian 16 at Wed Oct  7 13:21:00 2020.
 Gaussian 16:  ES64L-G16RevA.03 25-Dec-2016

 ----------------------------------------------------------------------
 #P Freq BP86/6-31G* 5D 7F Integral=UltraFineGrid SCF=(NoSymm,XQC,MaxCy
 c=120) IOp(1/33=1) Geom=Check Guess=Read
 ----------------------------------------------------------------------

 TstMul:  Mul=     1
 TstMul:  ICh=    -1
 TstMul:  Mul=     1
 Structure from the checkpoint file:  "MN_63_hoch3fts_BH76_BP86_631Gs.chk"
 Charge = -1 Multiplicity = 1

                         Standard orientation:
 ---------------------------------------------------------------------
 Center     Atomic      Atomic             Coordinates (Angstroms)
 Number     Number       Type             X           Y           Z
 ---------------------------------------------------------------------
      1          9           0        1.868212   -0.021420   -0.000049
      2          6           0        0.074722    0.030682    0.000037
      3          1           0        0.031004    1.117209    0.000905
      4          1           0        0.017120   -0.501478   -0.946631
      5          1           0        0.017779   -0.502809    0.946038
      6          8           0       -1.908841    0.096613   -0.000019
      7          1           0       -2.057419   -0.877138    0.000059
 ---------------------------------------------------------------------

 SCF Done:  E(RB-P86) =  -215.478203895     A.U. after    1 cycles

 The electronic state is 1-A.
 Alpha  occ. eigenvalues --  -23.90903 -18.46486  -9.72630  -0.67657  -0.55769
 Alpha  occ. eigenvalues --   -0.37452  -0.16201  -0.16138  -0.08416  -0.04667
 Alpha  occ. eigenvalues --    0.02897   0.03013   0.06221   0.07691
 Alpha virt. eigenvalues --    0.25999   0.27877   0.33504   0.34823   0.35093
 Alpha virt. eigenvalues --    0.74215   0.74917   0.85412   0.96223   1.02352
 Alpha virt. eigenvalues --    1.04896   1.06711   1.13532   1.16733   1.28291

 Mulliken charges:
               1
     1  F   -0.581168
     2  C   -0.186113
     3  H    0.129724
     4  H    0.116635
     5  H    0.116581
     6  O   -0.855486
     7  H    0.259827
 Sum of Mulliken charges =  -1.00000

 Dipole moment (field-independent basis, Debye):
    X=              0.3604    Y=             -1.1826    Z=              0.0003  Tot=              1.2363
 Quadrupole moment (field-independent basis, Debye-Ang):
   XX=            -40.2720   YY=            -18.2422   ZZ=            -19.7179
   XY=              2.9258   XZ=              0.0005   YZ=              0.0001

  Exact polarizability:  41.244   2.312  20.872   0.002  -0.000  16.391
 Approx polarizability:  91.952   0.236  31.296   0.004  -0.001  22.464

 ******    1 imaginary frequencies (negative Signs) ******

                      1                      2                      3
                      A                      A                      A
 Frequencies --   -418.6723               206.1754               284.6517
 Red. masses --      9.4244                 1.0519                 3.3351
 Frc consts  --      0.9733                 0.0263                 0.1592
 IR Inten    --    650.7226                43.4032                11.9984

                      4                      5                      6
                      A                      A                      A
 Frequencies --    303.6010               334.2363               771.6337
 Red. masses --      4.4495                13.2183                 1.1230
 Frc consts  --      0.2416                 0.8700                 0.3940
 IR Inten    --     19.2707                 7.1845                27.2561

                      7                      8                      9
                      A                      A                      A
 Frequencies --    930.0299               974.3393              1057.3276
 Red. masses --      1.0209                 1.0646                 1.0589
 Frc consts  --      0.5203                 0.5955                 0.6975
 IR Inten    --      0.0101                 5.3225                 0.5955

                     10                     11                     12
                      A                      A                      A
 Frequencies --   1330.9665              1336.7791              3044.8761
 Red. masses --      1.1268                 1.1161                 1.0085
 Frc consts  --      1.1761                 1.1750                 5.5090
 IR Inten    --      1.0669                 1.8320                 0.2161

                     13                     14                     15
                      A                      A                      A
 Frequencies --   3224.7682              3229.7347              3507.4819
 Red. masses --      1.1283                 1.1259                 1.0676
 Frc consts  --      6.9132                 6.9194                 7.7386
 IR Inten    --     57.4678                48.1881                80.1246

 - Thermochemistry -
 -------------------
 Temperature   298.150 Kelvin.  Pressure   1.00000 Atm.
 Atom     1 has atomic number  9 and mass  18.99840

 Molecular mass:    51.02462 amu.
 Principal axes and moments of inertia in atomic units:
                           1         2         3
     Eigenvalues --    15.98635 465.90487 468.99886
           X            0.99989   0.01510   0.00000
           Y           -0.01510   0.99989  -0.00000
           Z           -0.00000   0.00000   1.00000
 This molecule is an asymmetric top.
 Rotational symmetry number  1.
 Rotational temperatures (Kelvin)      5.41799     0.18590     0.18468
 Rotational constants (GHZ):         112.89264     3.87363     3.84807
    1 imaginary frequencies ignored.
 Zero-point vibrational energy     122836.2 (Joules/Mol)
                                   29.35855 (Kcal/Mol)
 Warning -- explicit consideration of   4 degrees of freedom as
           vibrations may cause significant error
 Vibrational temperatures:    296.64   409.55   436.81   480.89  1110.21
          (Kelvin)           1338.11  1401.86  1521.26  1914.96  1923.33
                             4380.90  4639.72  4646.87  5046.48

 Zero-point correction=                           0.046786 (Hartree/Particle)
 Thermal correction to Energy=                    0.051629
 Thermal correction to Enthalpy=                  0.052573
 Thermal correction to Gibbs Free Energy=         0.020604
 Sum of electronic and zero-point Energies=           -215.431418
 Sum of electronic and thermal Energies=              -215.426575
 Sum of electronic and thermal Enthalpies=            -215.425631
 Sum of electronic and thermal Free Energies=         -215.457600

                     E (Thermal)             CV                S
                      KCal/Mol        Cal/Mol-Kelvin    Cal/Mol-Kelvin
 Total                   32.398             14.917             67.285
 Electronic               0.000              0.000              0.000
 Translational            0.889              2.981             37.712
 Rotational               0.889              2.981             22.773
 Vibrational             30.620              8.956              6.800
 Vibration     1          0.641              1.831              2.077
 Vibration     2          0.683              1.702              1.506
 Vibration     3          0.695              1.667              1.397
 Vibration     4          0.716              1.607              1.240

 Optimization completed.
    -- Stationary point found.
 Normal termination of Gaussian 16 at Wed Oct  7 13:21:32 2020.
