 Gaussian 16, Revision A.03,
 Gaussian 16:  ES64L-G16RevA.03 25-Dec-2016

 ----------------------------------------------------------------------
 #P Opt(MaxCyc=100) BP86/6-31G* 5D 7F Integral=UltraFineGrid SCF=(NoSym
 m,XQC,MaxCyc=120) IOp(1/33=1)
 ----------------------------------------------------------------------

 TstMul:  Mul=     1
 TstMul:  ICh=    -1
 TstMul:  Mul=     1
 Symbolic Z-matrix:
 Charge = -1 Multiplicity = 1

 SCF Done:  E(RB-P86) =  -215.550301375     A.U. after   13 cycles
 SCF Done:  E(RB-P86) =  -215.552246478     A.U. after   12 cycles
 SCF Done:  E(RB-P86) =  -215.550625997     A.U. after   13 cycles
 SCF Done:  E(RB-P86) =  -215.556172765     A.U. after   11 cycles
 SCF Done:  E(RB-P86) =  -215.555417595     A.U. after   12 cycles
 SCF Done:  E(RB-P86) =  -215.558238701     A.U. after   12 cycles
 SCF Done:  E(RB-P86) =  -215.558777496     A.U. after   12 cycles
 SCF Done:  E(RB-P86) =  -215.558927927     A.U. after   11 cycles
 SCF Done:  E(RB-P86) =  -215.558962297     A.U. after   11 cycles
 SCF Done:  E(RB-P86) =  -215.558968182     A.U. after    9 cycles
 SCF Done:  E(RB-P86) =  -215.558969484     A.U. after    8 cycles
 Optimization completed.
    -- Stationary point found.

                         Standard orientation:
 ---------------------------------------------------------------------
 Center     Atomic      Atomic             Coordinates (Angstroms)
 Number     Number       Type             X           Y           Z
 ---------------------------------------------------------------------
      1          6           0       -1.268430   -0.374053   -0.000134
      2          8           0       -0.489523    0.742237    0.000141
      3          1           0       -2.377432   -0.137328   -0.022746
      4          1           0       -1.124295   -1.083692   -0.881563
      5          1           0       -1.157567   -1.062678    0.903363
      6          1           0        0.710356    0.288054    0.001044
      7          9           0        1.719523   -0.188660   -0.000047
 ---------------------------------------------------------------------

 The electronic state is 1-A.
 Alpha  occ. eigenvalues --  -23.91574 -18.48734  -9.73258  -0.70542  -0.62800
 Alpha  occ. eigenvalues --   -0.36158  -0.18363  -0.15180  -0.13217  -0.07453
 Alpha  occ. eigenvalues --    0.01172   0.01193   0.04415   0.05582
 Alpha virt. eigenvalues --    0.27085   0.32683   0.33675   0.37134   0.49994
 Alpha virt. eigenvalues --    0.73407   0.75351   0.77449   0.89540   0.97478
 Alpha virt. eigenvalues --    0.98334   1.03367   1.16902   1.18046   1.18862

 Mulliken charges:
               1
     1  C   -0.129946
     2  O   -0.683610
     3  H    0.014938
     4  H    0.016654
     5  H    0.014563
     6  H    0.447309
     7  F   -0.679908
 Sum of Mulliken charges =  -1.00000

 Dipole moment (field-independent basis, Debye):
    X=             -1.6289    Y=             -0.8168    Z=             -0.0063  Tot=              1.8222
 Quadrupole moment (field-independent basis, Debye-Ang):
   XX=            -30.6640   YY=            -22.9077   ZZ=            -20.8669
   XY=              1.6346   XZ=              0.0126   YZ=              0.0100

 Normal termination of Gaussian 16 at Wed Oct  7 13:21:11 2020.
