 Gaussian 16, Revision A.03,
 Gaussian 16:  ES64L-G16RevA.03 25-Dec-2016

 ----------------------------------------------------------------------
 #P Opt(MaxCyc=100) BP86/6-31G* 5D 7F Integral=UltraFineGrid SCF=(NoSym
 m,XQC,MaxCyc=120) IOp(1/33=1)
 ----------------------------------------------------------------------

 TstMul:  Mul=     2
 TstMul:  ICh=     0
 TstMul:  Mul=     2
 Symbolic Z-matrix:
 Charge =  0 Multiplicity = 2

 SCF Done:  E(UB-P86) =  -398.756661836     A.U. after   11 cycles
 SCF Done:  E(UB-P86) =  -398.756961082     A.U. after   10 cycles
 Optimization completed.
    -- Stationary point found.

                         Standard orientation:
 ---------------------------------------------------------------------
 Center     Atomic      Atomic             Coordinates (Angstroms)
 Number     Number       Type             X           Y           Z
 ---------------------------------------------------------------------
      1         16           0        0.000000    0.000000    0.080336
      2          1           0        0.000000    0.000000   -1.285384
 ---------------------------------------------------------------------

 Unable to determine electronic state:  partially filled degenerate orbitals.
 Alpha  occ. eigenvalues --  -88.13322  -7.71287  -5.74099  -5.73271  -5.72160
 Alpha  occ. eigenvalues --   -0.67421  -0.37590  -0.28610  -0.23824
 Alpha virt. eigenvalues --   -0.00626   0.24150   0.29684   0.29903   0.32582
 Alpha virt. eigenvalues --    0.64485   0.64574   0.67501   0.68352   0.68733
 Alpha virt. eigenvalues --    1.01304
  Beta  occ. eigenvalues --  -88.12871  -7.70817  -5.72979  -5.72790  -5.71879
  Beta  occ. eigenvalues --   -0.64326  -0.36378  -0.22495
  Beta virt. eigenvalues --   -0.21444   0.00488   0.26163   0.30658   0.33346
  Beta virt. eigenvalues --    0.34203   0.66423   0.69483   0.70070   0.72667
  Beta virt. eigenvalues --    0.73684   1.02509

 Mulliken charges and spin densities:
               1          2
     1  S   -0.113572   1.029970
     2  H    0.113572  -0.029970
 Sum of Mulliken charges =   0.00000   1.00000

 Dipole moment (field-independent basis, Debye):
    X=              0.0000    Y=             -0.0000    Z=             -1.0785  Tot=              1.0785
 Quadrupole moment (field-independent basis, Debye-Ang):
   XX=            -12.8448   YY=            -15.6982   ZZ=            -11.9770
   XY=             -0.0000   XZ=              0.0000   YZ=              0.0000

 Normal termination of Gaussian 16 at Wed Oct  7 13:18:53 2020.
