 Gaussian 16, Revision A.03,

 ----------------------------------------------------------------------
 #P Opt(TS,MaxCyc=50,NoEigenTest,MaxStep=10,AddRedundant) BP86/6-31G* 5
 D 7F Integral=UltraFineGrid SCF=(NoSymm,XQC,MaxCyc=120) IOp(1/33=1)
 ----------------------------------------------------------------------

 TstMul:  Mul=     2
 TstMul:  ICh=     0
 TstMul:  Mul=     2
 Symbolic Z-matrix:
 Charge =  0 Multiplicity = 2

 SCF Done:  E(UB-P86) =  -185.160245140     A.U. after   17 cycles
 SCF Done:  E(UB-P86) =  -185.163607006     A.U. after   16 cycles
 SCF Done:  E(UB-P86) =  -185.163352045     A.U. after   15 cycles
 SCF Done:  E(UB-P86) =  -185.162519456     A.U. after   16 cycles
 SCF Done:  E(UB-P86) =  -185.162503631     A.U. after   16 cycles
 SCF Done:  E(UB-P86) =  -185.162542822     A.U. after   11 cycles
 SCF Done:  E(UB-P86) =  -185.162562385     A.U. after   14 cycles
 Optimization completed.
    -- Stationary point found.

 1\1\GINC-NODE51\FTS\UBP86\6-31G(d)\H1N2O1(2)\RPEVERATI\07-Oct-2020\0\\
 #P Opt(TS,MaxCyc=50,NoEigenTest,MaxStep=10,AddRedundant) BP86/6-31G* 5
 D 7F Integral=UltraFineGrid SCF=(NoSymm,XQC,MaxCyc=120) IOp(1/33=1)\\T
 S search on BH76.\\0,2\H,-0.3437798981,-2.0277092447,0.\O,-0.852212853
 6,-0.6126422953,0.\N,0.0103628374,0.2764633354,0.\N,1.0486703854,0.797
 7834866,0.\\Version=ES64L-G16RevA.03\State=2-A'\HF=-185.1625624\S2=0.7
 58833\S2-1=0.\S2A=0.750008\RMSD=5.852e-09\RMSF=1.994e-04\Dipole=-0.093
 4632,-0.0789643,0.\Quadrupole=-0.8885628,0.0493108,0.839252,-1.1095799

 Normal termination of Gaussian 16 at Wed Oct  7 13:20:36 2020.
 Gaussian 16:  ES64L-G16RevA.03 25-Dec-2016

 ----------------------------------------------------------------------
 #P Freq BP86/6-31G* 5D 7F Integral=UltraFineGrid SCF=(NoSymm,XQC,MaxCy
 c=120) IOp(1/33=1) Geom=Check Guess=Read
 ----------------------------------------------------------------------

 TstMul:  Mul=     2
 TstMul:  ICh=     0
 TstMul:  Mul=     2
 Structure from the checkpoint file:  "MN_68_n2ohts_BH76_BP86_631Gs.chk"
 Charge =  0 Multiplicity = 2

                         Standard orientation:
 ---------------------------------------------------------------------
 Center     Atomic      Atomic             Coordinates (Angstroms)
 Number     Number       Type             X           Y           Z
 ---------------------------------------------------------------------
      1          1           0       -0.359497   -2.052570    0.000000
      2          8           0       -0.864640   -0.636325   -0.000000
      3          7           0       -0.000000    0.250774   -0.000000
      4          7           0        1.039516    0.769679    0.000000
 ---------------------------------------------------------------------

 SCF Done:  E(UB-P86) =  -185.162562385     A.U. after    1 cycles

 The electronic state is 2-A'.
 Alpha  occ. eigenvalues --  -18.91472 -14.21871 -14.11561  -1.12677  -0.97817
 Alpha  occ. eigenvalues --   -0.58551  -0.49330  -0.48804  -0.42689  -0.33883
 Alpha  occ. eigenvalues --   -0.30784  -0.19688
 Alpha virt. eigenvalues --   -0.08358  -0.07143   0.08647   0.40693   0.53590
 Alpha virt. eigenvalues --    0.55378   0.55899   0.64252   0.66427   0.68380
 Alpha virt. eigenvalues --    0.69316   0.71952   0.87004   0.87806   1.04032

  Beta  occ. eigenvalues --  -18.91390 -14.21696 -14.11082  -1.12236  -0.97266
  Beta  occ. eigenvalues --   -0.57727  -0.48524  -0.48475  -0.41704  -0.31994
  Beta  occ. eigenvalues --   -0.30492
  Beta virt. eigenvalues --   -0.12983  -0.06663  -0.04133   0.09187   0.41229
  Beta virt. eigenvalues --    0.55539   0.56152   0.56770   0.66984   0.68078
  Beta virt. eigenvalues --    0.69678   0.71427   0.74420   0.87091   0.88325

 Mulliken charges and spin densities:
               1          2
     1  H    0.045770   0.717386
     2  O   -0.354062  -0.063757
     3  N    0.409059   0.085886
     4  N   -0.100767   0.260485
 Sum of Mulliken charges =  -0.00000   1.00000

 Dipole moment (field-independent basis, Debye):
    X=             -0.2380    Y=             -0.2002    Z=              0.0000  Tot=              0.3110
 Quadrupole moment (field-independent basis, Debye-Ang):
   XX=            -18.7456   YY=            -17.4702   ZZ=            -16.4147
   XY=             -1.4895   XZ=             -0.0000   YZ=             -0.0000

  Exact polarizability:  22.185  12.121  38.810   0.000  -0.000   7.654
 Approx polarizability:  74.317  55.149 110.244   0.000  -0.000  11.831

 ******    1 imaginary frequencies (negative Signs) ******

                      1                      2                      3
                     A'                     A'                     A"
 Frequencies --  -1087.6440               454.1288               552.7060
 Red. masses --      1.5085                 1.3058                 4.9672
 Frc consts  --      1.0514                 0.1587                 0.8940
 IR Inten    --    355.1594                11.3370                 4.8574

                      4                      5                      6
                     A'                     A'                     A'
 Frequencies --    783.0074              1190.6295              2105.3683
 Red. masses --      2.5567                 5.9301                13.9408
 Frc consts  --      0.9236                 4.9530                36.4077
 IR Inten    --      0.3116                28.6582               214.9903

 - Thermochemistry -
 -------------------
 Temperature   298.150 Kelvin.  Pressure   1.00000 Atm.
 Atom     1 has atomic number  1 and mass   1.00783

 Molecular mass:    45.00889 amu.
 Principal axes and moments of inertia in atomic units:
                           1         2         3
     Eigenvalues --     8.75485 159.16615 167.92101
           X            0.76679  -0.64189   0.00000
           Y            0.64189   0.76679   0.00000
           Z           -0.00000   0.00000   1.00000
 This molecule is an asymmetric top.
 Rotational symmetry number  1.
 Rotational temperatures (Kelvin)      9.89325     0.54417     0.51580
 Rotational constants (GHZ):         206.14181    11.33872    10.74756
    1 imaginary frequencies ignored.
 Zero-point vibrational energy      30420.1 (Joules/Mol)
                                    7.27057 (Kcal/Mol)
 Warning -- explicit consideration of   2 degrees of freedom as
           vibrations may cause significant error
 Vibrational temperatures:    653.39   795.22  1126.57  1713.05  3029.16
          (Kelvin)

 Zero-point correction=                           0.011586 (Hartree/Particle)
 Thermal correction to Energy=                    0.014968
 Thermal correction to Enthalpy=                  0.015913
 Thermal correction to Gibbs Free Energy=        -0.012781
 Sum of electronic and zero-point Energies=           -185.150976
 Sum of electronic and thermal Energies=              -185.147594
 Sum of electronic and thermal Enthalpies=            -185.146650
 Sum of electronic and thermal Free Energies=         -185.175343

                     E (Thermal)             CV                S
                      KCal/Mol        Cal/Mol-Kelvin    Cal/Mol-Kelvin
 Total                    9.393              9.345             60.390
 Electronic               0.000              0.000              1.377
 Translational            0.889              2.981             37.338
 Rotational               0.889              2.981             20.087
 Vibrational              7.615              3.384              1.587
 Vibration     1          0.813              1.352              0.783
 Vibration     2          0.908              1.134              0.539

 Optimization completed.
    -- Stationary point found.
 Normal termination of Gaussian 16 at Wed Oct  7 13:21:09 2020.
