 Gaussian 16, Revision A.03,
 Gaussian 16:  ES64L-G16RevA.03 25-Dec-2016

 ----------------------------------------------------------------------
 #P Opt(MaxCyc=100) BP86/6-31G* 5D 7F Integral=UltraFineGrid SCF=(NoSym
 m,XQC,MaxCyc=120) IOp(1/33=1)
 ----------------------------------------------------------------------

 TstMul:  Mul=     1
 TstMul:  ICh=    -1
 TstMul:  Mul=     1
 Symbolic Z-matrix:
 Charge = -1 Multiplicity = 1

 SCF Done:  E(RB-P86) =  -215.473047598     A.U. after   15 cycles
 SCF Done:  E(RB-P86) =  -215.477918019     A.U. after   13 cycles
 SCF Done:  E(RB-P86) =  -215.481797160     A.U. after   15 cycles
 SCF Done:  E(RB-P86) =  -215.483612189     A.U. after   13 cycles
 SCF Done:  E(RB-P86) =  -215.484020183     A.U. after   13 cycles
 SCF Done:  E(RB-P86) =  -215.484565173     A.U. after   12 cycles
 SCF Done:  E(RB-P86) =  -215.484687531     A.U. after   11 cycles
 SCF Done:  E(RB-P86) =  -215.484768617     A.U. after   12 cycles
 SCF Done:  E(RB-P86) =  -215.484795550     A.U. after   11 cycles
 SCF Done:  E(RB-P86) =  -215.484832859     A.U. after   11 cycles
 SCF Done:  E(RB-P86) =  -215.487063229     A.U. after   13 cycles
 SCF Done:  E(RB-P86) =  -215.487435653     A.U. after   13 cycles
 SCF Done:  E(RB-P86) =  -215.490268150     A.U. after   11 cycles
 SCF Done:  E(RB-P86) =  -215.490743995     A.U. after   13 cycles
 SCF Done:  E(RB-P86) =  -215.490911351     A.U. after   11 cycles
 SCF Done:  E(RB-P86) =  -215.491019044     A.U. after   11 cycles
 SCF Done:  E(RB-P86) =  -215.491086394     A.U. after   12 cycles
 SCF Done:  E(RB-P86) =  -215.491099915     A.U. after   11 cycles
 SCF Done:  E(RB-P86) =  -215.491103813     A.U. after   11 cycles
 SCF Done:  E(RB-P86) =  -215.491104884     A.U. after    8 cycles
 Optimization completed.
    -- Stationary point found.

                         Standard orientation:
 ---------------------------------------------------------------------
 Center     Atomic      Atomic             Coordinates (Angstroms)
 Number     Number       Type             X           Y           Z
 ---------------------------------------------------------------------
      1          9           0        1.658364   -0.431116   -0.015697
      2          6           0        0.559178    0.501445    0.017754
      3          1           0        0.744314    1.243113   -0.796966
      4          1           0       -0.562045    0.043046   -0.086699
      5          1           0        0.653008    1.066097    0.977999
      6          8           0       -2.117997   -0.142224   -0.113854
      7          1           0       -2.171643   -0.343087    0.851250
 ---------------------------------------------------------------------

 The electronic state is 1-A.
 Alpha  occ. eigenvalues --  -24.05402 -18.41136  -9.73526  -0.84963  -0.50369
 Alpha  occ. eigenvalues --   -0.39505  -0.20410  -0.19233  -0.16818  -0.07201
 Alpha  occ. eigenvalues --   -0.06731  -0.03122   0.11242   0.11788
 Alpha virt. eigenvalues --    0.27086   0.28348   0.31908   0.33390   0.47727
 Alpha virt. eigenvalues --    0.68153   0.72251   0.75637   0.98326   0.99536
 Alpha virt. eigenvalues --    1.04653   1.07617   1.12794   1.19571   1.28767

 Mulliken charges:
               1
     1  F   -0.384821
     2  C   -0.233934
     3  H    0.049116
     4  H    0.246423
     5  H    0.045008
     6  O   -0.947981
     7  H    0.226189
 Sum of Mulliken charges =  -1.00000

 Dipole moment (field-independent basis, Debye):
    X=              4.8837    Y=              0.7577    Z=              1.2884  Tot=              5.1073
 Quadrupole moment (field-independent basis, Debye-Ang):
   XX=            -40.7024   YY=            -21.1203   ZZ=            -19.4125
   XY=              0.0021   XZ=             -2.9059   YZ=             -0.5562

 Normal termination of Gaussian 16 at Wed Oct  7 13:25:15 2020.
