 Gaussian 16, Revision A.03,
 Gaussian 16:  ES64L-G16RevA.03 25-Dec-2016

 ----------------------------------------------------------------------
 #P Opt(MaxCyc=100) BP86/6-31G* 5D 7F Integral=UltraFineGrid SCF=(NoSym
 m,XQC,MaxCyc=120) IOp(1/33=1)
 ----------------------------------------------------------------------

 TstMul:  Mul=     2
 TstMul:  ICh=     0
 TstMul:  Mul=     2
 Symbolic Z-matrix:
 Charge =  0 Multiplicity = 2

 SCF Done:  E(UB-P86) =  -342.514992586     A.U. after   12 cycles
 SCF Done:  E(UB-P86) =  -342.515514664     A.U. after   11 cycles
 SCF Done:  E(UB-P86) =  -342.515515890     A.U. after    6 cycles
 Optimization completed.
    -- Stationary point found.

                         Standard orientation:
 ---------------------------------------------------------------------
 Center     Atomic      Atomic             Coordinates (Angstroms)
 Number     Number       Type             X           Y           Z
 ---------------------------------------------------------------------
      1         15           0        0.000000   -0.000000    0.119055
      2          1           0        0.000000    1.028553   -0.892911
      3          1           0       -0.000000   -1.028553   -0.892911
 ---------------------------------------------------------------------

 The electronic state is 2-B1.
 Alpha  occ. eigenvalues --  -76.36821  -6.32844  -4.54909  -4.54433  -4.54099
 Alpha  occ. eigenvalues --   -0.58143  -0.35153  -0.27878  -0.22014
 Alpha virt. eigenvalues --   -0.00621   0.04253   0.21116   0.24978   0.26476
 Alpha virt. eigenvalues --    0.27019   0.58515   0.59205   0.60085   0.63065
 Alpha virt. eigenvalues --    0.68002   0.89396   1.05077
  Beta  occ. eigenvalues --  -76.36476  -6.32462  -4.54193  -4.53874  -4.53868
  Beta  occ. eigenvalues --   -0.55743  -0.34564  -0.26589
  Beta virt. eigenvalues --   -0.15407   0.00081   0.06255   0.24011   0.25831
  Beta virt. eigenvalues --    0.27984   0.30712   0.60817   0.63235   0.63669
  Beta virt. eigenvalues --    0.64198   0.73029   0.90800   1.05525

 Mulliken charges and spin densities:
               1          2
     1  P   -0.032415   1.075274
     2  H    0.016207  -0.037637
     3  H    0.016207  -0.037637
 Sum of Mulliken charges =   0.00000   1.00000

 Dipole moment (field-independent basis, Debye):
    X=              0.0000    Y=             -0.0000    Z=             -0.9008  Tot=              0.9008
 Quadrupole moment (field-independent basis, Debye-Ang):
   XX=            -14.9792   YY=            -13.9657   ZZ=            -15.3758
   XY=              0.0000   XZ=             -0.0000   YZ=              0.0000

 Normal termination of Gaussian 16 at Wed Oct  7 13:19:37 2020.
