 Gaussian 16, Revision A.03,
 Gaussian 16:  ES64L-G16RevA.03 25-Dec-2016

 ----------------------------------------------------------------------
 #P Opt(MaxCyc=100) BP86/6-31G* 5D 7F Integral=UltraFineGrid SCF=(NoSym
 m,XQC,MaxCyc=120) IOp(1/33=1)
 ----------------------------------------------------------------------

 TstMul:  Mul=     1
 TstMul:  ICh=    -1
 TstMul:  Mul=     1
 Symbolic Z-matrix:
 Charge = -1 Multiplicity = 1

 SCF Done:  E(RB-P86) =  -75.7155782430     A.U. after   10 cycles
 SCF Done:  E(RB-P86) =  -75.7165373087     A.U. after   10 cycles
 SCF Done:  E(RB-P86) =  -75.7165734820     A.U. after    7 cycles
 Optimization completed.
    -- Stationary point found.

                         Standard orientation:
 ---------------------------------------------------------------------
 Center     Atomic      Atomic             Coordinates (Angstroms)
 Number     Number       Type             X           Y           Z
 ---------------------------------------------------------------------
      1          8           0        0.000000    0.000000    0.110912
      2          1           0        0.000000    0.000000   -0.887292
 ---------------------------------------------------------------------

 The electronic state is 1-SG.
 Alpha  occ. eigenvalues --  -18.30586  -0.39260   0.05828   0.21851   0.21851
 Alpha virt. eigenvalues --    0.38716   1.12641   1.24137   1.24137   1.28252
 Alpha virt. eigenvalues --    1.61091   2.13478   2.13478   2.19697   2.19697
 Alpha virt. eigenvalues --    2.75671

 Mulliken charges:
               1
     1  O   -1.145878
     2  H    0.145878
 Sum of Mulliken charges =  -1.00000

 Dipole moment (field-independent basis, Debye):
    X=              0.0000    Y=              0.0000    Z=             -1.1500  Tot=              1.1500
 Quadrupole moment (field-independent basis, Debye-Ang):
   XX=             -7.9961   YY=             -7.9961   ZZ=             -6.8541
   XY=             -0.0000   XZ=              0.0000   YZ=              0.0000

 1\1\GINC-NODE13\FOpt\RBP86\6-31G(d)\H1O1(1-)\RPEVERATI\07-Oct-2020\0\\
 #P Opt(MaxCyc=100) BP86/6-31G* 5D 7F Integral=UltraFineGrid SCF=(NoSym
 m,XQC,MaxCyc=120) IOp(1/33=1)\\TS search on BH76.\\-1,1\O,0.,0.,0.1249
 736196\H,0.,0.,-0.8732301957\\Version=ES64L-G16RevA.03\State=1-SG\HF=-
 75.7165735\RMSD=3.545e-10\RMSF=3.447e-05\Dipole=0.,0.,-0.4524635\Quadr
 upole=-0.2830093,-0.2830093,0.5660186,0.,0.,0.\PG=C*V [C*(H1O1)]\\@

 Normal termination of Gaussian 16 at Wed Oct  7 13:19:15 2020.
