 Gaussian 16, Revision A.03,

 ----------------------------------------------------------------------
 #P Opt(TS,MaxCyc=50,NoEigenTest,MaxStep=10,AddRedundant) BP86/6-31G* 5
 D 7F Integral=UltraFineGrid SCF=(NoSymm,XQC,MaxCyc=120) IOp(1/33=1)
 ----------------------------------------------------------------------

 TstMul:  Mul=     2
 TstMul:  ICh=     0
 TstMul:  Mul=     2
 Symbolic Z-matrix:
 Charge =  0 Multiplicity = 2

 SCF Done:  E(UB-P86) =  -461.324677032     A.U. after   12 cycles
 SCF Done:  E(UB-P86) =  -461.327131473     A.U. after   10 cycles
 SCF Done:  E(UB-P86) =  -461.328654358     A.U. after   11 cycles
 SCF Done:  E(UB-P86) =  -461.329585619     A.U. after   11 cycles
 SCF Done:  E(UB-P86) =  -461.330177256     A.U. after   11 cycles
 SCF Done:  E(UB-P86) =  -461.330584889     A.U. after   11 cycles
 SCF Done:  E(UB-P86) =  -461.330883129     A.U. after   11 cycles
 SCF Done:  E(UB-P86) =  -461.331102860     A.U. after   11 cycles
 SCF Done:  E(UB-P86) =  -461.331259954     A.U. after   11 cycles
 SCF Done:  E(UB-P86) =  -461.331367026     A.U. after   11 cycles
 SCF Done:  E(UB-P86) =  -461.331431048     A.U. after   11 cycles
 SCF Done:  E(UB-P86) =  -461.331456126     A.U. after   11 cycles
 SCF Done:  E(UB-P86) =  -461.331458585     A.U. after    8 cycles
 Optimization completed.
    -- Stationary point found.
 Normal termination of Gaussian 16 at Wed Oct  7 13:21:55 2020.
 Gaussian 16:  ES64L-G16RevA.03 25-Dec-2016

 ----------------------------------------------------------------------
 #P Freq BP86/6-31G* 5D 7F Integral=UltraFineGrid SCF=(NoSymm,XQC,MaxCy
 c=120) IOp(1/33=1) Geom=Check Guess=Read
 ----------------------------------------------------------------------

 TstMul:  Mul=     2
 TstMul:  ICh=     0
 TstMul:  Mul=     2
 Structure from the checkpoint file:  "MN_78_RKT01_BH76_BP86_631Gs.chk"
 Charge =  0 Multiplicity = 2

                         Standard orientation:
 ---------------------------------------------------------------------
 Center     Atomic      Atomic             Coordinates (Angstroms)
 Number     Number       Type             X           Y           Z
 ---------------------------------------------------------------------
      1          1           0        0.000000    0.000000   -1.699960
      2         17           0        0.000000    0.000000    0.245810
      3          1           0        0.000000    0.000000   -2.478804
 ---------------------------------------------------------------------

 SCF Done:  E(UB-P86) =  -461.331458585     A.U. after    1 cycles

 The electronic state is 2-SG.
 Alpha  occ. eigenvalues -- -100.75073  -9.21116  -7.04399  -7.02284  -7.02284
 Alpha  occ. eigenvalues --   -0.75601  -0.45454  -0.32326  -0.29654  -0.29654
 Alpha virt. eigenvalues --    0.07131   0.32564   0.39884   0.39884   0.42169
 Alpha virt. eigenvalues --    0.59391   0.74822   0.74822   0.79239   0.79239
 Alpha virt. eigenvalues --    0.87193   1.07572
  Beta  occ. eigenvalues -- -100.74579  -9.20628  -7.03013  -7.01983  -7.01983
  Beta  occ. eigenvalues --   -0.72222  -0.43257  -0.28406  -0.28406
  Beta virt. eigenvalues --   -0.26568   0.08743   0.34679   0.40548   0.40548
  Beta virt. eigenvalues --    0.45431   0.62486   0.79643   0.79643   0.79945
  Beta virt. eigenvalues --    0.79945   0.91960   1.09096

 Mulliken charges and spin densities:
               1          2
     1  H   -0.040542  -0.034671
     2  Cl  -0.072469   0.836518
     3  H    0.113011   0.198153
 Sum of Mulliken charges =  -0.00000   1.00000

 Dipole moment (field-independent basis, Debye):
    X=              0.0000    Y=              0.0000    Z=             -1.1218  Tot=              1.1218
 Quadrupole moment (field-independent basis, Debye-Ang):
   XX=            -15.0568   YY=            -15.0568   ZZ=            -10.2266
   XY=              0.0000   XZ=              0.0000   YZ=              0.0000

  Exact polarizability:   5.869   0.000   5.869  -0.000   0.000  30.266
 Approx polarizability:   7.571  -0.000   7.571  -0.000   0.000  51.425

                      1                      2                      3
                     PI                     PI                     SG
 Frequencies --    293.5162               293.5162               302.5768
 Red. masses --      1.0094                 1.0094                 1.0640
 Frc consts  --      0.0512                 0.0512                 0.0574
 IR Inten    --      2.7470                 2.7470                43.8320

                      4
                     SG
 Frequencies --   3730.1109
 Red. masses --      1.0079
 Frc consts  --      8.2626
 IR Inten    --    356.4476

 - Thermochemistry -
 -------------------
 Temperature   298.150 Kelvin.  Pressure   1.00000 Atm.
 Atom     1 has atomic number  1 and mass   1.00783

 Molecular mass:    36.98450 amu.
 Principal axes and moments of inertia in atomic units:
                           1         2         3
     Eigenvalues --     0.00000  38.20400  38.20400
           X            0.00000   0.00000   1.00000
           Y            0.00000   1.00000   0.00000
           Z            1.00000   0.00000   0.00000
 This molecule is a prolate symmetric top.
 Rotational symmetry number  1.
 Rotational temperature (Kelvin)      2.26714
 Rotational constant (GHZ):          47.239583
 Zero-point vibrational energy      27632.1 (Joules/Mol)
                                    6.60422 (Kcal/Mol)
 Warning -- explicit consideration of   3 degrees of freedom as
           vibrations may cause significant error
 Vibrational temperatures:    422.30   422.30   435.34  5366.80
          (Kelvin)

 Zero-point correction=                           0.010524 (Hartree/Particle)
 Thermal correction to Energy=                    0.014159
 Thermal correction to Enthalpy=                  0.015103
 Thermal correction to Gibbs Free Energy=        -0.010613
 Sum of electronic and zero-point Energies=           -461.320934
 Sum of electronic and thermal Energies=              -461.317300
 Sum of electronic and thermal Enthalpies=            -461.316356
 Sum of electronic and thermal Free Energies=         -461.342072

                     E (Thermal)             CV                S
                      KCal/Mol        Cal/Mol-Kelvin    Cal/Mol-Kelvin
 Total                    8.885             10.008             54.123
 Electronic               0.000              0.000              1.377
 Translational            0.889              2.981             36.753
 Rotational               0.592              1.987             11.683
 Vibrational              7.403              5.040              4.310
 Vibration     1          0.688              1.686              1.454
 Vibration     2          0.688              1.686              1.454
 Vibration     3          0.694              1.669              1.403

 Optimization completed.
    -- Stationary point found.

 1\1\GINC-NODE53\Freq\UBP86\6-31G(d)\Cl1H2(2)\RPEVERATI\07-Oct-2020\0\\
 #P Freq BP86/6-31G* 5D 7F Integral=UltraFineGrid SCF=(NoSymm,XQC,MaxCy
 c=120) IOp(1/33=1) Geom=Check Guess=Read\\TS search on BH76.\\0,2\H,0.
 ,0.,-1.4729874548\Cl,0.,0.,0.4727818725\H,0.,0.,-2.2518312704\\Version
 =ES64L-G16RevA.03\State=2-SG\HF=-461.3314586\S2=0.752301\S2-1=0.\S2A=0
 .750003\RMSD=1.344e-09\RMSF=6.637e-05\ZeroPoint=0.0105245\Thermal=0.01
 41585\Dipole=0.,0.,-0.4413547\DipoleDeriv=-0.0033139,0.,0.,0.,-0.00331
 39,0.,0.,0.,-0.5639809,-0.0847905,0.,0.,0.,-0.0847905,0.,0.,0.,0.25768

 Normal termination of Gaussian 16 at Wed Oct  7 13:22:22 2020.
