 Gaussian 16, Revision A.03,

 ----------------------------------------------------------------------
 #P Opt(TS,MaxCyc=50,NoEigenTest,MaxStep=10,AddRedundant) BP86/6-31G* 5
 D 7F Integral=UltraFineGrid SCF=(NoSymm,XQC,MaxCyc=120) IOp(1/33=1)
 ----------------------------------------------------------------------

 TstMul:  Mul=     2
 TstMul:  ICh=     0
 TstMul:  Mul=     2
 Symbolic Z-matrix:
 Charge =  0 Multiplicity = 2

 SCF Done:  E(UB-P86) =  -76.8933971983     A.U. after   13 cycles
 SCF Done:  E(UB-P86) =  -76.8934051973     A.U. after    9 cycles
 SCF Done:  E(UB-P86) =  -76.8934470625     A.U. after    9 cycles
 SCF Done:  E(UB-P86) =  -76.8931697121     A.U. after   12 cycles
 SCF Done:  E(UB-P86) =  -76.8930905287     A.U. after   11 cycles
 SCF Done:  E(UB-P86) =  -76.8930208577     A.U. after   12 cycles
 SCF Done:  E(UB-P86) =  -76.8929140651     A.U. after   11 cycles
 SCF Done:  E(UB-P86) =  -76.8928360236     A.U. after   11 cycles
 SCF Done:  E(UB-P86) =  -76.8927669828     A.U. after   12 cycles
 SCF Done:  E(UB-P86) =  -76.8926995191     A.U. after   15 cycles
 SCF Done:  E(UB-P86) =  -76.8927105250     A.U. after   16 cycles
 SCF Done:  E(UB-P86) =  -76.8926812938     A.U. after   15 cycles
 SCF Done:  E(UB-P86) =  -76.8926776022     A.U. after   11 cycles
 SCF Done:  E(UB-P86) =  -76.8926742245     A.U. after   10 cycles
 SCF Done:  E(UB-P86) =  -76.8926623325     A.U. after   11 cycles
 SCF Done:  E(UB-P86) =  -76.8926574258     A.U. after   11 cycles
 SCF Done:  E(UB-P86) =  -76.8926524138     A.U. after   15 cycles
 SCF Done:  E(UB-P86) =  -76.8926451432     A.U. after   10 cycles
 SCF Done:  E(UB-P86) =  -76.8926377060     A.U. after   11 cycles
 Optimization completed.
    -- Stationary point found.
 Normal termination of Gaussian 16 at Wed Oct  7 13:24:13 2020.
 Gaussian 16:  ES64L-G16RevA.03 25-Dec-2016

 ----------------------------------------------------------------------
 #P Freq BP86/6-31G* 5D 7F Integral=UltraFineGrid SCF=(NoSymm,XQC,MaxCy
 c=120) IOp(1/33=1) Geom=Check Guess=Read
 ----------------------------------------------------------------------

 TstMul:  Mul=     2
 TstMul:  ICh=     0
 TstMul:  Mul=     2
 Structure from the checkpoint file:  "MN_79_RKT02_BH76_BP86_631Gs.chk"
 Charge =  0 Multiplicity = 2

                         Standard orientation:
 ---------------------------------------------------------------------
 Center     Atomic      Atomic             Coordinates (Angstroms)
 Number     Number       Type             X           Y           Z
 ---------------------------------------------------------------------
      1          8           0       -0.363396   -0.111224   -0.007221
      2          1           0       -0.494818    0.871709    0.019222
      3          1           0        1.345398   -0.099544    0.127620
      4          1           0        2.056585    0.117630   -0.089071
 ---------------------------------------------------------------------

 SCF Done:  E(UB-P86) =  -76.8926377060     A.U. after    1 cycles

 The electronic state is 2-A.
 Alpha  occ. eigenvalues --  -18.84052  -0.90713  -0.43007  -0.39680  -0.30569
 Alpha  occ. eigenvalues --   -0.26117
 Alpha virt. eigenvalues --    0.04957   0.11549   0.58548   0.73129   0.79761
 Alpha virt. eigenvalues --    0.82604   0.96298   1.05666   1.25326   1.62752
 Alpha virt. eigenvalues --    1.67308   1.68695   1.72868   2.30401
  Beta  occ. eigenvalues --  -18.81998  -0.85813  -0.40905  -0.37381  -0.24037
  Beta virt. eigenvalues --   -0.20653   0.05798   0.12888   0.59793   0.74689
  Beta virt. eigenvalues --    0.82616   0.85489   1.00044   1.07300   1.28929
  Beta virt. eigenvalues --    1.68154   1.68437   1.74247   1.79108   2.32610

 Mulliken charges and spin densities:
               1          2
     1  O   -0.443182   0.918072
     2  H    0.399469  -0.026069
     3  H    0.050932  -0.039549
     4  H   -0.007219   0.147546
 Sum of Mulliken charges =   0.00000   1.00000

 Dipole moment (field-independent basis, Debye):
    X=              0.0961    Y=              1.6785    Z=              0.0800  Tot=              1.6832
 Quadrupole moment (field-independent basis, Debye-Ang):
   XX=             -6.6889   YY=             -6.4996   ZZ=             -8.4462
   XY=             -0.7327   XZ=             -0.1886   YZ=             -0.0018

  Exact polarizability:  21.159   0.717   7.093  -1.686  -0.462   3.069
 Approx polarizability:  31.224   2.615  10.409  -2.420  -0.679   3.651

                      1                      2                      3
                      A                      A                      A
 Frequencies --     75.0438               341.9227               452.9864
 Red. masses --      1.1174                 1.0182                 1.0325
 Frc consts  --      0.0037                 0.0701                 0.1248
 IR Inten    --     19.8352                 9.3309                61.0602

                      4                      5                      6
                      A                      A                      A
 Frequencies --    666.6092              3525.6760              3827.0559
 Red. masses --      1.0470                 1.0670                 1.0080
 Frc consts  --      0.2741                 7.8143                 8.6988
 IR Inten    --     75.3395                 4.1884                34.7196

 - Thermochemistry -
 -------------------
 Temperature   298.150 Kelvin.  Pressure   1.00000 Atm.
 Atom     1 has atomic number  8 and mass  15.99491

 Molecular mass:    19.01839 amu.
 Principal axes and moments of inertia in atomic units:
                           1         2         3
     Eigenvalues --     3.45386  28.70908  31.98144
           X            0.99965  -0.02644  -0.00143
           Y            0.02644   0.99964  -0.00374
           Z            0.00153   0.00370   0.99999
 This molecule is an asymmetric top.
 Rotational symmetry number  1.
 Rotational temperatures (Kelvin)     25.07742     3.01695     2.70826
 Rotational constants (GHZ):         522.52864    62.86308    56.43089
 Zero-point vibrational energy      53169.8 (Joules/Mol)
                                   12.70788 (Kcal/Mol)
 Warning -- explicit consideration of   3 degrees of freedom as
           vibrations may cause significant error
 Vibrational temperatures:    107.97   491.95   651.75   959.10  5072.66
          (Kelvin)           5506.28

 Zero-point correction=                           0.020251 (Hartree/Particle)
 Thermal correction to Energy=                    0.024626
 Thermal correction to Enthalpy=                  0.025570
 Thermal correction to Gibbs Free Energy=        -0.002138
 Sum of electronic and zero-point Energies=            -76.872386
 Sum of electronic and thermal Energies=               -76.868012
 Sum of electronic and thermal Enthalpies=             -76.867068
 Sum of electronic and thermal Free Energies=          -76.894775

                     E (Thermal)             CV                S
                      KCal/Mol        Cal/Mol-Kelvin    Cal/Mol-Kelvin
 Total                   15.453             11.768             58.316
 Electronic               0.000              0.000              1.377
 Translational            0.889              2.981             34.771
 Rotational               0.889              2.981             15.813
 Vibrational             13.675              5.806              6.355
 Vibration     1          0.599              1.966              4.016
 Vibration     2          0.721              1.592              1.203
 Vibration     3          0.812              1.354              0.787

                           ! Non-Optimized Parameters !
 Normal termination of Gaussian 16 at Wed Oct  7 13:24:41 2020.
