 Gaussian 16, Revision A.03,
 Gaussian 16:  ES64L-G16RevA.03 25-Dec-2016

 ----------------------------------------------------------------------
 #P Opt(MaxCyc=100) BP86/6-31G* 5D 7F Integral=UltraFineGrid SCF=(NoSym
 m,XQC,MaxCyc=120) IOp(1/33=1)
 ----------------------------------------------------------------------

 TstMul:  Mul=     2
 TstMul:  ICh=     0
 TstMul:  Mul=     2
 Symbolic Z-matrix:
 Charge =  0 Multiplicity = 2

 SCF Done:  E(UB-P86) =  -75.7164874492     A.U. after   11 cycles
 SCF Done:  E(UB-P86) =  -75.7169680901     A.U. after   10 cycles
 SCF Done:  E(UB-P86) =  -75.7169729466     A.U. after    7 cycles
 Optimization completed.
    -- Stationary point found.

                         Standard orientation:
 ---------------------------------------------------------------------
 Center     Atomic      Atomic             Coordinates (Angstroms)
 Number     Number       Type             X           Y           Z
 ---------------------------------------------------------------------
      1          8           0        0.000000    0.000000    0.110325
      2          1           0        0.000000    0.000000   -0.882603
 ---------------------------------------------------------------------

 Unable to determine electronic state:  partially filled degenerate orbitals.
 Alpha  occ. eigenvalues --  -18.84821  -0.91144  -0.40811  -0.34085  -0.26510
 Alpha virt. eigenvalues --    0.04709   0.71496   0.76173   0.81082   0.86605
 Alpha virt. eigenvalues --    1.16688   1.61944   1.67001   1.68173   1.68232
 Alpha virt. eigenvalues --    2.29921
  Beta  occ. eigenvalues --  -18.82571  -0.85613  -0.38595  -0.24186
  Beta virt. eigenvalues --   -0.21034   0.05599   0.72314   0.82735   0.85954
  Beta virt. eigenvalues --    0.88603   1.20926   1.67919   1.68385   1.74248
  Beta virt. eigenvalues --    1.75763   2.32516

 Mulliken charges and spin densities:
               1          2
     1  O   -0.405115   1.030036
     2  H    0.405115  -0.030036
 Sum of Mulliken charges =  -0.00000   1.00000

 Dipole moment (field-independent basis, Debye):
    X=              0.0000    Y=              0.0000    Z=             -1.7376  Tot=              1.7376
 Quadrupole moment (field-independent basis, Debye-Ang):
   XX=             -6.4513   YY=             -5.3128   ZZ=             -4.4305
   XY=             -0.0000   XZ=              0.0000   YZ=             -0.0000

 Normal termination of Gaussian 16 at Wed Oct  7 13:19:23 2020.
