 Gaussian 16, Revision A.03,
 Gaussian 16:  ES64L-G16RevA.03 25-Dec-2016

 ----------------------------------------------------------------------
 #P Opt(MaxCyc=100) BP86/6-31G* 5D 7F Integral=UltraFineGrid SCF=(NoSym
 m,XQC,MaxCyc=120) IOp(1/33=1)
 ----------------------------------------------------------------------

 TstMul:  Mul=     1
 TstMul:  ICh=     0
 TstMul:  Mul=     1
 Symbolic Z-matrix:
 Charge =  0 Multiplicity = 1

 SCF Done:  E(RB-P86) =  -56.5445751674     A.U. after    9 cycles
 SCF Done:  E(RB-P86) =  -56.5452100033     A.U. after    9 cycles
 SCF Done:  E(RB-P86) =  -56.5452917657     A.U. after    8 cycles
 SCF Done:  E(RB-P86) =  -56.5452947419     A.U. after    6 cycles
 Optimization completed.
    -- Stationary point found.

                         Standard orientation:
 ---------------------------------------------------------------------
 Center     Atomic      Atomic             Coordinates (Angstroms)
 Number     Number       Type             X           Y           Z
 ---------------------------------------------------------------------
      1          7           0        0.000000    0.000000    0.122988
      2          1           0        0.000000    0.943424   -0.286971
      3          1           0        0.817029   -0.471712   -0.286971
      4          1           0       -0.817029   -0.471712   -0.286971
 ---------------------------------------------------------------------

 The electronic state is 1-A1.
 Alpha  occ. eigenvalues --  -13.98569  -0.76734  -0.40134  -0.40134  -0.20520
 Alpha virt. eigenvalues --    0.05697   0.13921   0.13921   0.64064   0.64064
 Alpha virt. eigenvalues --    0.67309   0.85351   0.85351   0.86708   1.19203
 Alpha virt. eigenvalues --    1.60319   1.60319   1.85484   2.30836   2.30836

 Mulliken charges:
               1
     1  N   -0.896909
     2  H    0.298970
     3  H    0.298970
     4  H    0.298970
 Sum of Mulliken charges =   0.00000

 Dipole moment (field-independent basis, Debye):
    X=              0.0000    Y=              0.0000    Z=             -1.9314  Tot=              1.9314
 Quadrupole moment (field-independent basis, Debye-Ang):
   XX=             -6.1872   YY=             -6.1872   ZZ=             -8.8003
   XY=             -0.0000   XZ=             -0.0000   YZ=             -0.0000

 Normal termination of Gaussian 16 at Wed Oct  7 13:19:37 2020.
