 Gaussian 16, Revision A.03,
 Gaussian 16:  ES64L-G16RevA.03 25-Dec-2016

 ----------------------------------------------------------------------
 #P BP86/6-31G* 5D 7F Integral=UltraFineGrid SCF=(NoSymm,XQC,MaxCyc=120
 ) IOp(1/33=1) Stable=Opt
 ----------------------------------------------------------------------

 TstMul:  Mul=     3
 TstMul:  ICh=     0
 TstMul:  Mul=     3
 Symbolic Z-matrix:
 Charge =  0 Multiplicity = 3

                         Standard orientation:
 ---------------------------------------------------------------------
 Center     Atomic      Atomic             Coordinates (Angstroms)
 Number     Number       Type             X           Y           Z
 ---------------------------------------------------------------------
      1          8           0        0.000000    0.000000    0.000000
 ---------------------------------------------------------------------

 SCF Done:  E(UB-P86) =  -75.0489649692     A.U. after   22 cycles

 Unable to determine electronic state:  an orbital has unidentified symmetry.
 Alpha  occ. eigenvalues --  -18.92476  -0.90726  -0.38151  -0.38151  -0.30405
 Alpha virt. eigenvalues --    0.73868   0.73868   0.78611   0.86117   1.60291
 Alpha virt. eigenvalues --    1.60291   1.65264   1.65264   1.67069
  Beta  occ. eigenvalues --  -18.87925  -0.78064  -0.25933
  Beta virt. eigenvalues --   -0.22131  -0.22131   0.81650   0.85292   0.85292
  Beta virt. eigenvalues --    0.94846   1.71989   1.71990   1.73393   1.74448
  Beta virt. eigenvalues --    1.74448

 Mulliken charges and spin densities:
               1          2
     1  O   -0.000000   2.000000
 Sum of Mulliken charges =  -0.00000   2.00000

 Dipole moment (field-independent basis, Debye):
    X=             -0.0000    Y=              0.0000    Z=              0.0000  Tot=              0.0000
 Quadrupole moment (field-independent basis, Debye-Ang):
   XX=             -4.5611   YY=             -5.6662   ZZ=             -4.5619
   XY=             -0.0000   XZ=             -0.0000   YZ=              0.0291

 Normal termination of Gaussian 16 at Wed Oct  7 13:18:55 2020.
