 Gaussian 16, Revision A.03,
 Gaussian 16:  ES64L-G16RevA.03 25-Dec-2016

 ----------------------------------------------------------------------
 #P Opt(MaxCyc=100) BP86/6-31G* 5D 7F Integral=UltraFineGrid SCF=(NoSym
 m,XQC,MaxCyc=120) IOp(1/33=1)
 ----------------------------------------------------------------------

 TstMul:  Mul=     1
 TstMul:  ICh=     0
 TstMul:  Mul=     1
 Symbolic Z-matrix:
 Charge =  0 Multiplicity = 1

 SCF Done:  E(RB-P86) =  -343.151546147     A.U. after   10 cycles
 SCF Done:  E(RB-P86) =  -343.152255572     A.U. after    9 cycles
 SCF Done:  E(RB-P86) =  -343.152270107     A.U. after    7 cycles
 Optimization completed.
    -- Stationary point found.

                         Standard orientation:
 ---------------------------------------------------------------------
 Center     Atomic      Atomic             Coordinates (Angstroms)
 Number     Number       Type             X           Y           Z
 ---------------------------------------------------------------------
      1         15           0        0.000000    0.000000    0.131917
      2          1           0        0.000000    1.199161   -0.659586
      3          1           0        1.038504   -0.599581   -0.659586
      4          1           0       -1.038504   -0.599581   -0.659586
 ---------------------------------------------------------------------

 The electronic state is 1-A1.
 Alpha  occ. eigenvalues --  -76.35061  -6.31344  -4.53050  -4.53050  -4.52578
 Alpha  occ. eigenvalues --   -0.59005  -0.34794  -0.34794  -0.24627
 Alpha virt. eigenvalues --   -0.00009  -0.00009   0.08020   0.25468   0.25468
 Alpha virt. eigenvalues --    0.27433   0.36309   0.60623   0.60623   0.62455
 Alpha virt. eigenvalues --    0.63604   0.63604   0.87841   1.06718   1.06718

 Mulliken charges:
               1
     1  P   -0.142060
     2  H    0.047353
     3  H    0.047353
     4  H    0.047353
 Sum of Mulliken charges =   0.00000

 Dipole moment (field-independent basis, Debye):
    X=              0.0000    Y=              0.0000    Z=             -1.0199  Tot=              1.0199
 Quadrupole moment (field-independent basis, Debye-Ang):
   XX=            -14.6489   YY=            -14.6489   ZZ=            -16.9384
   XY=             -0.0000   XZ=             -0.0000   YZ=             -0.0000

 Normal termination of Gaussian 16 at Wed Oct  7 13:19:47 2020.
