 Gaussian 16, Revision A.03,

 ----------------------------------------------------------------------
 #P Opt(TS,MaxCyc=50,NoEigenTest,MaxStep=10,AddRedundant) BP86/6-31G* 5
 D 7F Integral=UltraFineGrid SCF=(NoSymm,XQC,MaxCyc=120) IOp(1/33=1)
 ----------------------------------------------------------------------

 TstMul:  Mul=     2
 TstMul:  ICh=     0
 TstMul:  Mul=     2
 Symbolic Z-matrix:
 Charge =  0 Multiplicity = 2

 SCF Done:  E(UB-P86) =  -343.654933010     A.U. after   12 cycles
 SCF Done:  E(UB-P86) =  -343.655002082     A.U. after    9 cycles
 SCF Done:  E(UB-P86) =  -343.654968046     A.U. after   10 cycles
 SCF Done:  E(UB-P86) =  -343.654286495     A.U. after   12 cycles
 SCF Done:  E(UB-P86) =  -343.653800304     A.U. after   12 cycles
 SCF Done:  E(UB-P86) =  -343.653400170     A.U. after   12 cycles
 SCF Done:  E(UB-P86) =  -343.653050009     A.U. after   12 cycles
 SCF Done:  E(UB-P86) =  -343.652712861     A.U. after   12 cycles
 SCF Done:  E(UB-P86) =  -343.652408485     A.U. after   12 cycles
 SCF Done:  E(UB-P86) =  -343.652158272     A.U. after   11 cycles
 SCF Done:  E(UB-P86) =  -343.650338281     A.U. after    8 cycles
 SCF Done:  E(UB-P86) =  -343.650333405     A.U. after    8 cycles
 SCF Done:  E(UB-P86) =  -343.650329595     A.U. after    8 cycles
 SCF Done:  E(UB-P86) =  -343.650326821     A.U. after    9 cycles
 SCF Done:  E(UB-P86) =  -343.650325195     A.U. after   10 cycles
 SCF Done:  E(UB-P86) =  -343.650324731     A.U. after   10 cycles
 SCF Done:  E(UB-P86) =  -343.650324749     A.U. after    5 cycles
 SCF Done:  E(UB-P86) =  -343.650324772     A.U. after    5 cycles
 SCF Done:  E(UB-P86) =  -343.650324797     A.U. after    5 cycles
 Optimization completed.
    -- Stationary point found.
 Normal termination of Gaussian 16 at Wed Oct  7 13:30:02 2020.
 Gaussian 16:  ES64L-G16RevA.03 25-Dec-2016

 ----------------------------------------------------------------------
 #P Freq BP86/6-31G* 5D 7F Integral=UltraFineGrid SCF=(NoSymm,XQC,MaxCy
 c=120) IOp(1/33=1) Geom=Check Guess=Read
 ----------------------------------------------------------------------

 TstMul:  Mul=     2
 TstMul:  ICh=     0
 TstMul:  Mul=     2
 Structure from the checkpoint file:  "MN_88_RKT12_BH76_BP86_631Gs.chk"
 Charge =  0 Multiplicity = 2

                         Standard orientation:
 ---------------------------------------------------------------------
 Center     Atomic      Atomic             Coordinates (Angstroms)
 Number     Number       Type             X           Y           Z
 ---------------------------------------------------------------------
      1         15           0        0.347429   -0.000000   -0.104260
      2          1           0        0.288881    1.044658    0.880411
      3          1           0        0.305685   -1.031978    0.894537
      4          1           0       -1.079789   -0.012676   -0.269267
      5          1           0       -4.726217    0.000001    0.058225
 ---------------------------------------------------------------------

 SCF Done:  E(UB-P86) =  -343.650324797     A.U. after    1 cycles

 The electronic state is 2-A.
 Alpha  occ. eigenvalues --  -76.35054  -6.31338  -4.53044  -4.53044  -4.52572
 Alpha  occ. eigenvalues --   -0.59003  -0.34789  -0.34788  -0.27552  -0.24622
 Alpha virt. eigenvalues --   -0.00005   0.00008   0.08040   0.25473   0.25473
 Alpha virt. eigenvalues --    0.27439   0.36329   0.60602   0.60625   0.62382
 Alpha virt. eigenvalues --    0.62549   0.63607   0.67424   0.88088   1.06724

  Beta  occ. eigenvalues --  -76.35054  -6.31338  -4.53044  -4.53043  -4.52571
  Beta  occ. eigenvalues --   -0.59001  -0.34791  -0.34789  -0.24626
  Beta virt. eigenvalues --   -0.06325  -0.00006   0.00027   0.08041   0.25472
  Beta virt. eigenvalues --    0.25478   0.27437   0.36318   0.60626   0.60630
  Beta virt. eigenvalues --    0.62455   0.63498   0.63606   0.86890   0.91248

 Mulliken charges and spin densities:
               1          2
     1  P   -0.142286   0.001420
     2  H    0.047313   0.000028
     3  H    0.047313   0.000028
     4  H    0.047401  -0.000958
     5  H    0.000257   0.999482
 Sum of Mulliken charges =   0.00000   1.00000

 Dipole moment (field-independent basis, Debye):
    X=             -0.6616    Y=              0.0000    Z=              0.7810  Tot=              1.0236
 Quadrupole moment (field-independent basis, Debye-Ang):
   XX=            -17.1945   YY=            -15.9394   ZZ=            -17.2859
   XY=             -0.0000   XZ=              1.3324   YZ=             -0.0000

  Exact polarizability:  21.160  -0.000  22.062   1.421   0.000  20.361
 Approx polarizability:  34.988  -0.000  38.294   4.282  -0.000  33.179

 ******    1 imaginary frequencies (negative Signs) ******

                      1                      2                      3
                      A                      A                      A
 Frequencies --    -50.7621                 8.1698                14.2857
 Red. masses --      1.0438                 1.0137                 1.0193
 Frc consts  --      0.0016                 0.0000                 0.0001
 IR Inten    --      0.4033                 5.3689                 8.2368

                      4                      5                      6
                      A                      A                      A
 Frequencies --   1018.2272              1130.8879              1131.0184
 Red. masses --      1.0747                 1.0248                 1.0249
 Frc consts  --      0.6565                 0.7722                 0.7724
 IR Inten    --     22.1527                10.7941                10.8488

                      7                      8                      9
                      A                      A                      A
 Frequencies --   2328.1228              2347.6826              2348.3605
 Red. masses --      1.0324                 1.0405                 1.0404
 Frc consts  --      3.2969                 3.3787                 3.3806
 IR Inten    --     54.4845               106.7188               107.7436

 - Thermochemistry -
 -------------------
 Temperature   298.150 Kelvin.  Pressure   1.00000 Atm.
 Atom     1 has atomic number 15 and mass  30.97376

 Molecular mass:    35.00506 amu.
 Principal axes and moments of inertia in atomic units:
                           1         2         3
     Eigenvalues --    14.61316 102.34598 103.25499
           X            0.99992   0.00000   0.01266
           Y           -0.00000   1.00000  -0.00000
           Z           -0.01266   0.00000   0.99992
 This molecule is an asymmetric top.
 Rotational symmetry number  1.
 Rotational temperatures (Kelvin)      5.92712     0.84629     0.83884
 Rotational constants (GHZ):         123.50112    17.63373    17.47849
    1 imaginary frequencies ignored.
 Zero-point vibrational energy      61767.7 (Joules/Mol)
                                   14.76284 (Kcal/Mol)
 Warning -- explicit consideration of   2 degrees of freedom as
           vibrations may cause significant error
 Vibrational temperatures:     11.75    20.55  1465.00  1627.10  1627.28
          (Kelvin)           3349.65  3377.79  3378.77

 Zero-point correction=                           0.023526 (Hartree/Particle)
 Thermal correction to Energy=                    0.028275
 Thermal correction to Enthalpy=                  0.029219
 Thermal correction to Gibbs Free Energy=        -0.005728
 Sum of electronic and zero-point Energies=           -343.626799
 Sum of electronic and thermal Energies=              -343.622050
 Sum of electronic and thermal Enthalpies=            -343.621105
 Sum of electronic and thermal Free Energies=         -343.656053

                     E (Thermal)             CV                S
                      KCal/Mol        Cal/Mol-Kelvin    Cal/Mol-Kelvin
 Total                   17.743             10.811             73.553
 Electronic               0.000              0.000              1.377
 Translational            0.889              2.981             36.589
 Rotational               0.889              2.981             19.674
 Vibrational             15.966              4.850             15.913
 Vibration     1          0.593              1.987              8.413
 Vibration     2          0.593              1.986              7.302

                           ! Non-Optimized Parameters !
 Normal termination of Gaussian 16 at Wed Oct  7 13:30:25 2020.
