 Gaussian 16, Revision A.03,

 ----------------------------------------------------------------------
 #P Opt(TS,MaxCyc=50,NoEigenTest,MaxStep=10,AddRedundant) BP86/6-31G* 5
 D 7F Integral=UltraFineGrid SCF=(NoSymm,XQC,MaxCyc=120) IOp(1/33=1)
 ----------------------------------------------------------------------

 TstMul:  Mul=     2
 TstMul:  ICh=     0
 TstMul:  Mul=     2
 Symbolic Z-matrix:
 Charge =  0 Multiplicity = 2

 SCF Done:  E(UB-P86) =  -132.280795147     A.U. after   16 cycles
 SCF Done:  E(UB-P86) =  -132.280840811     A.U. after   11 cycles
 SCF Done:  E(UB-P86) =  -132.280830312     A.U. after   11 cycles
 SCF Done:  E(UB-P86) =  -132.281089247     A.U. after   13 cycles
 SCF Done:  E(UB-P86) =  -132.281507750     A.U. after   13 cycles
 SCF Done:  E(UB-P86) =  -132.281937173     A.U. after   14 cycles
 SCF Done:  E(UB-P86) =  -132.282069657     A.U. after   14 cycles
 SCF Done:  E(UB-P86) =  -132.281909457     A.U. after   14 cycles
 SCF Done:  E(UB-P86) =  -132.281755222     A.U. after   14 cycles
 SCF Done:  E(UB-P86) =  -132.281407301     A.U. after   15 cycles
 SCF Done:  E(UB-P86) =  -132.281270174     A.U. after   11 cycles
 SCF Done:  E(UB-P86) =  -132.281274042     A.U. after   12 cycles
 SCF Done:  E(UB-P86) =  -132.281277570     A.U. after   10 cycles
 SCF Done:  E(UB-P86) =  -132.281282881     A.U. after   13 cycles
 SCF Done:  E(UB-P86) =  -132.281285453     A.U. after   10 cycles
 SCF Done:  E(UB-P86) =  -132.281287648     A.U. after   10 cycles
 SCF Done:  E(UB-P86) =  -132.281289212     A.U. after   11 cycles
 SCF Done:  E(UB-P86) =  -132.281289279     A.U. after   10 cycles
 SCF Done:  E(UB-P86) =  -132.281289401     A.U. after    9 cycles
 Optimization completed.
    -- Stationary point found.

 1\1\GINC-NODE40\FTS\UBP86\6-31G(d)\H4N1O1(2)\RPEVERATI\07-Oct-2020\0\\
 #P Opt(TS,MaxCyc=50,NoEigenTest,MaxStep=10,AddRedundant) BP86/6-31G* 5
 D 7F Integral=UltraFineGrid SCF=(NoSymm,XQC,MaxCyc=120) IOp(1/33=1)\\T
 S search on BH76.\\0,2\N,-1.186046704,-0.0902973778,-0.070305409\O,1.2
 632682993,0.1055334087,-0.2003573871\H,-1.1968166603,-0.4330411386,0.8
 981443994\H,-1.3556534731,0.9228326889,-0.0534930751\H,-0.2266126818,-
 0.2688062654,-0.4847629404\H,1.3524540406,0.6762370965,0.5981579875\\V
 ersion=ES64L-G16RevA.03\State=2-A\HF=-132.2812894\S2=0.752772\S2-1=0.\

 Normal termination of Gaussian 16 at Wed Oct  7 13:25:40 2020.
 Gaussian 16:  ES64L-G16RevA.03 25-Dec-2016

 ----------------------------------------------------------------------
 #P Freq BP86/6-31G* 5D 7F Integral=UltraFineGrid SCF=(NoSymm,XQC,MaxCy
 c=120) IOp(1/33=1) Geom=Check Guess=Read
 ----------------------------------------------------------------------

 TstMul:  Mul=     2
 TstMul:  ICh=     0
 TstMul:  Mul=     2
 Structure from the checkpoint file:  "MN_83_RKT07_BH76_BP86_631Gs.chk"
 Charge =  0 Multiplicity = 2

                         Standard orientation:
 ---------------------------------------------------------------------
 Center     Atomic      Atomic             Coordinates (Angstroms)
 Number     Number       Type             X           Y           Z
 ---------------------------------------------------------------------
      1          7           0       -1.211219   -0.096733    0.000025
      2          8           0        1.249324   -0.085099    0.000010
      3          1           0       -1.303218    0.499116    0.831882
      4          1           0       -1.303127    0.498584   -0.832220
      5          1           0       -0.246386   -0.536336    0.000228
      6          1           0        1.336677    0.896559   -0.000143
 ---------------------------------------------------------------------

 SCF Done:  E(UB-P86) =  -132.281289401     A.U. after    1 cycles

 The electronic state is 2-A.
 Alpha  occ. eigenvalues --  -18.78802 -14.03441  -0.86943  -0.79887  -0.45238
 Alpha  occ. eigenvalues --   -0.44469  -0.36384  -0.29096  -0.23505  -0.22314
 Alpha virt. eigenvalues --    0.03719   0.08959   0.11503   0.20952   0.58197
 Alpha virt. eigenvalues --    0.60875   0.62391   0.73770   0.77598   0.82178
 Alpha virt. eigenvalues --    0.85871   0.86183   0.92738   1.03878   1.18482

  Beta  occ. eigenvalues --  -18.77248 -14.02796  -0.83606  -0.78306  -0.44197
  Beta  occ. eigenvalues --   -0.44044  -0.34906  -0.24854  -0.20757
  Beta virt. eigenvalues --   -0.17277   0.04245   0.09482   0.11687   0.21646
  Beta virt. eigenvalues --    0.59703   0.61118   0.64286   0.74358   0.79833
  Beta virt. eigenvalues --    0.82523   0.86413   0.87242   0.94893   1.06636

 Mulliken charges and spin densities:
               1          2
     1  N   -0.827695   0.356878
     2  O   -0.605890   0.701610
     3  H    0.326446  -0.010896
     4  H    0.326452  -0.010896
     5  H    0.407363  -0.017109
     6  H    0.373325  -0.019586
 Sum of Mulliken charges =   0.00000   1.00000

 Dipole moment (field-independent basis, Debye):
    X=             -1.0478    Y=              2.6763    Z=             -0.0005  Tot=              2.8741
 Quadrupole moment (field-independent basis, Debye-Ang):
   XX=            -15.2308   YY=            -11.7414   ZZ=            -12.3487
   XY=             -0.2654   XZ=              0.0004   YZ=              0.0000

  Exact polarizability:  42.583   1.599  13.852  -0.000  -0.000  11.730
 Approx polarizability: 130.443   3.872  20.243  -0.001  -0.000  15.843

 ******    1 imaginary frequencies (negative Signs) ******

                      1                      2                      3
                      A                      A                      A
 Frequencies --   -297.2552               297.1776               339.8368
 Red. masses --      1.0825                 2.3546                 1.2640
 Frc consts  --      0.0564                 0.1225                 0.0860
 IR Inten    --     65.9313                 4.6941                62.6996

                      4                      5                      6
                      A                      A                      A
 Frequencies --    409.9411               602.7383              1005.5418
 Red. masses --      1.0131                 1.1692                 1.1937
 Frc consts  --      0.1003                 0.2503                 0.7111
 IR Inten    --     19.5282               155.2040               293.0624

                      7                      8                      9
                      A                      A                      A
 Frequencies --   1529.7107              1651.1474              2866.1337
 Red. masses --      1.0702                 1.0709                 1.0630
 Frc consts  --      1.4755                 1.7201                 5.1448
 IR Inten    --     35.8665                19.7387                60.6675

                     10                     11                     12
                      A                      A                      A
 Frequencies --   3416.3235              3510.5858              3585.0822
 Red. masses --      1.0554                 1.0916                 1.0670
 Frc consts  --      7.2575                 7.9263                 8.0797
 IR Inten    --      5.8073                 3.4140                 8.4801

 - Thermochemistry -
 -------------------
 Temperature   298.150 Kelvin.  Pressure   1.00000 Atm.
 Atom     1 has atomic number  7 and mass  14.00307

 Molecular mass:    34.02929 amu.
 Principal axes and moments of inertia in atomic units:
                           1         2         3
     Eigenvalues --    11.39376 186.13494 187.56219
           X            1.00000  -0.00061   0.00000
           Y            0.00061   1.00000   0.00003
           Z           -0.00000  -0.00003   1.00000
 This molecule is an asymmetric top.
 Rotational symmetry number  1.
 Rotational temperatures (Kelvin)      7.60187     0.46533     0.46179
 Rotational constants (GHZ):         158.39734     9.69588     9.62209
    1 imaginary frequencies ignored.
 Zero-point vibrational energy     114926.6 (Joules/Mol)
                                   27.46811 (Kcal/Mol)
 Warning -- explicit consideration of   4 degrees of freedom as
           vibrations may cause significant error
 Vibrational temperatures:    427.57   488.95   589.81   867.21  1446.75
          (Kelvin)           2200.91  2375.63  4123.73  4915.33  5050.95
                             5158.13

 Zero-point correction=                           0.043773 (Hartree/Particle)
 Thermal correction to Energy=                    0.047903
 Thermal correction to Enthalpy=                  0.048848
 Thermal correction to Gibbs Free Energy=         0.019094
 Sum of electronic and zero-point Energies=           -132.237516
 Sum of electronic and thermal Energies=              -132.233386
 Sum of electronic and thermal Enthalpies=            -132.232442
 Sum of electronic and thermal Free Energies=         -132.262195

                     E (Thermal)             CV                S
                      KCal/Mol        Cal/Mol-Kelvin    Cal/Mol-Kelvin
 Total                   30.060             12.194             62.622
 Electronic               0.000              0.000              1.377
 Translational            0.889              2.981             36.505
 Rotational               0.889              2.981             20.614
 Vibrational             28.282              6.232              4.126
 Vibration     1          0.691              1.679              1.433
 Vibration     2          0.720              1.596              1.213
 Vibration     3          0.774              1.449              0.927
 Vibration     4          0.961              1.026              0.445

 Optimization completed.
    -- Stationary point found.
 Normal termination of Gaussian 16 at Wed Oct  7 13:26:12 2020.
