 Gaussian 16, Revision A.03,

 ----------------------------------------------------------------------
 #P Opt(TS,MaxCyc=50,NoEigenTest,MaxStep=10,AddRedundant) BP86/6-31G* 5
 D 7F Integral=UltraFineGrid SCF=(NoSymm,XQC,MaxCyc=120) IOp(1/33=1)
 ----------------------------------------------------------------------

 TstMul:  Mul=     3
 TstMul:  ICh=     0
 TstMul:  Mul=     3
 Symbolic Z-matrix:
 Charge =  0 Multiplicity = 3

 SCF Done:  E(UB-P86) =  -76.2159532591     A.U. after   12 cycles
 SCF Done:  E(UB-P86) =  -76.2159723530     A.U. after   10 cycles
 SCF Done:  E(UB-P86) =  -76.2159741942     A.U. after   10 cycles
 SCF Done:  E(UB-P86) =  -76.2162712124     A.U. after   11 cycles
 SCF Done:  E(UB-P86) =  -76.2159619975     A.U. after   11 cycles
 SCF Done:  E(UB-P86) =  -76.2157216517     A.U. after   11 cycles
 SCF Done:  E(UB-P86) =  -76.2155960202     A.U. after   11 cycles
 SCF Done:  E(UB-P86) =  -76.2157542849     A.U. after   11 cycles
 SCF Done:  E(UB-P86) =  -76.2157504979     A.U. after    9 cycles
 SCF Done:  E(UB-P86) =  -76.2157487329     A.U. after    9 cycles
 Optimization completed.
    -- Stationary point found.
 Normal termination of Gaussian 16 at Wed Oct  7 13:21:38 2020.
 Gaussian 16:  ES64L-G16RevA.03 25-Dec-2016

 ----------------------------------------------------------------------
 #P Freq BP86/6-31G* 5D 7F Integral=UltraFineGrid SCF=(NoSymm,XQC,MaxCy
 c=120) IOp(1/33=1) Geom=Check Guess=Read
 ----------------------------------------------------------------------

 TstMul:  Mul=     3
 TstMul:  ICh=     0
 TstMul:  Mul=     3
 Structure from the checkpoint file:  "MN_89_RKT14_BH76_BP86_631Gs.chk"
 Charge =  0 Multiplicity = 3

                         Standard orientation:
 ---------------------------------------------------------------------
 Center     Atomic      Atomic             Coordinates (Angstroms)
 Number     Number       Type             X           Y           Z
 ---------------------------------------------------------------------
      1          1           0        0.000000    0.000000   -0.774885
      2          8           0        0.000000    0.000000    0.327417
      3          1           0        0.000000    0.000000   -1.844451
 ---------------------------------------------------------------------

 SCF Done:  E(UB-P86) =  -76.2157487329     A.U. after    1 cycles

 Unable to determine electronic state:  partially filled degenerate orbitals.
 Alpha  occ. eigenvalues --  -18.87086  -0.91025  -0.46356  -0.35392  -0.28562
 Alpha  occ. eigenvalues --   -0.27784
 Alpha virt. eigenvalues --    0.13923   0.61718   0.69640   0.75100   0.79980
 Alpha virt. eigenvalues --    0.86348   1.31039   1.61022   1.66067   1.67207
 Alpha virt. eigenvalues --    1.67270   2.16801
  Beta  occ. eigenvalues --  -18.83979  -0.83343  -0.41061  -0.24722
  Beta virt. eigenvalues --   -0.21386  -0.18821   0.18075   0.65402   0.77728
  Beta virt. eigenvalues --    0.82060   0.85404   0.90869   1.37263   1.68855
  Beta virt. eigenvalues --    1.69839   1.73541   1.75106   2.21574

 Mulliken charges and spin densities:
               1          2
     1  H    0.275449  -0.062953
     2  O   -0.299004   1.366109
     3  H    0.023555   0.696844
 Sum of Mulliken charges =  -0.00000   2.00000

 Dipole moment (field-independent basis, Debye):
    X=              0.0000    Y=              0.0000    Z=             -1.2882  Tot=              1.2882
 Quadrupole moment (field-independent basis, Debye-Ang):
   XX=             -6.6008   YY=             -7.7360   ZZ=             -6.3191
   XY=              0.0000   XZ=              0.0000   YZ=              0.0000

  Exact polarizability:   2.678   0.000   2.387   0.000   0.000  19.838
 Approx polarizability:   3.644   0.000   2.713   0.000   0.000  33.879

 ******    1 imaginary frequencies (negative Signs) ******

                      1                      2                      3
                     SG                     PI                     PI
 Frequencies --   -521.0344               170.4312               834.2988
 Red. masses --      1.0078                 1.0193                 1.0193
 Frc consts  --      0.1612                 0.0174                 0.4180
 IR Inten    --    159.0881                40.7284                30.3842

                      4
                     SG
 Frequencies --   1596.9447
 Red. masses --      1.1259
 Frc consts  --      1.6917
 IR Inten    --      1.2231

 - Thermochemistry -
 -------------------
 Temperature   298.150 Kelvin.  Pressure   1.00000 Atm.
 Atom     1 has atomic number  1 and mass   1.00783

 Molecular mass:    18.01056 amu.
 Principal axes and moments of inertia in atomic units:
                           1         2         3
     Eigenvalues --     0.00000  19.19066  19.19066
           X            0.00000   0.00000   1.00000
           Y            0.00000   1.00000   0.00000
           Z            1.00000   0.00000   0.00000
 This molecule is a prolate symmetric top.
 Rotational symmetry number  1.
 Rotational temperature (Kelvin)      4.51334
 Rotational constant (GHZ):          94.042683
    1 imaginary frequencies ignored.
 Zero-point vibrational energy      15561.5 (Joules/Mol)
                                    3.71928 (Kcal/Mol)
 Warning -- explicit consideration of   1 degrees of freedom as
           vibrations may cause significant error
 Vibrational temperatures:    245.21  1200.37  2297.65
          (Kelvin)

 Zero-point correction=                           0.005927 (Hartree/Particle)
 Thermal correction to Energy=                    0.008968
 Thermal correction to Enthalpy=                  0.009913
 Thermal correction to Gibbs Free Energy=        -0.013714
 Sum of electronic and zero-point Energies=            -76.209822
 Sum of electronic and thermal Energies=               -76.206780
 Sum of electronic and thermal Enthalpies=             -76.205836
 Sum of electronic and thermal Free Energies=          -76.229462

                     E (Thermal)             CV                S
                      KCal/Mol        Cal/Mol-Kelvin    Cal/Mol-Kelvin
 Total                    5.628              7.496             49.726
 Electronic               0.000              0.000              2.183
 Translational            0.889              2.981             34.608
 Rotational               0.592              1.987             10.315
 Vibrational              4.147              2.528              2.620
 Vibration     1          0.626              1.879              2.431

 Optimization completed.
    -- Stationary point found.
 Normal termination of Gaussian 16 at Wed Oct  7 13:22:00 2020.
