 Gaussian 16, Revision A.03,

 ----------------------------------------------------------------------
 #P Opt(TS,MaxCyc=50,NoEigenTest,MaxStep=10,AddRedundant) BP86/6-31G* 5
 D 7F Integral=UltraFineGrid SCF=(NoSymm,XQC,MaxCyc=120) IOp(1/33=1)
 ----------------------------------------------------------------------

 TstMul:  Mul=     2
 TstMul:  ICh=     0
 TstMul:  Mul=     2
 Symbolic Z-matrix:
 Charge =  0 Multiplicity = 2

 SCF Done:  E(UB-P86) =  -116.230347093     A.U. after   13 cycles
 SCF Done:  E(UB-P86) =  -116.230383039     A.U. after   10 cycles
 SCF Done:  E(UB-P86) =  -116.230360255     A.U. after   10 cycles
 SCF Done:  E(UB-P86) =  -116.230771664     A.U. after   12 cycles
 SCF Done:  E(UB-P86) =  -116.231326516     A.U. after   13 cycles
 SCF Done:  E(UB-P86) =  -116.231357804     A.U. after   12 cycles
 SCF Done:  E(UB-P86) =  -116.231360997     A.U. after   10 cycles
 SCF Done:  E(UB-P86) =  -116.231363056     A.U. after   10 cycles
 SCF Done:  E(UB-P86) =  -116.231363010     A.U. after    9 cycles
 Optimization completed.
    -- Stationary point found.

 1\1\GINC-NODE22\FTS\UBP86\6-31G(d)\C1H5O1(2)\RPEVERATI\07-Oct-2020\0\\
 #P Opt(TS,MaxCyc=50,NoEigenTest,MaxStep=10,AddRedundant) BP86/6-31G* 5
 D 7F Integral=UltraFineGrid SCF=(NoSymm,XQC,MaxCyc=120) IOp(1/33=1)\\T
 S search on BH76.\\0,2\C,-1.2142430044,-0.0008212677,0.0037209777\O,1.
 3314946586,-0.095580741,0.0016297996\H,-0.0032925722,-0.1627765545,0.0
 249371306\H,-1.5663605776,-0.2398790122,1.0175828848\H,-1.4134186428,1
 .0441457237,-0.2742881143\H,-1.5803988426,-0.7095240069,-0.7533501473\
 H,1.4459043718,0.8854558423,-0.0231991129\\Version=ES64L-G16RevA.03\St

 Normal termination of Gaussian 16 at Wed Oct  7 13:21:14 2020.
 Gaussian 16:  ES64L-G16RevA.03 25-Dec-2016

 ----------------------------------------------------------------------
 #P Freq BP86/6-31G* 5D 7F Integral=UltraFineGrid SCF=(NoSymm,XQC,MaxCy
 c=120) IOp(1/33=1) Geom=Check Guess=Read
 ----------------------------------------------------------------------

 TstMul:  Mul=     2
 TstMul:  ICh=     0
 TstMul:  Mul=     2
 Structure from the checkpoint file:  "MN_81_RKT04_BH76_BP86_631Gs.chk"
 Charge =  0 Multiplicity = 2

                         Standard orientation:
 ---------------------------------------------------------------------
 Center     Atomic      Atomic             Coordinates (Angstroms)
 Number     Number       Type             X           Y           Z
 ---------------------------------------------------------------------
      1          6           0       -1.227321    0.008685    0.000109
      2          8           0        1.317366   -0.111045    0.000013
      3          1           0       -0.018059   -0.165662    0.019344
      4          1           0       -1.583750   -0.252158    1.007070
      5          1           0       -1.415704    1.062183   -0.252021
      6          1           0       -1.598917   -0.677239   -0.775076
      7          1           0        1.441429    0.869132   -0.000077
 ---------------------------------------------------------------------

 SCF Done:  E(UB-P86) =  -116.231363010     A.U. after    1 cycles

 The electronic state is 2-A.
 Alpha  occ. eigenvalues --  -18.80060  -9.91900  -0.88556  -0.64467  -0.42632
 Alpha  occ. eigenvalues --   -0.37358  -0.37144  -0.35817  -0.23681  -0.23514
 Alpha virt. eigenvalues --    0.05962   0.09764   0.13001   0.13280   0.23911
 Alpha virt. eigenvalues --    0.47606   0.47747   0.49741   0.73100   0.76351
 Alpha virt. eigenvalues --    0.82347   0.82388   0.84008   0.85793   0.92024

  Beta  occ. eigenvalues --  -18.78531  -9.91291  -0.85128  -0.63006  -0.40469
  Beta  occ. eigenvalues --   -0.36710  -0.36643  -0.33334  -0.22021
  Beta virt. eigenvalues --   -0.17163   0.06526   0.10343   0.13460   0.13754
  Beta virt. eigenvalues --    0.25479   0.48077   0.48189   0.52572   0.74187
  Beta virt. eigenvalues --    0.77256   0.82837   0.82930   0.84887   0.86784

 Mulliken charges and spin densities:
               1          2
     1  C   -0.695916   0.424137
     2  O   -0.592669   0.658001
     3  H    0.332281  -0.042280
     4  H    0.194763  -0.006764
     5  H    0.183218  -0.011610
     6  H    0.197432  -0.005914
     7  H    0.380891  -0.015571
 Sum of Mulliken charges =  -0.00000   1.00000

 Dipole moment (field-independent basis, Debye):
    X=             -1.2712    Y=              1.5124    Z=              0.0045  Tot=              1.9757
 Quadrupole moment (field-independent basis, Debye-Ang):
   XX=            -14.4140   YY=            -12.5843   ZZ=            -14.4521
   XY=              2.5768   XZ=             -0.0041   YZ=              0.0130

  Exact polarizability:  35.479   1.327  18.648  -0.055  -0.006  14.915
 Approx polarizability:  61.089  -0.244  26.840  -0.167  -0.012  19.924

 ******    1 imaginary frequencies (negative Signs) ******

                      1                      2                      3
                      A                      A                      A
 Frequencies --   -442.5835                32.8885               249.6125
 Red. masses --      1.7267                 1.0517                 1.0611
 Frc consts  --      0.1993                 0.0007                 0.0390
 IR Inten    --    104.9342                81.4772                 6.0974

                      4                      5                      6
                      A                      A                      A
 Frequencies --    351.2584               836.7032               999.6478
 Red. masses --      1.0991                 1.1260                 1.9824
 Frc consts  --      0.0799                 0.4645                 1.1671
 IR Inten    --      7.7302                35.3654               297.0369

                      7                      8                      9
                      A                      A                      A
 Frequencies --   1107.6567              1291.1468              1390.7050
 Red. masses --      1.1146                 1.0441                 1.1177
 Frc consts  --      0.8057                 1.0255                 1.2736
 IR Inten    --     45.7910                71.1903                29.7788

                     10                     11                     12
                      A                      A                      A
 Frequencies --   1430.7319              1448.8354              3012.0297
 Red. masses --      1.0555                 1.0187                 1.0236
 Frc consts  --      1.2730                 1.2599                 5.4714
 IR Inten    --      1.9803                 4.5518                 2.2636

                     13                     14                     15
                      A                      A                      A
 Frequencies --   3132.8370              3135.6105              3561.9292
 Red. masses --      1.1066                 1.1072                 1.0665
 Frc consts  --      6.3991                 6.4139                 7.9722
 IR Inten    --     12.1750                10.2136                 7.7926

 - Thermochemistry -
 -------------------
 Temperature   298.150 Kelvin.  Pressure   1.00000 Atm.
 Atom     1 has atomic number  6 and mass  12.00000

 Molecular mass:    33.03404 amu.
 Principal axes and moments of inertia in atomic units:
                           1         2         3
     Eigenvalues --    15.34305 201.66094 204.91980
           X            0.99976   0.02195   0.00001
           Y           -0.02195   0.99976   0.00000
           Z           -0.00001  -0.00000   1.00000
 This molecule is an asymmetric top.
 Rotational symmetry number  1.
 Rotational temperatures (Kelvin)      5.64516     0.42950     0.42267
 Rotational constants (GHZ):         117.62599     8.94938     8.80706
    1 imaginary frequencies ignored.
 Zero-point vibrational energy     131479.1 (Joules/Mol)
                                   31.42426 (Kcal/Mol)
 Warning -- explicit consideration of   3 degrees of freedom as
           vibrations may cause significant error
 Vibrational temperatures:     47.32   359.14   505.38  1203.83  1438.27
          (Kelvin)           1593.67  1857.67  2000.91  2058.50  2084.55
                             4333.64  4507.45  4511.44  5124.82

 Zero-point correction=                           0.050078 (Hartree/Particle)
 Thermal correction to Energy=                    0.054790
 Thermal correction to Enthalpy=                  0.055734
 Thermal correction to Gibbs Free Energy=         0.023509
 Sum of electronic and zero-point Energies=           -116.181285
 Sum of electronic and thermal Energies=              -116.176573
 Sum of electronic and thermal Enthalpies=            -116.175629
 Sum of electronic and thermal Free Energies=         -116.207854

                     E (Thermal)             CV                S
                      KCal/Mol        Cal/Mol-Kelvin    Cal/Mol-Kelvin
 Total                   34.381             12.971             67.823
 Electronic               0.000              0.000              1.377
 Translational            0.889              2.981             36.416
 Rotational               0.889              2.981             21.077
 Vibrational             32.604              7.009              8.952
 Vibration     1          0.594              1.983              5.647
 Vibration     2          0.662              1.763              1.733
 Vibration     3          0.728              1.573              1.161

                           ! Non-Optimized Parameters !
 Normal termination of Gaussian 16 at Wed Oct  7 13:21:48 2020.
