 Gaussian 16, Revision A.03,

 ----------------------------------------------------------------------
 #P Opt(TS,MaxCyc=50,NoEigenTest,MaxStep=10,AddRedundant) BP86/6-31G* 5
 D 7F Integral=UltraFineGrid SCF=(NoSymm,XQC,MaxCyc=120) IOp(1/33=1)
 ----------------------------------------------------------------------

 TstMul:  Mul=     3
 TstMul:  ICh=     0
 TstMul:  Mul=     3
 Symbolic Z-matrix:
 Charge =  0 Multiplicity = 3

 SCF Done:  E(UB-P86) =  -115.553099180     A.U. after   13 cycles
 SCF Done:  E(UB-P86) =  -115.553756507     A.U. after   12 cycles
 SCF Done:  E(UB-P86) =  -115.554050370     A.U. after   11 cycles
 SCF Done:  E(UB-P86) =  -115.553457871     A.U. after   11 cycles
 SCF Done:  E(UB-P86) =  -115.553016632     A.U. after   12 cycles
 SCF Done:  E(UB-P86) =  -115.552781923     A.U. after   11 cycles
 SCF Done:  E(UB-P86) =  -115.552752129     A.U. after   12 cycles
 SCF Done:  E(UB-P86) =  -115.552759067     A.U. after    9 cycles
 SCF Done:  E(UB-P86) =  -115.552759263     A.U. after    9 cycles
 Optimization completed.
    -- Stationary point found.

 1\1\GINC-NODE23\FTS\UBP86\6-31G(d)\C1H4O1(3)\RPEVERATI\07-Oct-2020\0\\
 #P Opt(TS,MaxCyc=50,NoEigenTest,MaxStep=10,AddRedundant) BP86/6-31G* 5
 D 7F Integral=UltraFineGrid SCF=(NoSymm,XQC,MaxCyc=120) IOp(1/33=1)\\T
 S search on BH76.\\0,3\C,0.002818056,-1.1910149985,0.\H,-1.0748806702,
 -1.3964646433,0.\H,0.5317898375,-1.4294155057,0.9302158918\H,0.5317898
 375,-1.4294155057,-0.9302158918\H,0.0102999399,0.2580745149,0.\O,-0.00
 54828686,1.380214929,0.\\Version=ES64L-G16RevA.03\State=3-A'\HF=-115.5
 527593\S2=2.005621\S2-1=0.\S2A=2.000015\RMSD=4.056e-09\RMSF=2.503e-05\

 Normal termination of Gaussian 16 at Wed Oct  7 13:21:25 2020.
 Gaussian 16:  ES64L-G16RevA.03 25-Dec-2016

 ----------------------------------------------------------------------
 #P Freq BP86/6-31G* 5D 7F Integral=UltraFineGrid SCF=(NoSymm,XQC,MaxCy
 c=120) IOp(1/33=1) Geom=Check Guess=Read
 ----------------------------------------------------------------------

 TstMul:  Mul=     3
 TstMul:  ICh=     0
 TstMul:  Mul=     3
 Structure from the checkpoint file:  "MN_87_RKT11_BH76_BP86_631Gs.chk"
 Charge =  0 Multiplicity = 3

                         Standard orientation:
 ---------------------------------------------------------------------
 Center     Atomic      Atomic             Coordinates (Angstroms)
 Number     Number       Type             X           Y           Z
 ---------------------------------------------------------------------
      1          6           0        0.000544   -1.185379    0.000000
      2          1           0       -1.077812   -1.387348    0.000000
      3          1           0        0.528744   -1.425486    0.930216
      4          1           0        0.528744   -1.425486   -0.930216
      5          1           0        0.012704    0.263679   -0.000000
      6          8           0        0.000544    1.385864   -0.000000
 ---------------------------------------------------------------------

 SCF Done:  E(UB-P86) =  -115.552759263     A.U. after    1 cycles

 The electronic state is 3-A'.
 Alpha  occ. eigenvalues --  -18.84034  -9.94091  -0.87954  -0.64990  -0.41336
 Alpha  occ. eigenvalues --   -0.39133  -0.39102  -0.32656  -0.25173  -0.22801
 Alpha virt. eigenvalues --    0.07114   0.12461   0.12566   0.20158   0.46350
 Alpha virt. eigenvalues --    0.46753   0.48486   0.66075   0.79439   0.81218
 Alpha virt. eigenvalues --    0.81955   0.82077   0.84292   0.89106   1.08473

  Beta  occ. eigenvalues --  -18.80961  -9.93071  -0.80378  -0.62412  -0.38332
  Beta  occ. eigenvalues --   -0.38314  -0.36797  -0.22146
  Beta virt. eigenvalues --   -0.18871  -0.15554   0.08123   0.13154   0.13238
  Beta virt. eigenvalues --    0.23293   0.47613   0.47660   0.53795   0.67313
  Beta virt. eigenvalues --    0.82617   0.82734   0.83178   0.86360   0.89470

 Mulliken charges and spin densities:
               1          2
     1  C   -0.651140   0.756348
     2  H    0.206335  -0.021783
     3  H    0.206761  -0.022991
     4  H    0.206761  -0.022991
     5  H    0.404397  -0.040703
     6  O   -0.373114   1.352122
 Sum of Mulliken charges =  -0.00000   2.00000

 Dipole moment (field-independent basis, Debye):
    X=             -0.0001    Y=             -2.2053    Z=             -0.0000  Tot=              2.2053
 Quadrupole moment (field-independent basis, Debye-Ang):
   XX=            -12.3359   YY=            -15.4890   ZZ=            -13.4569
   XY=             -0.0041   XZ=             -0.0000   YZ=              0.0000

  Exact polarizability:  14.714  -0.092  30.190  -0.000  -0.000  14.474
 Approx polarizability:  20.089  -0.141  50.458  -0.000  -0.000  19.220

 ******    1 imaginary frequencies (negative Signs) ******

                      1                      2                      3
                     A'                     A"                     A'
 Frequencies --   -600.1684               254.1873               382.5499
 Red. masses --      1.8166                 1.0524                 1.0684
 Frc consts  --      0.3855                 0.0401                 0.0921
 IR Inten    --     63.1164                13.1928                 3.3203

                      4                      5                      6
                     A'                     A"                     A'
 Frequencies --    709.9611               792.1919              1041.8813
 Red. masses --      1.5719                 1.0642                 1.0540
 Frc consts  --      0.4668                 0.3935                 0.6741
 IR Inten    --      0.4806                43.3455                51.9780

                      7                      8                      9
                     A'                     A'                     A"
 Frequencies --   1287.4980              1400.5667              1407.9918
 Red. masses --      1.3064                 1.0853                 1.0885
 Frc consts  --      1.2759                 1.2543                 1.2713
 IR Inten    --     29.0321                 4.9243                 5.0346

                     10                     11                     12
                     A'                     A'                     A"
 Frequencies --   3029.9819              3178.4719              3186.9151
 Red. masses --      1.0155                 1.1123                 1.1135
 Frc consts  --      5.4933                 6.6205                 6.6633
 IR Inten    --      0.1984                 4.8447                 4.5949

 - Thermochemistry -
 -------------------
 Temperature   298.150 Kelvin.  Pressure   1.00000 Atm.
 Atom     1 has atomic number  6 and mass  12.00000

 Molecular mass:    32.02621 amu.
 Principal axes and moments of inertia in atomic units:
                           1         2         3
     Eigenvalues --    12.42230 196.18688 196.22149
           X           -0.00011   0.00000   1.00000
           Y            1.00000   0.00000   0.00011
           Z            0.00000   1.00000   0.00000
 This molecule is an asymmetric top.
 Rotational symmetry number  1.
 Rotational temperatures (Kelvin)      6.97246     0.44149     0.44141
 Rotational constants (GHZ):         145.28239     9.19909     9.19747
    1 imaginary frequencies ignored.
 Zero-point vibrational energy      99721.9 (Joules/Mol)
                                   23.83410 (Kcal/Mol)
 Warning -- explicit consideration of   2 degrees of freedom as
           vibrations may cause significant error
 Vibrational temperatures:    365.72   550.40  1021.48  1139.79  1499.03
          (Kelvin)           1852.42  2015.10  2025.79  4359.47  4573.11
                             4585.26

 Zero-point correction=                           0.037982 (Hartree/Particle)
 Thermal correction to Energy=                    0.041869
 Thermal correction to Enthalpy=                  0.042813
 Thermal correction to Gibbs Free Energy=         0.013029
 Sum of electronic and zero-point Energies=           -115.514777
 Sum of electronic and thermal Energies=              -115.510890
 Sum of electronic and thermal Enthalpies=            -115.509946
 Sum of electronic and thermal Free Energies=         -115.539730

                     E (Thermal)             CV                S
                      KCal/Mol        Cal/Mol-Kelvin    Cal/Mol-Kelvin
 Total                   26.273             11.396             62.686
 Electronic               0.000              0.000              2.183
 Translational            0.889              2.981             36.324
 Rotational               0.889              2.981             20.797
 Vibrational             24.496              5.434              3.382
 Vibration     1          0.665              1.756              1.701
 Vibration     2          0.752              1.507              1.029

 Optimization completed.
    -- Stationary point found.
 Normal termination of Gaussian 16 at Wed Oct  7 13:21:51 2020.
