 Gaussian 16, Revision A.03,

 ----------------------------------------------------------------------
 #P Opt(TS,MaxCyc=50,NoEigenTest,MaxStep=10,AddRedundant) BP86/6-31G* 5
 D 7F Integral=UltraFineGrid SCF=(NoSymm,XQC,MaxCyc=120) IOp(1/33=1)
 ----------------------------------------------------------------------

 TstMul:  Mul=     2
 TstMul:  ICh=     0
 TstMul:  Mul=     2
 Symbolic Z-matrix:
 Charge =  0 Multiplicity = 2

 SCF Done:  E(UB-P86) =  -100.891047907     A.U. after   14 cycles
 SCF Done:  E(UB-P86) =  -100.890974099     A.U. after   12 cycles
 SCF Done:  E(UB-P86) =  -100.890898366     A.U. after   10 cycles
 SCF Done:  E(UB-P86) =  -100.890888073     A.U. after   12 cycles
 SCF Done:  E(UB-P86) =  -100.891648093     A.U. after   12 cycles
 SCF Done:  E(UB-P86) =  -100.890869883     A.U. after   13 cycles
 SCF Done:  E(UB-P86) =  -100.890415821     A.U. after   13 cycles
 SCF Done:  E(UB-P86) =  -100.889996785     A.U. after   12 cycles
 SCF Done:  E(UB-P86) =  -100.889609740     A.U. after   12 cycles
 SCF Done:  E(UB-P86) =  -100.889267070     A.U. after   12 cycles
 SCF Done:  E(UB-P86) =  -100.888383594     A.U. after   13 cycles
 SCF Done:  E(UB-P86) =  -100.888279070     A.U. after   12 cycles
 SCF Done:  E(UB-P86) =  -100.888215493     A.U. after   12 cycles
 SCF Done:  E(UB-P86) =  -100.888188944     A.U. after   12 cycles
 SCF Done:  E(UB-P86) =  -100.888194952     A.U. after   12 cycles
 SCF Done:  E(UB-P86) =  -100.888222956     A.U. after   12 cycles
 SCF Done:  E(UB-P86) =  -100.888225327     A.U. after   11 cycles
 SCF Done:  E(UB-P86) =  -100.888225319     A.U. after   10 cycles
 SCF Done:  E(UB-P86) =  -100.888224603     A.U. after    9 cycles
 Optimization completed.
    -- Stationary point found.
 Normal termination of Gaussian 16 at Wed Oct  7 13:24:29 2020.
 Gaussian 16:  ES64L-G16RevA.03 25-Dec-2016

 ----------------------------------------------------------------------
 #P Freq BP86/6-31G* 5D 7F Integral=UltraFineGrid SCF=(NoSymm,XQC,MaxCy
 c=120) IOp(1/33=1) Geom=Check Guess=Read
 ----------------------------------------------------------------------

 TstMul:  Mul=     2
 TstMul:  ICh=     0
 TstMul:  Mul=     2
 Structure from the checkpoint file:  "MN_86_RKT10_BH76_BP86_631Gs.chk"
 Charge =  0 Multiplicity = 2

                         Standard orientation:
 ---------------------------------------------------------------------
 Center     Atomic      Atomic             Coordinates (Angstroms)
 Number     Number       Type             X           Y           Z
 ---------------------------------------------------------------------
      1          1           0        0.392981   -1.350952   -0.000000
      2          9           0        0.000000    0.300103    0.000000
      3          1           0       -0.392981   -1.349977   -0.000000
 ---------------------------------------------------------------------

 SCF Done:  E(UB-P86) =  -100.888224603     A.U. after    1 cycles

 The electronic state is 2-A'.
 Alpha  occ. eigenvalues --  -24.30395  -1.04072  -0.48462  -0.32815  -0.32642
 Alpha  occ. eigenvalues --   -0.32125
 Alpha virt. eigenvalues --    0.04048   0.52691   0.95033   1.10747   1.12402
 Alpha virt. eigenvalues --    1.15895   1.33759   1.75333   1.76445   1.78029
 Alpha virt. eigenvalues --    1.79688   1.79711
  Beta  occ. eigenvalues --  -24.28114  -0.98712  -0.43918  -0.30643  -0.29936
  Beta virt. eigenvalues --   -0.23443   0.05587   0.54536   0.97507   1.12153
  Beta virt. eigenvalues --    1.17383   1.19974   1.37406   1.79447   1.80247
  Beta virt. eigenvalues --    1.80268   1.82103   1.82178

 Mulliken charges and spin densities:
               1          2
     1  H    0.084317   0.108589
     2  F   -0.168855   0.783324
     3  H    0.084538   0.108087
 Sum of Mulliken charges =  -0.00000   1.00000

 Dipole moment (field-independent basis, Debye):
    X=             -0.0003    Y=             -1.2478    Z=              0.0000  Tot=              1.2478
 Quadrupole moment (field-independent basis, Debye-Ang):
   XX=             -6.2446   YY=             -4.6222   ZZ=             -6.6802
   XY=             -0.0000   XZ=             -0.0000   YZ=              0.0000

  Exact polarizability:   7.391  -0.006  12.855   0.000   0.000   1.600
 Approx polarizability:  10.281  -0.010  22.956   0.000   0.000   1.914

 ******    1 imaginary frequencies (negative Signs) ******

                      1                      2                      3
                     A'                     A'                     A'
 Frequencies --   -582.1716               577.8048              3818.1213
 Red. masses --      1.0133                 1.1082                 1.0081
 Frc consts  --      0.2023                 0.2180                 8.6586
 IR Inten    --      3.5954                18.6838                95.4770

 - Thermochemistry -
 -------------------
 Temperature   298.150 Kelvin.  Pressure   1.00000 Atm.
 Atom     1 has atomic number  1 and mass   1.00783

 Molecular mass:    21.01405 amu.
 Principal axes and moments of inertia in atomic units:
                           1         2         3
     Eigenvalues --     1.11162  17.72911  18.84073
           X           -0.00008   1.00000   0.00000
           Y            1.00000   0.00008   0.00000
           Z           -0.00000   0.00000   1.00000
 This molecule is an asymmetric top.
 Rotational symmetry number  1.
 Rotational temperatures (Kelvin)     77.91712     4.88541     4.59716
 Rotational constants (GHZ):        1623.52920   101.79534    95.78934
    1 imaginary frequencies ignored.
 Zero-point vibrational energy      26293.5 (Joules/Mol)
                                    6.28429 (Kcal/Mol)
 Warning -- explicit consideration of   1 degrees of freedom as
           vibrations may cause significant error
 Vibrational temperatures:    831.33  5493.42
          (Kelvin)

 Zero-point correction=                           0.010015 (Hartree/Particle)
 Thermal correction to Energy=                    0.013020
 Thermal correction to Enthalpy=                  0.013964
 Thermal correction to Gibbs Free Energy=        -0.010086
 Sum of electronic and zero-point Energies=           -100.878210
 Sum of electronic and thermal Energies=              -100.875205
 Sum of electronic and thermal Enthalpies=            -100.874261
 Sum of electronic and thermal Free Energies=         -100.898310

                     E (Thermal)             CV                S
                      KCal/Mol        Cal/Mol-Kelvin    Cal/Mol-Kelvin
 Total                    8.170              7.041             50.617
 Electronic               0.000              0.000              1.377
 Translational            0.889              2.981             35.068
 Rotational               0.889              2.981             13.682
 Vibrational              6.393              1.079              0.489
 Vibration     1          0.934              1.079              0.489

 Optimization completed.
    -- Stationary point found.
 Normal termination of Gaussian 16 at Wed Oct  7 13:24:57 2020.
