 Gaussian 16, Revision A.03,

 ----------------------------------------------------------------------
 #P Opt(TS,MaxCyc=50,NoEigenTest,MaxStep=10,AddRedundant) BP86/6-31G* 5
 D 7F Integral=UltraFineGrid SCF=(NoSymm,XQC,MaxCyc=120) IOp(1/33=1)
 ----------------------------------------------------------------------

 TstMul:  Mul=     2
 TstMul:  ICh=     0
 TstMul:  Mul=     2
 Symbolic Z-matrix:
 Charge =  0 Multiplicity = 2

 SCF Done:  E(UB-P86) =  -40.9971500573     A.U. after   12 cycles
 SCF Done:  E(UB-P86) =  -40.9976501357     A.U. after   11 cycles
 SCF Done:  E(UB-P86) =  -40.9977898210     A.U. after    9 cycles
 SCF Done:  E(UB-P86) =  -40.9974375774     A.U. after   11 cycles
 SCF Done:  E(UB-P86) =  -40.9973076047     A.U. after   11 cycles
 SCF Done:  E(UB-P86) =  -40.9973224724     A.U. after    9 cycles
 SCF Done:  E(UB-P86) =  -40.9973243828     A.U. after    9 cycles
 SCF Done:  E(UB-P86) =  -40.9973249745     A.U. after    8 cycles
 Optimization completed.
    -- Stationary point found.
 Normal termination of Gaussian 16 at Wed Oct  7 13:20:38 2020.
 Gaussian 16:  ES64L-G16RevA.03 25-Dec-2016

 ----------------------------------------------------------------------
 #P Freq BP86/6-31G* 5D 7F Integral=UltraFineGrid SCF=(NoSymm,XQC,MaxCy
 c=120) IOp(1/33=1) Geom=Check Guess=Read
 ----------------------------------------------------------------------

 TstMul:  Mul=     2
 TstMul:  ICh=     0
 TstMul:  Mul=     2
 Structure from the checkpoint file:  "MN_80_RKT03_BH76_BP86_631Gs.chk"
 Charge =  0 Multiplicity = 2

                         Standard orientation:
 ---------------------------------------------------------------------
 Center     Atomic      Atomic             Coordinates (Angstroms)
 Number     Number       Type             X           Y           Z
 ---------------------------------------------------------------------
      1          6           0        0.000000    0.282949    0.000000
      2          1           0        1.070430    0.519235    0.000000
      3          1           0       -0.535814    0.516728    0.927317
      4          1           0       -0.535814    0.516728   -0.927317
      5          1           0        0.001075   -1.184870    0.000000
      6          1           0        0.000124   -2.065518    0.000000
 ---------------------------------------------------------------------

 SCF Done:  E(UB-P86) =  -40.9973249745     A.U. after    1 cycles

 The electronic state is 2-A'.
 Alpha  occ. eigenvalues --   -9.91932  -0.63118  -0.39473  -0.37004  -0.37002
 Alpha  occ. eigenvalues --   -0.17743
 Alpha virt. eigenvalues --    0.08726   0.14029   0.14029   0.16190   0.48881
 Alpha virt. eigenvalues --    0.48882   0.51110   0.64553   0.83781   0.83782
 Alpha virt. eigenvalues --    0.86257   0.96402   1.14084   1.56569   1.56570

  Beta  occ. eigenvalues --   -9.90900  -0.60817  -0.36696  -0.36259  -0.36258
  Beta virt. eigenvalues --   -0.10892   0.09669   0.14708   0.14708   0.19112
  Beta virt. eigenvalues --    0.49598   0.49599   0.56381   0.67706   0.84472
  Beta virt. eigenvalues --    0.84474   0.88414   0.97378   1.16892   1.61064

 Mulliken charges and spin densities:
               1          2
     1  C   -0.560932   0.747877
     2  H    0.189235  -0.023242
     3  H    0.189253  -0.023250
     4  H    0.189253  -0.023250
     5  H    0.005453  -0.114210
     6  H   -0.012262   0.436076
 Sum of Mulliken charges =  -0.00000   1.00000

 Dipole moment (field-independent basis, Debye):
    X=             -0.0007    Y=              0.7398    Z=             -0.0000  Tot=              0.7398
 Quadrupole moment (field-independent basis, Debye-Ang):
   XX=             -9.2100   YY=            -11.2368   ZZ=             -9.2104
   XY=              0.0026   XZ=              0.0000   YZ=              0.0000

  Exact polarizability:  12.652   0.012  28.870   0.000  -0.000  12.653
 Approx polarizability:  16.800   0.019  43.003  -0.000   0.000  16.801

 ******    1 imaginary frequencies (negative Signs) ******

                      1                      2                      3
                     A'                     A'                     A"
 Frequencies --   -834.6991               541.9019               542.3958
 Red. masses --      1.2019                 1.0465                 1.0465
 Frc consts  --      0.4934                 0.1811                 0.1814
 IR Inten    --      8.0562                 1.2905                 1.2912

                      4                      5                      6
                     A'                     A'                     A"
 Frequencies --   1013.0883              1121.2127              1121.2878
 Red. masses --      1.0816                 1.0403                 1.0404
 Frc consts  --      0.6541                 0.7706                 0.7707
 IR Inten    --     10.9819                 1.3843                 1.3927

                      7                      8                      9
                     A"                     A'                     A'
 Frequencies --   1407.3586              1407.4180              2113.7153
 Red. masses --      1.0804                 1.0805                 1.0425
 Frc consts  --      1.2608                 1.2610                 2.7443
 IR Inten    --      4.0639                 4.0557                50.9554

                     10                     11                     12
                     A'                     A"                     A'
 Frequencies --   3033.3295              3182.6324              3182.7314
 Red. masses --      1.0159                 1.1128                 1.1128
 Frc consts  --      5.5071                 6.6409                 6.6414
 IR Inten    --      0.1092                10.8778                10.8688

 - Thermochemistry -
 -------------------
 Temperature   298.150 Kelvin.  Pressure   1.00000 Atm.
 Atom     1 has atomic number  6 and mass  12.00000

 Molecular mass:    17.03913 amu.
 Principal axes and moments of inertia in atomic units:
                           1         2         3
     Eigenvalues --    12.38004  32.32550  32.32615
           X            0.00010   1.00000   0.00000
           Y            1.00000  -0.00010   0.00000
           Z            0.00000   0.00000   1.00000
 This molecule is an asymmetric top.
 Rotational symmetry number  1.
 Rotational temperatures (Kelvin)      6.99625     2.67943     2.67938
 Rotational constants (GHZ):         145.77825    55.83026    55.82914
    1 imaginary frequencies ignored.
 Zero-point vibrational energy     111653.9 (Joules/Mol)
                                   26.68592 (Kcal/Mol)
 Warning -- explicit consideration of   2 degrees of freedom as
           vibrations may cause significant error
 Vibrational temperatures:    779.68   780.39  1457.61  1613.17  1613.28
          (Kelvin)           2024.88  2024.96  3041.16  4364.28  4579.10
                             4579.24

 Zero-point correction=                           0.042527 (Hartree/Particle)
 Thermal correction to Energy=                    0.045844
 Thermal correction to Enthalpy=                  0.046789
 Thermal correction to Gibbs Free Energy=         0.020946
 Sum of electronic and zero-point Energies=            -40.954798
 Sum of electronic and thermal Energies=               -40.951481
 Sum of electronic and thermal Enthalpies=             -40.950536
 Sum of electronic and thermal Free Energies=          -40.976379

                     E (Thermal)             CV                S
                      KCal/Mol        Cal/Mol-Kelvin    Cal/Mol-Kelvin
 Total                   28.768              9.378             54.391
 Electronic               0.000              0.000              1.377
 Translational            0.889              2.981             34.443
 Rotational               0.889              2.981             17.210
 Vibrational             26.990              3.416              1.360
 Vibration     1          0.897              1.157              0.561
 Vibration     2          0.897              1.156              0.560

                           ! Non-Optimized Parameters !
 Normal termination of Gaussian 16 at Wed Oct  7 13:21:04 2020.
