 Gaussian 16, Revision A.03,

 ----------------------------------------------------------------------
 #P Opt(TS,MaxCyc=50,NoEigenTest,MaxStep=10,AddRedundant) BP86/6-31G* 5
 D 7F Integral=UltraFineGrid SCF=(NoSymm,XQC,MaxCyc=120) IOp(1/33=1)
 ----------------------------------------------------------------------

 TstMul:  Mul=     2
 TstMul:  ICh=     0
 TstMul:  Mul=     2
 Symbolic Z-matrix:
 Charge =  0 Multiplicity = 2

 SCF Done:  E(UB-P86) =  -1.66886899336     A.U. after    9 cycles
 SCF Done:  E(UB-P86) =  -1.66892515272     A.U. after    7 cycles
 SCF Done:  E(UB-P86) =  -1.66892920850     A.U. after    7 cycles
 Optimization completed.
    -- Stationary point found.
 Normal termination of Gaussian 16 at Wed Oct  7 13:19:36 2020.
 Gaussian 16:  ES64L-G16RevA.03 25-Dec-2016

 ----------------------------------------------------------------------
 #P Freq BP86/6-31G* 5D 7F Integral=UltraFineGrid SCF=(NoSymm,XQC,MaxCy
 c=120) IOp(1/33=1) Geom=Check Guess=Read
 ----------------------------------------------------------------------

 TstMul:  Mul=     2
 TstMul:  ICh=     0
 TstMul:  Mul=     2
 Structure from the checkpoint file:  "MN_82_RKT06_BH76_BP86_631Gs.chk"
 Charge =  0 Multiplicity = 2

                         Standard orientation:
 ---------------------------------------------------------------------
 Center     Atomic      Atomic             Coordinates (Angstroms)
 Number     Number       Type             X           Y           Z
 ---------------------------------------------------------------------
      1          1           0        0.000000    0.000000    0.000000
      2          1           0        0.000000    0.000000    0.939667
      3          1           0        0.000000    0.000000   -0.939667
 ---------------------------------------------------------------------

 SCF Done:  E(UB-P86) =  -1.66892920850     A.U. after    1 cycles

 The electronic state is 2-SGU.
 Alpha  occ. eigenvalues --   -0.45557  -0.21810
 Alpha virt. eigenvalues --    0.11937   0.63001   0.70736   0.95680
  Beta  occ. eigenvalues --   -0.41886
  Beta virt. eigenvalues --   -0.13068   0.16262   0.67366   0.79083   0.99245

 Mulliken charges and spin densities:
               1          2
     1  H   -0.102472  -0.153767
     2  H    0.051236   0.576884
     3  H    0.051236   0.576884
 Sum of Mulliken charges =  -0.00000   1.00000

 Dipole moment (field-independent basis, Debye):
    X=              0.0000    Y=              0.0000    Z=              0.0000  Tot=              0.0000
 Quadrupole moment (field-independent basis, Debye-Ang):
   XX=             -3.3118   YY=             -3.3118   ZZ=             -3.3132
   XY=              0.0000   XZ=              0.0000   YZ=              0.0000

  Exact polarizability:   0.000   0.000   0.000  -0.000   0.000  18.885
 Approx polarizability:   0.000  -0.000  -0.000  -0.000  -0.000  28.888

 ******    1 imaginary frequencies (negative Signs) ******

                      1                      2                      3
                     SGU                    PIU                    PIU
 Frequencies --   -231.6757              1074.0516              1074.0516
 Red. masses --      1.0078                 1.0078                 1.0078
 Frc consts  --      0.0319                 0.6850                 0.6850
 IR Inten    --     97.3323                 8.3846                 8.3846

                      4
                     SGG
 Frequencies --   2026.7287
 Red. masses --      1.0078
 Frc consts  --      2.4391
 IR Inten    --      0.0000

 - Thermochemistry -
 -------------------
 Temperature   298.150 Kelvin.  Pressure   1.00000 Atm.
 Atom     1 has atomic number  1 and mass   1.00783

 Molecular mass:     3.02348 amu.
 Principal axes and moments of inertia in atomic units:
                           1         2         3
     Eigenvalues --     0.00000   6.35566   6.35566
           X           -0.00000   1.00000   0.00000
           Y            0.00000   0.00000   1.00000
           Z            1.00000   0.00000   0.00000
 This molecule is a prolate symmetric top.
 Rotational symmetry number  2.
 Rotational temperature (Kelvin)     13.62783
 Rotational constant (GHZ):         283.957916
    1 imaginary frequencies ignored.
 Zero-point vibrational energy      24971.0 (Joules/Mol)
                                    5.96822 (Kcal/Mol)
 Vibrational temperatures:   1545.32  1545.32  2916.01
          (Kelvin)

 Zero-point correction=                           0.009511 (Hartree/Particle)
 Thermal correction to Energy=                    0.011927
 Thermal correction to Enthalpy=                  0.012871
 Thermal correction to Gibbs Free Energy=        -0.004969
 Sum of electronic and zero-point Energies=             -1.659418
 Sum of electronic and thermal Energies=                -1.657002
 Sum of electronic and thermal Enthalpies=              -1.656058
 Sum of electronic and thermal Free Energies=           -1.673898

                     E (Thermal)             CV                S
                      KCal/Mol        Cal/Mol-Kelvin    Cal/Mol-Kelvin
 Total                    7.484              5.585             37.547
 Electronic               0.000              0.000              1.377
 Translational            0.889              2.981             29.289
 Rotational               0.592              1.987              6.741
 Vibrational              6.003              0.617              0.140

 Optimization completed.
    -- Stationary point found.
 Normal termination of Gaussian 16 at Wed Oct  7 13:19:56 2020.
