 Gaussian 16, Revision A.03,

 ----------------------------------------------------------------------
 #P Opt(TS,MaxCyc=50,NoEigenTest,MaxStep=10,AddRedundant) BP86/6-31G* 5
 D 7F Integral=UltraFineGrid SCF=(NoSymm,XQC,MaxCyc=120) IOp(1/33=1)
 ----------------------------------------------------------------------

 TstMul:  Mul=     1
 TstMul:  ICh=     0
 TstMul:  Mul=     1
 Symbolic Z-matrix:
 Charge =  0 Multiplicity = 1

 SCF Done:  E(RB-P86) =  -195.239704334     A.U. after   14 cycles
 SCF Done:  E(RB-P86) =  -195.241265244     A.U. after   12 cycles
 SCF Done:  E(RB-P86) =  -195.241220911     A.U. after    9 cycles
 SCF Done:  E(RB-P86) =  -195.241113125     A.U. after   11 cycles
 SCF Done:  E(RB-P86) =  -195.241034060     A.U. after    9 cycles
 SCF Done:  E(RB-P86) =  -195.240907627     A.U. after   10 cycles
 SCF Done:  E(RB-P86) =  -195.240706106     A.U. after   12 cycles
 SCF Done:  E(RB-P86) =  -195.241047465     A.U. after   13 cycles
 SCF Done:  E(RB-P86) =  -195.241386178     A.U. after   13 cycles
 SCF Done:  E(RB-P86) =  -195.241572742     A.U. after   11 cycles
 SCF Done:  E(RB-P86) =  -195.241604400     A.U. after   12 cycles
 SCF Done:  E(RB-P86) =  -195.241599970     A.U. after   11 cycles
 SCF Done:  E(RB-P86) =  -195.241600793     A.U. after    9 cycles
 SCF Done:  E(RB-P86) =  -195.241601282     A.U. after    8 cycles
 SCF Done:  E(RB-P86) =  -195.241601394     A.U. after    9 cycles
 Optimization completed.
    -- Stationary point found.
 Normal termination of Gaussian 16 at Wed Oct  7 13:26:04 2020.
 Gaussian 16:  ES64L-G16RevA.03 25-Dec-2016

 ----------------------------------------------------------------------
 #P Freq BP86/6-31G* 5D 7F Integral=UltraFineGrid SCF=(NoSymm,XQC,MaxCy
 c=120) IOp(1/33=1) Geom=Check Guess=Read
 ----------------------------------------------------------------------

 TstMul:  Mul=     1
 TstMul:  ICh=     0
 TstMul:  Mul=     1
 Structure from the checkpoint file:  "MN_96_RKT22_BH76_BP86_631Gs.chk"
 Charge =  0 Multiplicity = 1

                         Standard orientation:
 ---------------------------------------------------------------------
 Center     Atomic      Atomic             Coordinates (Angstroms)
 Number     Number       Type             X           Y           Z
 ---------------------------------------------------------------------
      1          6           0       -1.312221   -0.912889   -0.022995
      2          6           0       -1.218633    0.510744   -0.012304
      3          6           0       -0.000236    1.192389    0.153093
      4          6           0        1.218325    0.511030   -0.011867
      5          6           0        1.312516   -0.912662   -0.023518
      6          1           0        2.186435   -1.341998   -0.538070
      7          1           0        1.081939   -1.464828    0.898925
      8          1           0        2.057959    1.100882   -0.406703
      9          1           0       -0.000303    2.287542    0.093479
     10          1           0       -2.057964    1.100029   -0.408624
     11          1           0       -2.186129   -1.343126   -0.536791
     12          1           0        0.000246   -1.205912   -0.496339
     13          1           0       -1.080688   -1.464267    0.899676
 ---------------------------------------------------------------------

 SCF Done:  E(RB-P86) =  -195.241601394     A.U. after    1 cycles

 The electronic state is 1-A.
 Alpha  occ. eigenvalues --   -9.91501  -9.91499  -9.90830  -9.90595  -9.90595
 Alpha  occ. eigenvalues --   -0.74391  -0.66455  -0.62112  -0.52724  -0.47245
 Alpha  occ. eigenvalues --   -0.44051  -0.37412  -0.36334  -0.36104  -0.34223
 Alpha  occ. eigenvalues --   -0.31744  -0.30629  -0.22812  -0.19220
 Alpha virt. eigenvalues --   -0.05332  -0.00277   0.06798   0.09768   0.11450
 Alpha virt. eigenvalues --    0.14259   0.15362   0.15857   0.18448   0.19964
 Alpha virt. eigenvalues --    0.24083   0.25532   0.31377   0.37344   0.47217

 Mulliken charges:
               1
     1  C   -0.504075
     2  C   -0.080169
     3  C   -0.134210
     4  C   -0.080213
     5  C   -0.504133
     6  H    0.152167
     7  H    0.189521
     8  H    0.146845
     9  H    0.132115
    10  H    0.146844
    11  H    0.152172
    12  H    0.193595
    13  H    0.189542
 Sum of Mulliken charges =  -0.00000

 Dipole moment (field-independent basis, Debye):
    X=              0.0002    Y=              0.0010    Z=             -0.1434  Tot=              0.1434
 Quadrupole moment (field-independent basis, Debye-Ang):
   XX=            -30.1768   YY=            -29.8355   ZZ=            -33.5655
   XY=              0.0011   XZ=              0.0020   YZ=             -1.3871

  Exact polarizability:  75.685  -0.003  64.554   0.003  -0.731  30.330
 Approx polarizability: 158.726  -0.027 133.620   0.004   4.923  49.645

 ******    1 imaginary frequencies (negative Signs) ******

                      1                      2                      3
                      A                      A                      A
 Frequencies --  -1355.0718               266.5175               455.4360
 Red. masses --      1.1949                 2.1045                 2.1197
 Frc consts  --      1.2928                 0.0881                 0.2590
 IR Inten    --     14.1444                 0.0969                 0.6952

                      4                      5                      6
                      A                      A                      A
 Frequencies --    497.8397               549.6935               596.6858
 Red. masses --      2.6719                 3.5880                 1.3325
 Frc consts  --      0.3902                 0.6388                 0.2795
 IR Inten    --      2.8468                 3.4724                29.2458

                      7                      8                      9
                      A                      A                      A
 Frequencies --    725.7671               767.3042               787.9068
 Red. masses --      1.9434                 1.2451                 1.2752
 Frc consts  --      0.6031                 0.4319                 0.4664
 IR Inten    --      8.8454                 4.6190                43.2336

                     10                     11                     12
                      A                      A                      A
 Frequencies --    944.6945               947.8486               973.4623
 Red. masses --      1.2908                 1.3264                 1.5485
 Frc consts  --      0.6787                 0.7021                 0.8646
 IR Inten    --      3.4396                 0.9226                22.2456

                     13                     14                     15
                      A                      A                      A
 Frequencies --    986.9992               988.1506              1077.3726
 Red. masses --      2.2390                 1.3385                 1.3283
 Frc consts  --      1.2851                 0.7701                 0.9084
 IR Inten    --      1.5667                 0.5331                 3.5253

                     16                     17                     18
                      A                      A                      A
 Frequencies --   1107.2603              1168.4464              1228.5893
 Red. masses --      1.6123                 1.1709                 1.4917
 Frc consts  --      1.1647                 0.9418                 1.3266
 IR Inten    --      1.3808                 4.7794                 7.1304

                     19                     20                     21
                      A                      A                      A
 Frequencies --   1243.4883              1397.2181              1407.2966
 Red. masses --      1.2252                 1.1240                 1.3908
 Frc consts  --      1.1162                 1.2928                 1.6229
 IR Inten    --     10.3848                11.2499                 2.3640

                     22                     23                     24
                      A                      A                      A
 Frequencies --   1451.9944              1488.2976              1513.3694
 Red. masses --      1.0714                 1.4488                 1.8314
 Frc consts  --      1.3309                 1.8908                 2.4713
 IR Inten    --      5.4204                 0.0751                 1.0045

                     25                     26                     27
                      A                      A                      A
 Frequencies --   1519.2217              1569.6990              3027.5865
 Red. masses --      4.5259                 1.4152                 1.0566
 Frc consts  --      6.1546                 2.0545                 5.7063
 IR Inten    --      7.3283                 2.8055                29.4333

                     28                     29                     30
                      A                      A                      A
 Frequencies --   3029.3290              3064.4998              3068.0633
 Red. masses --      1.0568                 1.0871                 1.0914
 Frc consts  --      5.7140                 6.0151                 6.0526
 IR Inten    --     13.7936                 0.8163                 9.5274

                     31                     32                     33
                      A                      A                      A
 Frequencies --   3088.2515              3092.5824              3106.8800
 Red. masses --      1.1105                 1.1069                 1.0940
 Frc consts  --      6.2399                 6.2376                 6.2220
 IR Inten    --     30.6748                17.8757                28.4803

 - Thermochemistry -
 -------------------
 Temperature   298.150 Kelvin.  Pressure   1.00000 Atm.
 Atom     1 has atomic number  6 and mass  12.00000

 Molecular mass:    68.06260 amu.
 Principal axes and moments of inertia in atomic units:
                           1         2         3
     Eigenvalues --   226.68512 359.13249 563.88155
           X            1.00000   0.00001   0.00001
           Y           -0.00001   0.99976  -0.02179
           Z           -0.00001   0.02179   0.99976
 This molecule is an asymmetric top.
 Rotational symmetry number  1.
 Rotational temperatures (Kelvin)      0.38209     0.24118     0.15360
 Rotational constants (GHZ):           7.96145     5.02528     3.20057
    1 imaginary frequencies ignored.
 Zero-point vibrational energy     281946.4 (Joules/Mol)
                                   67.38680 (Kcal/Mol)
 Warning -- explicit consideration of   5 degrees of freedom as
           vibrations may cause significant error
 Vibrational temperatures:    383.46   655.27   716.28   790.89   858.50
          (Kelvin)           1044.22  1103.98  1133.62  1359.20  1363.74
                             1400.60  1420.07  1421.73  1550.10  1593.10
                             1681.13  1767.67  1789.10  2010.29  2024.79
                             2089.10  2141.33  2177.40  2185.82  2258.45
                             4356.02  4358.53  4409.13  4414.26  4443.31
                             4449.54  4470.11

 Zero-point correction=                           0.107388 (Hartree/Particle)
 Thermal correction to Energy=                    0.112141
 Thermal correction to Enthalpy=                  0.113085
 Thermal correction to Gibbs Free Energy=         0.080031
 Sum of electronic and zero-point Energies=           -195.134214
 Sum of electronic and thermal Energies=              -195.129461
 Sum of electronic and thermal Enthalpies=            -195.128517
 Sum of electronic and thermal Free Energies=         -195.161571

                     E (Thermal)             CV                S
                      KCal/Mol        Cal/Mol-Kelvin    Cal/Mol-Kelvin
 Total                   70.369             18.449             69.569
 Electronic               0.000              0.000              0.000
 Translational            0.889              2.981             38.571
 Rotational               0.889              2.981             25.332
 Vibrational             68.592             12.487              5.665
 Vibration     1          0.672              1.735              1.619
 Vibration     2          0.814              1.349              0.780
 Vibration     3          0.853              1.255              0.664
 Vibration     4          0.905              1.140              0.545
 Vibration     5          0.955              1.039              0.455

                           ! Non-Optimized Parameters !
 Normal termination of Gaussian 16 at Wed Oct  7 13:27:11 2020.
