 Gaussian 16, Revision A.03,

 ----------------------------------------------------------------------
 #P Opt(TS,MaxCyc=50,NoEigenTest,MaxStep=10,AddRedundant) BP86/6-31G* 5
 D 7F Integral=UltraFineGrid SCF=(NoSymm,XQC,MaxCyc=120) IOp(1/33=1)
 ----------------------------------------------------------------------

 TstMul:  Mul=     3
 TstMul:  ICh=     0
 TstMul:  Mul=     3
 Symbolic Z-matrix:
 Charge =  0 Multiplicity = 3

 SCF Done:  E(UB-P86) =  -135.012069288     A.U. after   15 cycles
 SCF Done:  E(UB-P86) =  -135.012555010     A.U. after   12 cycles
 SCF Done:  E(UB-P86) =  -135.013848879     A.U. after   15 cycles
 SCF Done:  E(UB-P86) =  -135.014354453     A.U. after   13 cycles
 SCF Done:  E(UB-P86) =  -135.014749484     A.U. after   13 cycles
 SCF Done:  E(UB-P86) =  -135.014863034     A.U. after   12 cycles
 SCF Done:  E(UB-P86) =  -135.014894400     A.U. after   15 cycles
 SCF Done:  E(UB-P86) =  -135.015522949     A.U. after   13 cycles
 SCF Done:  E(UB-P86) =  -135.014932202     A.U. after   13 cycles
 SCF Done:  E(UB-P86) =  -135.014434710     A.U. after   13 cycles
 SCF Done:  E(UB-P86) =  -135.013947421     A.U. after   12 cycles
 SCF Done:  E(UB-P86) =  -135.013990459     A.U. after   15 cycles
 SCF Done:  E(UB-P86) =  -135.014034045     A.U. after   15 cycles
 SCF Done:  E(UB-P86) =  -135.014084122     A.U. after   13 cycles
 SCF Done:  E(UB-P86) =  -135.014107886     A.U. after   13 cycles
 SCF Done:  E(UB-P86) =  -135.014111868     A.U. after   12 cycles
 SCF Done:  E(UB-P86) =  -135.014112945     A.U. after   11 cycles
 SCF Done:  E(UB-P86) =  -135.014113066     A.U. after    9 cycles
 SCF Done:  E(UB-P86) =  -135.014113089     A.U. after    8 cycles
 Optimization completed.
    -- Stationary point found.

 1\1\GINC-NODE52\FTS\UBP86\6-31G(d)\C2H7N1(3)\RPEVERATI\07-Oct-2020\0\\
 #P Opt(TS,MaxCyc=50,NoEigenTest,MaxStep=10,AddRedundant) BP86/6-31G* 5
 D 7F Integral=UltraFineGrid SCF=(NoSymm,XQC,MaxCyc=120) IOp(1/33=1)\\T
 S search on BH76.\\0,3\C,-1.4253621914,-0.450243916,-0.0148639576\C,-0
 .4489724589,0.7006464959,-0.0038275881\N,1.998498077,-0.3248905886,0.0
 246053807\H,-1.2940234801,-1.0890335629,-0.9063611816\H,-1.3155666122,
 -1.0878359143,0.8803787077\H,-2.4748882682,-0.0857811033,-0.0278250407
 \H,-0.4061024402,1.3113411126,-0.919018335\H,-0.4272713778,1.311812746

 Normal termination of Gaussian 16 at Wed Oct  7 13:35:02 2020.
 Gaussian 16:  ES64L-G16RevA.03 25-Dec-2016

 ----------------------------------------------------------------------
 #P Freq BP86/6-31G* 5D 7F Integral=UltraFineGrid SCF=(NoSymm,XQC,MaxCy
 c=120) IOp(1/33=1) Geom=Check Guess=Read
 ----------------------------------------------------------------------

 TstMul:  Mul=     3
 TstMul:  ICh=     0
 TstMul:  Mul=     3
 Structure from the checkpoint file:  "MN_93_RKT19_BH76_BP86_631Gs.chk"
 Charge =  0 Multiplicity = 3

                         Standard orientation:
 ---------------------------------------------------------------------
 Center     Atomic      Atomic             Coordinates (Angstroms)
 Number     Number       Type             X           Y           Z
 ---------------------------------------------------------------------
      1          6           0       -1.442123   -0.431858   -0.001164
      2          6           0       -0.443422    0.699777    0.001276
      3          7           0        1.983756   -0.373281    0.001996
      4          1           0       -1.332745   -1.071492   -0.895017
      5          1           0       -1.335268   -1.073064    0.891850
      6          1           0       -2.484423   -0.047001   -0.002360
      7          1           0       -0.398385    1.311153   -0.913355
      8          1           0       -0.400080    1.308770    0.917594
      9          1           0        0.857700    0.046622    0.003203
     10          1           0        2.520173    0.530462   -0.016557
 ---------------------------------------------------------------------

 SCF Done:  E(UB-P86) =  -135.014113089     A.U. after    1 cycles

 The electronic state is 3-A.
 Alpha  occ. eigenvalues --  -14.04397  -9.92034  -9.90718  -0.75447  -0.68684
 Alpha  occ. eigenvalues --   -0.55508  -0.41303  -0.40190  -0.35787  -0.34245
 Alpha  occ. eigenvalues --   -0.31444  -0.29032  -0.25293  -0.17459
 Alpha virt. eigenvalues --    0.06833   0.09092   0.11376   0.11730   0.13601
 Alpha virt. eigenvalues --    0.16319   0.20007   0.24055   0.44753   0.48350
 Alpha virt. eigenvalues --    0.50788   0.53933   0.56438   0.60702   0.65630

  Beta  occ. eigenvalues --  -14.01873  -9.91108  -9.90743  -0.69990  -0.67060
  Beta  occ. eigenvalues --   -0.54234  -0.39735  -0.39226  -0.34658  -0.33657
  Beta  occ. eigenvalues --   -0.31134  -0.25356
  Beta virt. eigenvalues --   -0.13158  -0.11155   0.07687   0.09925   0.11997
  Beta virt. eigenvalues --    0.12196   0.13982   0.16850   0.20752   0.26513
  Beta virt. eigenvalues --    0.45452   0.49316   0.51418   0.57265   0.59692

 Mulliken charges and spin densities:
               1          2
     1  C   -0.469361  -0.029971
     2  C   -0.452515   0.653923
     3  N   -0.515208   1.464770
     4  H    0.174076   0.006915
     5  H    0.174217   0.006854
     6  H    0.170503   0.042423
     7  H    0.171270  -0.018779
     8  H    0.171529  -0.018689
     9  H    0.294444  -0.065078
    10  H    0.281044  -0.042368
 Sum of Mulliken charges =   0.00000   2.00000

 Dipole moment (field-independent basis, Debye):
    X=             -0.9295    Y=              1.6010    Z=             -0.0238  Tot=              1.8514
 Quadrupole moment (field-independent basis, Debye-Ang):
   XX=            -21.5249   YY=            -21.7599   ZZ=            -20.5829
   XY=              3.9583   XZ=             -0.0635   YZ=              0.0037

  Exact polarizability:  56.080  -2.804  32.890  -0.053  -0.063  26.400
 Approx polarizability:  89.067 -12.206  51.189  -0.049  -0.124  38.859

 ******    1 imaginary frequencies (negative Signs) ******

                      1                      2                      3
                      A                      A                      A
 Frequencies --   -993.6277                57.0214               134.8630
 Red. masses --      1.2008                 1.0808                 2.8282
 Frc consts  --      0.6985                 0.0021                 0.0303
 IR Inten    --    194.9190                66.9238                 4.6202

                      4                      5                      6
                      A                      A                      A
 Frequencies --    156.9046               449.9220               479.9349
 Red. masses --      1.1031                 1.0700                 1.6897
 Frc consts  --      0.0160                 0.1276                 0.2293
 IR Inten    --      0.8627                 3.2560                12.0752

                      7                      8                      9
                      A                      A                      A
 Frequencies --    730.4662               811.1969               892.8637
 Red. masses --      1.4861                 1.0494                 1.1523
 Frc consts  --      0.4672                 0.4068                 0.5412
 IR Inten    --      8.5421                 8.9801                40.9041

                     10                     11                     12
                      A                      A                      A
 Frequencies --   1043.1876              1123.5790              1165.0765
 Red. masses --      3.0072                 1.0995                 1.5092
 Frc consts  --      1.9282                 0.8178                 1.2070
 IR Inten    --      0.6541                27.3951                 5.5523

                     13                     14                     15
                      A                      A                      A
 Frequencies --   1201.2528              1380.0910              1441.7395
 Red. masses --      1.3397                 1.2002                 1.1307
 Frc consts  --      1.1390                 1.3468                 1.3848
 IR Inten    --      5.0968                 3.0735                 2.0557

                     16                     17                     18
                      A                      A                      A
 Frequencies --   1466.7017              1468.9655              1474.4715
 Red. masses --      1.0358                 1.0697                 1.0520
 Frc consts  --      1.3128                 1.3599                 1.3476
 IR Inten    --      6.1423                10.3800                77.9178

                     19                     20                     21
                      A                      A                      A
 Frequencies --   2929.0067              3007.1682              3026.0742
 Red. masses --      1.0515                 1.0790                 1.0544
 Frc consts  --      5.3152                 5.7491                 5.6887
 IR Inten    --     23.4517                11.3649                28.3065

                     22                     23                     24
                      A                      A                      A
 Frequencies --   3044.9721              3105.8806              3194.0792
 Red. masses --      1.1022                 1.1117                 1.0723
 Frc consts  --      6.0210                 6.3185                 6.4458
 IR Inten    --     13.8224                31.9012                26.7067

 - Thermochemistry -
 -------------------
 Temperature   298.150 Kelvin.  Pressure   1.00000 Atm.
 Atom     1 has atomic number  6 and mass  12.00000

 Molecular mass:    45.05785 amu.
 Principal axes and moments of inertia in atomic units:
                           1         2         3
     Eigenvalues --    68.85598 367.71809 413.01487
           X            0.99925   0.03860  -0.00036
           Y           -0.03860   0.99925  -0.00036
           Z            0.00034   0.00037   1.00000
 This molecule is an asymmetric top.
 Rotational symmetry number  1.
 Rotational temperatures (Kelvin)      1.25790     0.23554     0.20971
 Rotational constants (GHZ):          26.21038     4.90795     4.36968
    1 imaginary frequencies ignored.
 Zero-point vibrational energy     202081.7 (Joules/Mol)
                                   48.29868 (Kcal/Mol)
 Warning -- explicit consideration of   5 degrees of freedom as
           vibrations may cause significant error
 Vibrational temperatures:     82.04   194.04   225.75   647.34   690.52
          (Kelvin)           1050.98  1167.13  1284.63  1500.91  1616.58
                             1676.29  1728.33  1985.64  2074.34  2110.26
                             2113.51  2121.44  4214.19  4326.64  4353.85
                             4381.04  4468.67  4595.57

 Zero-point correction=                           0.076969 (Hartree/Particle)
 Thermal correction to Energy=                    0.082779
 Thermal correction to Enthalpy=                  0.083723
 Thermal correction to Gibbs Free Energy=         0.047696
 Sum of electronic and zero-point Energies=           -134.937144
 Sum of electronic and thermal Energies=              -134.931334
 Sum of electronic and thermal Enthalpies=            -134.930390
 Sum of electronic and thermal Free Energies=         -134.966417

                     E (Thermal)             CV                S
                      KCal/Mol        Cal/Mol-Kelvin    Cal/Mol-Kelvin
 Total                   51.945             17.801             75.826
 Electronic               0.000              0.000              2.183
 Translational            0.889              2.981             37.342
 Rotational               0.889              2.981             23.862
 Vibrational             50.167             11.839             12.439
 Vibration     1          0.596              1.975              4.558
 Vibration     2          0.613              1.919              2.875
 Vibration     3          0.621              1.895              2.587
 Vibration     4          0.809              1.361              0.796
 Vibration     5          0.836              1.295              0.710

                           ! Non-Optimized Parameters !
 Normal termination of Gaussian 16 at Wed Oct  7 13:35:59 2020.
