 Gaussian 16, Revision A.03,

 ----------------------------------------------------------------------
 #P Opt(TS,MaxCyc=50,NoEigenTest,MaxStep=10,AddRedundant) BP86/6-31G* 5
 D 7F Integral=UltraFineGrid SCF=(NoSymm,XQC,MaxCyc=120) IOp(1/33=1)
 ----------------------------------------------------------------------

 TstMul:  Mul=     2
 TstMul:  ICh=     0
 TstMul:  Mul=     2
 Symbolic Z-matrix:
 Charge =  0 Multiplicity = 2

 SCF Done:  E(UB-P86) =  -135.679581842     A.U. after   14 cycles
 SCF Done:  E(UB-P86) =  -135.680610152     A.U. after   12 cycles
 SCF Done:  E(UB-P86) =  -135.680920425     A.U. after   12 cycles
 SCF Done:  E(UB-P86) =  -135.681207021     A.U. after   12 cycles
 SCF Done:  E(UB-P86) =  -135.681281105     A.U. after   12 cycles
 SCF Done:  E(UB-P86) =  -135.681285632     A.U. after    9 cycles
 SCF Done:  E(UB-P86) =  -135.681271246     A.U. after   13 cycles
 SCF Done:  E(UB-P86) =  -135.681275967     A.U. after   13 cycles
 SCF Done:  E(UB-P86) =  -135.681276182     A.U. after   10 cycles
 SCF Done:  E(UB-P86) =  -135.681276214     A.U. after    8 cycles
 Optimization completed.
    -- Stationary point found.

 1\1\GINC-NODE38\FTS\UBP86\6-31G(d)\C2H8N1(2)\RPEVERATI\07-Oct-2020\0\\
 #P Opt(TS,MaxCyc=50,NoEigenTest,MaxStep=10,AddRedundant) BP86/6-31G* 5
 D 7F Integral=UltraFineGrid SCF=(NoSymm,XQC,MaxCyc=120) IOp(1/33=1)\\T
 S search on BH76.\\0,2\C,-1.5258418347,-0.4483485018,-0.0088027896\C,-
 0.4944297574,0.6643074696,0.01451215\N,1.9315618793,-0.3191981066,0.02
 86166893\H,-1.4182287191,-1.0829195294,-0.906356732\H,-1.4375293085,-1
 .1011876959,0.8775836403\H,-2.5570601954,-0.03886756,-0.0161182291\H,-
 0.4845801096,1.2997273799,-0.8867025593\H,-0.5084060829,1.282947486,0.

 Normal termination of Gaussian 16 at Wed Oct  7 13:23:08 2020.
 Gaussian 16:  ES64L-G16RevA.03 25-Dec-2016

 ----------------------------------------------------------------------
 #P Freq BP86/6-31G* 5D 7F Integral=UltraFineGrid SCF=(NoSymm,XQC,MaxCy
 c=120) IOp(1/33=1) Geom=Check Guess=Read
 ----------------------------------------------------------------------

 TstMul:  Mul=     2
 TstMul:  ICh=     0
 TstMul:  Mul=     2
 Structure from the checkpoint file:  "MN_94_RKT20_BH76_BP86_631Gs.chk"
 Charge =  0 Multiplicity = 2

                         Standard orientation:
 ---------------------------------------------------------------------
 Center     Atomic      Atomic             Coordinates (Angstroms)
 Number     Number       Type             X           Y           Z
 ---------------------------------------------------------------------
      1          6           0       -1.541944   -0.422155    0.005686
      2          6           0       -0.493248    0.674368   -0.009542
      3          7           0        1.917215   -0.346294    0.019388
      4          1           0       -1.449784   -1.084274   -0.873501
      5          1           0       -1.458273   -1.050142    0.910291
      6          1           0       -2.566703    0.003086   -0.007679
      7          1           0       -0.479133    1.282971   -0.929024
      8          1           0       -0.491936    1.319542    0.884919
      9          1           0        0.665333    0.064594    0.019176
     10          1           0        2.254562    0.091827   -0.861789
     11          1           0        2.316576    0.283173    0.745033
 ---------------------------------------------------------------------

 SCF Done:  E(UB-P86) =  -135.681276214     A.U. after    1 cycles

 The electronic state is 2-A.
 Alpha  occ. eigenvalues --  -14.00802  -9.91003  -9.90094  -0.76213  -0.68215
 Alpha  occ. eigenvalues --   -0.55201  -0.40307  -0.40295  -0.39028  -0.34252
 Alpha  occ. eigenvalues --   -0.32915  -0.30633  -0.24244  -0.17386
 Alpha virt. eigenvalues --    0.05860   0.09295   0.11747   0.12221   0.13622
 Alpha virt. eigenvalues --    0.14272   0.16516   0.20046   0.25751   0.45818
 Alpha virt. eigenvalues --    0.48634   0.51220   0.55609   0.56530   0.60748

  Beta  occ. eigenvalues --  -13.99707  -9.90290  -9.90103  -0.73813  -0.67388
  Beta  occ. eigenvalues --   -0.54291  -0.39681  -0.38743  -0.38581  -0.33309
  Beta  occ. eigenvalues --   -0.32317  -0.30404  -0.22414
  Beta virt. eigenvalues --   -0.11888   0.06443   0.09660   0.12065   0.12730
  Beta virt. eigenvalues --    0.13874   0.14590   0.16944   0.20622   0.27215
  Beta virt. eigenvalues --    0.46414   0.48888   0.51782   0.56704   0.58214

 Mulliken charges and spin densities:
               1          2
     1  C   -0.464196  -0.015162
     2  C   -0.480029   0.476681
     3  N   -0.748969   0.604065
     4  H    0.169385   0.004200
     5  H    0.171060   0.004166
     6  H    0.164684   0.032243
     7  H    0.163324  -0.012413
     8  H    0.164547  -0.011827
     9  H    0.279540  -0.050529
    10  H    0.290265  -0.015696
    11  H    0.290389  -0.015729
 Sum of Mulliken charges =   0.00000   1.00000

 Dipole moment (field-independent basis, Debye):
    X=             -0.2671    Y=              1.6991    Z=             -0.2078  Tot=              1.7324
 Quadrupole moment (field-independent basis, Debye-Ang):
   XX=            -20.5331   YY=            -23.2274   ZZ=            -20.1582
   XY=              3.7002   XZ=             -0.4369   YZ=              0.2936

  Exact polarizability:  59.887  -4.136  31.945   0.036   0.295  32.031
 Approx polarizability:  96.048 -15.148  49.721   0.515   0.350  48.329

 ******    1 imaginary frequencies (negative Signs) ******

                      1                      2                      3
                      A                      A                      A
 Frequencies --  -1222.1683                24.5399               149.7792
 Red. masses --      1.0939                 1.0842                 2.6374
 Frc consts  --      0.9627                 0.0004                 0.0349
 IR Inten    --    268.2498                48.7705                 5.7735

                      4                      5                      6
                      A                      A                      A
 Frequencies --    168.3621               427.9821               468.9953
 Red. masses --      1.0880                 1.0309                 2.2404
 Frc consts  --      0.0182                 0.1113                 0.2903
 IR Inten    --      0.3373                 1.7575                 0.6103

                      7                      8                      9
                      A                      A                      A
 Frequencies --    741.6820               765.5760               869.4146
 Red. masses --      1.1349                 1.3668                 1.0561
 Frc consts  --      0.3678                 0.4720                 0.4703
 IR Inten    --      9.7380                67.8359                 1.6098

                     10                     11                     12
                      A                      A                      A
 Frequencies --    919.2485              1032.8392              1172.5823
 Red. masses --      1.2230                 3.1276                 1.3951
 Frc consts  --      0.6089                 1.9658                 1.1302
 IR Inten    --    114.5336                 5.2760                10.9606

                     13                     14                     15
                      A                      A                      A
 Frequencies --   1205.7060              1345.8626              1381.7279
 Red. masses --      1.3924                 1.0854                 1.1930
 Frc consts  --      1.1926                 1.1584                 1.3419
 IR Inten    --      0.4158                97.2765                 0.2488

                     16                     17                     18
                      A                      A                      A
 Frequencies --   1446.3858              1467.4967              1474.8854
 Red. masses --      1.1323                 1.0327                 1.0503
 Frc consts  --      1.3956                 1.3104                 1.3460
 IR Inten    --      1.5320                 2.8352                 4.4900

                     19                     20                     21
                      A                      A                      A
 Frequencies --   1495.4753              1591.0800              2943.6651
 Red. masses --      1.0442                 1.0689                 1.0464
 Frc consts  --      1.3759                 1.5943                 5.3424
 IR Inten    --     12.6093                13.4047                24.4960

                     22                     23                     24
                      A                      A                      A
 Frequencies --   3005.6660              3017.7867              3043.7005
 Red. masses --      1.0617                 1.0791                 1.1022
 Frc consts  --      5.6512                 5.7902                 6.0159
 IR Inten    --      5.2033                40.4993                 8.9634

                     25                     26                     27
                      A                      A                      A
 Frequencies --   3081.4809              3245.4158              3352.6558
 Red. masses --      1.1086                 1.0497                 1.0878
 Frc consts  --      6.2023                 6.5139                 7.2044
 IR Inten    --     41.6558                11.7027                 7.9744

 - Thermochemistry -
 -------------------
 Temperature   298.150 Kelvin.  Pressure   1.00000 Atm.
 Atom     1 has atomic number  6 and mass  12.00000

 Molecular mass:    46.06567 amu.
 Principal axes and moments of inertia in atomic units:
                           1         2         3
     Eigenvalues --    69.84218 392.46607 429.62140
           X            0.99955   0.02986  -0.00206
           Y           -0.02984   0.99952   0.00873
           Z            0.00232  -0.00866   0.99996
 This molecule is an asymmetric top.
 Rotational symmetry number  1.
 Rotational temperatures (Kelvin)      1.24014     0.22069     0.20161
 Rotational constants (GHZ):          25.84028     4.59846     4.20077
    1 imaginary frequencies ignored.
 Zero-point vibrational energy     238296.1 (Joules/Mol)
                                   56.95413 (Kcal/Mol)
 Warning -- explicit consideration of   5 degrees of freedom as
           vibrations may cause significant error
 Vibrational temperatures:     35.31   215.50   242.24   615.77   674.78
          (Kelvin)           1067.11  1101.49  1250.89  1322.59  1486.03
                             1687.08  1734.74  1936.40  1988.00  2081.03
                             2111.40  2122.03  2151.66  2289.21  4235.28
                             4324.48  4341.92  4379.21  4433.56  4669.43
                             4823.72

 Zero-point correction=                           0.090762 (Hartree/Particle)
 Thermal correction to Energy=                    0.096678
 Thermal correction to Enthalpy=                  0.097622
 Thermal correction to Gibbs Free Energy=         0.061140
 Sum of electronic and zero-point Energies=           -135.590514
 Sum of electronic and thermal Energies=              -135.584598
 Sum of electronic and thermal Enthalpies=            -135.583654
 Sum of electronic and thermal Free Energies=         -135.620137

                     E (Thermal)             CV                S
                      KCal/Mol        Cal/Mol-Kelvin    Cal/Mol-Kelvin
 Total                   60.666             18.331             76.784
 Electronic               0.000              0.000              1.377
 Translational            0.889              2.981             37.408
 Rotational               0.889              2.981             23.980
 Vibrational             58.889             12.370             14.019
 Vibration     1          0.593              1.985              6.228
 Vibration     2          0.618              1.903              2.675
 Vibration     3          0.625              1.881              2.454
 Vibration     4          0.789              1.409              0.865
 Vibration     5          0.826              1.319              0.740

                           ! Non-Optimized Parameters !
 Normal termination of Gaussian 16 at Wed Oct  7 13:24:06 2020.
