 Gaussian 16, Revision A.03,

 ----------------------------------------------------------------------
 #P Opt(TS,MaxCyc=50,NoEigenTest,MaxStep=10,AddRedundant) BP86/6-31G* 5
 D 7F Integral=UltraFineGrid SCF=(NoSymm,XQC,MaxCyc=120) IOp(1/33=1)
 ----------------------------------------------------------------------

 TstMul:  Mul=     3
 TstMul:  ICh=     0
 TstMul:  Mul=     3
 Symbolic Z-matrix:
 Charge =  0 Multiplicity = 3

 SCF Done:  E(UB-P86) =  -535.884266690     A.U. after   19 cycles
 SCF Done:  E(UB-P86) =  -535.884359010     A.U. after   11 cycles
 SCF Done:  E(UB-P86) =  -535.884314271     A.U. after   12 cycles
 SCF Done:  E(UB-P86) =  -535.882476826     A.U. after   14 cycles
 SCF Done:  E(UB-P86) =  -535.880935970     A.U. after   14 cycles
 SCF Done:  E(UB-P86) =  -535.879744007     A.U. after   14 cycles
 SCF Done:  E(UB-P86) =  -535.878850427     A.U. after   14 cycles
 SCF Done:  E(UB-P86) =  -535.878185849     A.U. after   14 cycles
 SCF Done:  E(UB-P86) =  -535.877679761     A.U. after   14 cycles
 SCF Done:  E(UB-P86) =  -535.877275589     A.U. after   16 cycles
 SCF Done:  E(UB-P86) =  -535.875931127     A.U. after   18 cycles
 SCF Done:  E(UB-P86) =  -535.875922070     A.U. after   18 cycles
 SCF Done:  E(UB-P86) =  -535.875911342     A.U. after   19 cycles
 SCF Done:  E(UB-P86) =  -535.875908408     A.U. after   20 cycles
 SCF Done:  E(UB-P86) =  -535.875899595     A.U. after   18 cycles
 SCF Done:  E(UB-P86) =  -535.875891406     A.U. after   20 cycles
 SCF Done:  E(UB-P86) =  -535.875889946     A.U. after   18 cycles
 SCF Done:  E(UB-P86) =  -535.875889878     A.U. after   13 cycles
 SCF Done:  E(UB-P86) =  -535.875889865     A.U. after   11 cycles
 Optimization completed.
    -- Stationary point found.
 Normal termination of Gaussian 16 at Wed Oct  7 13:27:54 2020.
 Gaussian 16:  ES64L-G16RevA.03 25-Dec-2016

 ----------------------------------------------------------------------
 #P Freq BP86/6-31G* 5D 7F Integral=UltraFineGrid SCF=(NoSymm,XQC,MaxCy
 c=120) IOp(1/33=1) Geom=Check Guess=Read
 ----------------------------------------------------------------------

 TstMul:  Mul=     3
 TstMul:  ICh=     0
 TstMul:  Mul=     3
 Structure from the checkpoint file:  "MN_91_RKT17_BH76_BP86_631Gs.chk"
 Charge =  0 Multiplicity = 3

                         Standard orientation:
 ---------------------------------------------------------------------
 Center     Atomic      Atomic             Coordinates (Angstroms)
 Number     Number       Type             X           Y           Z
 ---------------------------------------------------------------------
      1         17           0        0.005029   -0.990557    0.000000
      2          1           0       -0.125736    0.336839    0.000000
      3          8           0        0.005029    2.062829    0.000000
 ---------------------------------------------------------------------

 SCF Done:  E(UB-P86) =  -535.875889865     A.U. after    1 cycles

 The electronic state is 3-A".
 Alpha  occ. eigenvalues -- -100.72076 -18.96504  -9.18654  -7.00963  -7.00107
 Alpha  occ. eigenvalues --   -7.00083  -0.94845  -0.76664  -0.43931  -0.41609
 Alpha  occ. eigenvalues --   -0.41359  -0.33888  -0.28966  -0.28913
 Alpha virt. eigenvalues --    0.02358   0.34676   0.38483   0.40089   0.40129
 Alpha virt. eigenvalues --    0.68978   0.70980   0.72518   0.77350   0.77464
 Alpha virt. eigenvalues --    0.79990   0.79991   0.81020   1.06009   1.21902

  Beta  occ. eigenvalues -- -100.72019 -18.92153  -9.18600  -7.00938  -7.00003
  Beta  occ. eigenvalues --   -6.99991  -0.83179  -0.76232  -0.43097  -0.30218
  Beta  occ. eigenvalues --   -0.28694  -0.28675
  Beta virt. eigenvalues --   -0.26437  -0.26370   0.03022   0.34821   0.38698
  Beta virt. eigenvalues --    0.40418   0.40429   0.72737   0.77482   0.77483
  Beta virt. eigenvalues --    0.80507   0.80507   0.81589   0.81850   0.84468

 Mulliken charges and spin densities:
               1          2
     1  Cl  -0.225991   0.096663
     2  H    0.214553  -0.017311
     3  O    0.011438   1.920647
 Sum of Mulliken charges =  -0.00000   2.00000

 Dipole moment (field-independent basis, Debye):
    X=             -0.1594    Y=              1.6729    Z=              0.0000  Tot=              1.6805
 Quadrupole moment (field-independent basis, Debye-Ang):
   XX=            -18.5227   YY=            -18.6094   ZZ=            -18.5049
   XY=             -0.3574   XZ=              0.0000   YZ=              0.0000

  Exact polarizability:   8.738   0.036  59.932  -0.000  -0.000   8.693
 Approx polarizability:  11.936   0.218 310.585  -0.000   0.000  11.820

 ******    1 imaginary frequencies (negative Signs) ******

                      1                      2                      3
                     A'                     A'                     A'
 Frequencies --   -100.5272               216.2096              2284.7039
 Red. masses --      2.3712                 1.6169                 1.0439
 Frc consts  --      0.0141                 0.0445                 3.2103
 IR Inten    --     38.2577                33.8867                 2.3369

 - Thermochemistry -
 -------------------
 Temperature   298.150 Kelvin.  Pressure   1.00000 Atm.
 Atom     1 has atomic number 17 and mass  34.96885

 Molecular mass:    51.97159 amu.
 Principal axes and moments of inertia in atomic units:
                           1         2         3
     Eigenvalues --     0.06027 365.87623 365.93650
           X           -0.00047   1.00000   0.00000
           Y            1.00000   0.00047   0.00000
           Z            0.00000   0.00000   1.00000
 This molecule is an asymmetric top.
 Rotational symmetry number  1.
 Rotational temperatures (Kelvin)   1437.12210     0.23673     0.23669
 Rotational constants (GHZ):       29944.76419     4.93265     4.93184
    1 imaginary frequencies ignored.
 Zero-point vibrational energy      14958.8 (Joules/Mol)
                                    3.57524 (Kcal/Mol)
 Warning -- explicit consideration of   1 degrees of freedom as
           vibrations may cause significant error
 Vibrational temperatures:    311.08  3287.18
          (Kelvin)

 Zero-point correction=                           0.005698 (Hartree/Particle)
 Thermal correction to Energy=                    0.009066
 Thermal correction to Enthalpy=                  0.010010
 Thermal correction to Gibbs Free Energy=        -0.017872
 Sum of electronic and zero-point Energies=           -535.870192
 Sum of electronic and thermal Energies=              -535.866824
 Sum of electronic and thermal Enthalpies=            -535.865880
 Sum of electronic and thermal Free Energies=         -535.893762

                     E (Thermal)             CV                S
                      KCal/Mol        Cal/Mol-Kelvin    Cal/Mol-Kelvin
 Total                    5.689              7.782             58.682
 Electronic               0.000              0.000              2.183
 Translational            0.889              2.981             37.767
 Rotational               0.889              2.981             16.741
 Vibrational              3.912              1.820              1.991
 Vibration     1          0.645              1.816              1.991

 Optimization completed.
    -- Stationary point found.
 Normal termination of Gaussian 16 at Wed Oct  7 13:28:23 2020.
