 Gaussian 16, Revision A.03,

 ----------------------------------------------------------------------
 #P Opt(TS,MaxCyc=50,NoEigenTest,MaxStep=10,AddRedundant) BP86/6-31G* 5
 D 7F Integral=UltraFineGrid SCF=(NoSymm,XQC,MaxCyc=120) IOp(1/33=1)
 ----------------------------------------------------------------------

 TstMul:  Mul=     3
 TstMul:  ICh=     0
 TstMul:  Mul=     3
 Symbolic Z-matrix:
 Charge =  0 Multiplicity = 3

 SCF Done:  E(UB-P86) =  -95.6998716598     A.U. after   13 cycles
 SCF Done:  E(UB-P86) =  -95.7001852554     A.U. after   12 cycles
 SCF Done:  E(UB-P86) =  -95.7009422356     A.U. after   12 cycles
 SCF Done:  E(UB-P86) =  -95.7003838584     A.U. after   14 cycles
 SCF Done:  E(UB-P86) =  -95.7003462851     A.U. after   13 cycles
 SCF Done:  E(UB-P86) =  -95.7002115139     A.U. after   13 cycles
 SCF Done:  E(UB-P86) =  -95.7003548903     A.U. after   12 cycles
 SCF Done:  E(UB-P86) =  -95.7000185885     A.U. after   13 cycles
 SCF Done:  E(UB-P86) =  -95.6998989768     A.U. after   13 cycles
 SCF Done:  E(UB-P86) =  -95.6998561799     A.U. after   14 cycles
 SCF Done:  E(UB-P86) =  -95.6998670420     A.U. after   12 cycles
 SCF Done:  E(UB-P86) =  -95.6998686791     A.U. after   10 cycles
 SCF Done:  E(UB-P86) =  -95.6998690686     A.U. after   12 cycles
 SCF Done:  E(UB-P86) =  -95.6998696217     A.U. after   11 cycles
 SCF Done:  E(UB-P86) =  -95.6998697183     A.U. after    8 cycles
 SCF Done:  E(UB-P86) =  -95.6998698573     A.U. after    8 cycles
 Optimization completed.
    -- Stationary point found.

 1\1\GINC-NODE56\FTS\UBP86\6-31G(d)\C1H5N1(3)\RPEVERATI\07-Oct-2020\0\\
 #P Opt(TS,MaxCyc=50,NoEigenTest,MaxStep=10,AddRedundant) BP86/6-31G* 5
 D 7F Integral=UltraFineGrid SCF=(NoSymm,XQC,MaxCyc=120) IOp(1/33=1)\\T
 S search on BH76.\\0,3\C,-1.252729821,-0.013621345,0.0026384052\N,1.43
 38580793,0.1200900847,-0.0196132742\H,-1.4345177535,-0.5251990448,0.95
 51137345\H,-1.4470287622,-0.6050500712,-0.8998007685\H,-1.5668039168,1
 .0359234519,-0.0404006234\H,0.2838219796,0.1831438109,-0.0146831012\H,
 1.5769980499,-0.9188325272,0.016806863\\Version=ES64L-G16RevA.03\State

 Normal termination of Gaussian 16 at Wed Oct  7 13:24:11 2020.
 Gaussian 16:  ES64L-G16RevA.03 25-Dec-2016

 ----------------------------------------------------------------------
 #P Freq BP86/6-31G* 5D 7F Integral=UltraFineGrid SCF=(NoSymm,XQC,MaxCy
 c=120) IOp(1/33=1) Geom=Check Guess=Read
 ----------------------------------------------------------------------

 TstMul:  Mul=     3
 TstMul:  ICh=     0
 TstMul:  Mul=     3
 Structure from the checkpoint file:  "MN_92_RKT18_BH76_BP86_631Gs.chk"
 Charge =  0 Multiplicity = 3

                         Standard orientation:
 ---------------------------------------------------------------------
 Center     Atomic      Atomic             Coordinates (Angstroms)
 Number     Number       Type             X           Y           Z
 ---------------------------------------------------------------------
      1          6           0       -1.249010   -0.013122   -0.000000
      2          7           0        1.437286    0.128087   -0.000046
      3          1           0       -1.435461   -0.558998    0.932321
      4          1           0       -1.435916   -0.572284   -0.924306
      5          1           0       -1.565695    1.036495   -0.007409
      6          1           0        0.287073    0.188018   -0.000305
      7          1           0        1.583054   -0.911108    0.000023
 ---------------------------------------------------------------------

 SCF Done:  E(UB-P86) =  -95.6998698573     A.U. after    1 cycles

 The electronic state is 3-A.
 Alpha  occ. eigenvalues --  -14.04860  -9.92130  -0.76335  -0.62717  -0.41153
 Alpha  occ. eigenvalues --   -0.37392  -0.37266  -0.29712  -0.25891  -0.19062
 Alpha virt. eigenvalues --    0.06681   0.09571   0.13670   0.13824   0.22427
 Alpha virt. eigenvalues --    0.46821   0.46879   0.50219   0.63305   0.64754
 Alpha virt. eigenvalues --    0.66482   0.76761   0.83369   0.83450   0.83644

  Beta  occ. eigenvalues --  -14.02437  -9.91105  -0.70596  -0.60253  -0.38857
  Beta  occ. eigenvalues --   -0.36610  -0.36433  -0.25865
  Beta virt. eigenvalues --   -0.13821  -0.12148   0.07833   0.10730   0.14361
  Beta virt. eigenvalues --    0.14517   0.25071   0.47968   0.48651   0.55302
  Beta virt. eigenvalues --    0.67512   0.68306   0.71899   0.78361   0.84131

 Mulliken charges and spin densities:
               1          2
     1  C   -0.638938   0.770713
     2  N   -0.527659   1.404014
     3  H    0.187032  -0.025112
     4  H    0.186937  -0.025148
     5  H    0.194727  -0.023663
     6  H    0.312794  -0.059758
     7  H    0.285108  -0.041046
 Sum of Mulliken charges =  -0.00000   2.00000

 Dipole moment (field-independent basis, Debye):
    X=             -1.2279    Y=             -1.3764    Z=              0.0002  Tot=              1.8445
 Quadrupole moment (field-independent basis, Debye-Ang):
   XX=            -16.8850   YY=            -13.7551   ZZ=            -14.1744
   XY=             -2.7563   XZ=              0.0008   YZ=             -0.0002

  Exact polarizability:  40.749  -0.734  21.055   0.004  -0.000  16.425
 Approx polarizability:  69.130   1.406  30.166   0.007  -0.000  22.383

 ******    1 imaginary frequencies (negative Signs) ******

                      1                      2                      3
                      A                      A                      A
 Frequencies --   -519.2240                62.9213               341.7763
 Red. masses --      2.2362                 1.0490                 1.0437
 Frc consts  --      0.3552                 0.0024                 0.0718
 IR Inten    --     85.2043                55.2739                12.3449

                      4                      5                      6
                      A                      A                      A
 Frequencies --    388.0976               640.1605               802.1721
 Red. masses --      1.0770                 1.1524                 1.2323
 Frc consts  --      0.0956                 0.2782                 0.4672
 IR Inten    --      5.0101                30.5597                 4.4692

                      7                      8                      9
                      A                      A                      A
 Frequencies --   1017.6277              1276.9471              1402.3329
 Red. masses --      1.0544                 1.3059                 1.0879
 Frc consts  --      0.6433                 1.2546                 1.2605
 IR Inten    --     55.3620                 0.7026                 4.6791

                     10                     11                     12
                      A                      A                      A
 Frequencies --   1403.2983              1580.7529              3030.5245
 Red. masses --      1.0864                 1.0685                 1.0153
 Frc consts  --      1.2605                 1.5731                 5.4940
 IR Inten    --      4.6164               183.5452                 0.0707

                     13                     14                     15
                      A                      A                      A
 Frequencies --   3180.0374              3180.9739              3214.3825
 Red. masses --      1.1128                 1.1127                 1.0720
 Frc consts  --      6.6302                 6.6334                 6.5256
 IR Inten    --     10.8973                 6.7732                23.8836

 - Thermochemistry -
 -------------------
 Temperature   298.150 Kelvin.  Pressure   1.00000 Atm.
 Atom     1 has atomic number  6 and mass  12.00000

 Molecular mass:    31.04220 amu.
 Principal axes and moments of inertia in atomic units:
                           1         2         3
     Eigenvalues --    16.12621 208.69656 212.41614
           X            0.99970  -0.02430   0.00001
           Y            0.02430   0.99970   0.00002
           Z           -0.00001  -0.00002   1.00000
 This molecule is an asymmetric top.
 Rotational symmetry number  1.
 Rotational temperatures (Kelvin)      5.37100     0.41502     0.40776
 Rotational constants (GHZ):         111.91351     8.64768     8.49625
    1 imaginary frequencies ignored.
 Zero-point vibrational energy     128730.2 (Joules/Mol)
                                   30.76725 (Kcal/Mol)
 Warning -- explicit consideration of   3 degrees of freedom as
           vibrations may cause significant error
 Vibrational temperatures:     90.53   491.74   558.39   921.05  1154.15
          (Kelvin)           1464.14  1837.24  2017.64  2019.03  2274.35
                             4360.25  4575.36  4576.71  4624.78

 Zero-point correction=                           0.049031 (Hartree/Particle)
 Thermal correction to Energy=                    0.053645
 Thermal correction to Enthalpy=                  0.054589
 Thermal correction to Gibbs Free Energy=         0.022785
 Sum of electronic and zero-point Energies=            -95.650839
 Sum of electronic and thermal Energies=               -95.646225
 Sum of electronic and thermal Enthalpies=             -95.645281
 Sum of electronic and thermal Free Energies=          -95.677085

                     E (Thermal)             CV                S
                      KCal/Mol        Cal/Mol-Kelvin    Cal/Mol-Kelvin
 Total                   33.663             13.401             66.937
 Electronic               0.000              0.000              2.183
 Translational            0.889              2.981             36.231
 Rotational               0.889              2.981             21.197
 Vibrational             31.885              7.439              7.327
 Vibration     1          0.597              1.972              4.363
 Vibration     2          0.721              1.592              1.204
 Vibration     3          0.756              1.496              1.007

                           ! Non-Optimized Parameters !
 Normal termination of Gaussian 16 at Wed Oct  7 13:24:47 2020.
