 Gaussian 16, Revision A.03,

 ----------------------------------------------------------------------
 #P Opt(TS,MaxCyc=50,NoEigenTest,MaxStep=10,AddRedundant) BP86/6-31G* 5
 D 7F Integral=UltraFineGrid SCF=(NoSymm,XQC,MaxCyc=120) IOp(1/33=1)
 ----------------------------------------------------------------------

 TstMul:  Mul=     2
 TstMul:  ICh=     0
 TstMul:  Mul=     2
 Symbolic Z-matrix:
 Charge =  0 Multiplicity = 2

 SCF Done:  E(UB-P86) =  -96.3674172200     A.U. after   13 cycles
 SCF Done:  E(UB-P86) =  -96.3676695313     A.U. after   11 cycles
 SCF Done:  E(UB-P86) =  -96.3685758552     A.U. after   12 cycles
 SCF Done:  E(UB-P86) =  -96.3687304308     A.U. after   11 cycles
 SCF Done:  E(UB-P86) =  -96.3687939044     A.U. after   11 cycles
 SCF Done:  E(UB-P86) =  -96.3688758075     A.U. after   12 cycles
 SCF Done:  E(UB-P86) =  -96.3688578686     A.U. after   12 cycles
 SCF Done:  E(UB-P86) =  -96.3687551927     A.U. after   13 cycles
 SCF Done:  E(UB-P86) =  -96.3689340012     A.U. after   13 cycles
 SCF Done:  E(UB-P86) =  -96.3687671587     A.U. after   13 cycles
 SCF Done:  E(UB-P86) =  -96.3686767691     A.U. after   13 cycles
 SCF Done:  E(UB-P86) =  -96.3686519188     A.U. after   13 cycles
 SCF Done:  E(UB-P86) =  -96.3686600081     A.U. after   12 cycles
 SCF Done:  E(UB-P86) =  -96.3686744802     A.U. after   11 cycles
 SCF Done:  E(UB-P86) =  -96.3686836875     A.U. after   12 cycles
 SCF Done:  E(UB-P86) =  -96.3686857995     A.U. after   11 cycles
 SCF Done:  E(UB-P86) =  -96.3686862941     A.U. after    8 cycles
 SCF Done:  E(UB-P86) =  -96.3686864144     A.U. after    8 cycles
 Optimization completed.
    -- Stationary point found.

 1\1\GINC-NODE51\FTS\UBP86\6-31G(d)\C1H6N1(2)\RPEVERATI\07-Oct-2020\0\\
 #P Opt(TS,MaxCyc=50,NoEigenTest,MaxStep=10,AddRedundant) BP86/6-31G* 5
 D 7F Integral=UltraFineGrid SCF=(NoSymm,XQC,MaxCyc=120) IOp(1/33=1)\\T
 S search on BH76.\\0,2\C,-1.2673878809,-0.0003394252,0.0098660982\N,1.
 326339231,0.0066541602,-0.1381377979\H,-1.6197848546,0.9123101221,-0.4
 912413168\H,-1.4392928183,0.00648173,1.0946729463\H,-1.6110370756,-0.9
 232894923,-0.4782482595\H,0.0661721221,0.0061537862,-0.2223529854\H,1.
 4833971512,0.8068401116,0.5062808227\H,1.4858167358,-0.814749317,0.478

 Normal termination of Gaussian 16 at Wed Oct  7 13:26:38 2020.
 Gaussian 16:  ES64L-G16RevA.03 25-Dec-2016

 ----------------------------------------------------------------------
 #P Freq BP86/6-31G* 5D 7F Integral=UltraFineGrid SCF=(NoSymm,XQC,MaxCy
 c=120) IOp(1/33=1) Geom=Check Guess=Read
 ----------------------------------------------------------------------

 TstMul:  Mul=     2
 TstMul:  ICh=     0
 TstMul:  Mul=     2
 Structure from the checkpoint file:  "MN_95_RKT21_BH76_BP86_631Gs.chk"
 Charge =  0 Multiplicity = 2

                         Standard orientation:
 ---------------------------------------------------------------------
 Center     Atomic      Atomic             Coordinates (Angstroms)
 Number     Number       Type             X           Y           Z
 ---------------------------------------------------------------------
      1          6           0       -1.269743    0.000015    0.014188
      2          7           0        1.323604    0.000028   -0.140485
      3          1           0       -1.621893    0.904606   -0.501493
      4          1           0       -1.438856    0.025599    1.099154
      5          1           0       -1.616188   -0.930519   -0.457267
      6          1           0        0.063226    0.000261   -0.221486
      7          1           0        1.483654    0.810798    0.489814
      8          1           0        1.483284   -0.811033    0.489542
 ---------------------------------------------------------------------

 SCF Done:  E(UB-P86) =  -96.3686864144     A.U. after    1 cycles

 The electronic state is 2-A.
 Alpha  occ. eigenvalues --  -14.01286  -9.90649  -0.77010  -0.62327  -0.40709
 Alpha  occ. eigenvalues --   -0.39474  -0.36044  -0.35910  -0.24840  -0.18249
 Alpha virt. eigenvalues --    0.05829   0.10355   0.12669   0.13972   0.14385
 Alpha virt. eigenvalues --    0.24969   0.46817   0.47872   0.51340   0.65511
 Alpha virt. eigenvalues --    0.68226   0.68480   0.81859   0.82846   0.83710

  Beta  occ. eigenvalues --  -14.00241  -9.89865  -0.74696  -0.60612  -0.40016
  Beta  occ. eigenvalues --   -0.37352  -0.35365  -0.35313  -0.22947
  Beta virt. eigenvalues --   -0.12505   0.06463   0.11045   0.13049   0.14557
  Beta virt. eigenvalues --    0.14951   0.26524   0.47275   0.48680   0.55149
  Beta virt. eigenvalues --    0.67578   0.68510   0.70636   0.82430   0.83499

 Mulliken charges and spin densities:
               1          2
     1  C   -0.679605   0.553265
     2  N   -0.757995   0.566602
     3  H    0.185699  -0.012418
     4  H    0.174860  -0.017799
     5  H    0.185367  -0.012614
     6  H    0.301943  -0.048491
     7  H    0.294863  -0.014270
     8  H    0.294869  -0.014276
 Sum of Mulliken charges =  -0.00000   1.00000

 Dipole moment (field-independent basis, Debye):
    X=             -0.5447    Y=             -0.0002    Z=              1.6743  Tot=              1.7607
 Quadrupole moment (field-independent basis, Debye-Ang):
   XX=            -16.2237   YY=            -13.6574   ZZ=            -15.5104
   XY=             -0.0005   XZ=              3.0370   YZ=             -0.0012

  Exact polarizability:  44.188   0.001  22.230   0.697  -0.002  19.811
 Approx polarizability:  76.346   0.002  31.774  -1.761  -0.002  28.263

 ******    1 imaginary frequencies (negative Signs) ******

                      1                      2                      3
                      A                      A                      A
 Frequencies --  -1299.6312                38.4087               377.3140
 Red. masses --      1.0754                 1.0263                 1.2412
 Frc consts  --      1.0702                 0.0009                 0.1041
 IR Inten    --    154.5268                33.7345                 9.0095

                      4                      5                      6
                      A                      A                      A
 Frequencies --    398.5625               559.5106               774.3026
 Red. masses --      1.0259                 2.2974                 1.1086
 Frc consts  --      0.0960                 0.4237                 0.3916
 IR Inten    --      2.4567                 3.9902                 6.6271

                      7                      8                      9
                      A                      A                      A
 Frequencies --    848.9875              1133.2807              1380.5386
 Red. masses --      1.2740                 1.1706                 1.1191
 Frc consts  --      0.5410                 0.8858                 1.2567
 IR Inten    --    114.6614                13.6641               137.0246

                     10                     11                     12
                      A                      A                      A
 Frequencies --   1412.2841              1423.2644              1511.2867
 Red. masses --      1.0950                 1.0518                 1.0305
 Frc consts  --      1.2867                 1.2553                 1.3867
 IR Inten    --     10.2096                14.2802                11.9572

                     13                     14                     15
                      A                      A                      A
 Frequencies --   1604.8098              3012.2686              3142.0001
 Red. masses --      1.0613                 1.0205                 1.1090
 Frc consts  --      1.6105                 5.4560                 6.4502
 IR Inten    --     18.5256                 2.7153                13.0782

                     16                     17                     18
                      A                      A                      A
 Frequencies --   3145.3117              3258.6349              3364.1377
 Red. masses --      1.1091                 1.0497                 1.0878
 Frc consts  --      6.4648                 6.5674                 7.2536
 IR Inten    --     15.3922                11.1819                 5.6391

 - Thermochemistry -
 -------------------
 Temperature   298.150 Kelvin.  Pressure   1.00000 Atm.
 Atom     1 has atomic number  6 and mass  12.00000

 Molecular mass:    32.05002 amu.
 Principal axes and moments of inertia in atomic units:
                           1         2         3
     Eigenvalues --    19.48920 207.38647 209.49132
           X            0.99968  -0.00000   0.02545
           Y            0.00000   1.00000   0.00003
           Z           -0.02545  -0.00003   0.99968
 This molecule is an asymmetric top.
 Rotational symmetry number  1.
 Rotational temperatures (Kelvin)      4.44420     0.41765     0.41345
 Rotational constants (GHZ):          92.60213     8.70231     8.61487
    1 imaginary frequencies ignored.
 Zero-point vibrational energy     163798.1 (Joules/Mol)
                                   39.14868 (Kcal/Mol)
 Warning -- explicit consideration of   4 degrees of freedom as
           vibrations may cause significant error
 Vibrational temperatures:     55.26   542.87   573.44   805.01  1114.05
          (Kelvin)           1221.50  1630.54  1986.29  2031.96  2047.76
                             2174.40  2308.96  4333.98  4520.64  4525.40
                             4688.45  4840.24

 Zero-point correction=                           0.062387 (Hartree/Particle)
 Thermal correction to Energy=                    0.067109
 Thermal correction to Enthalpy=                  0.068053
 Thermal correction to Gibbs Free Energy=         0.035993
 Sum of electronic and zero-point Energies=            -96.306299
 Sum of electronic and thermal Energies=               -96.301577
 Sum of electronic and thermal Enthalpies=             -96.300633
 Sum of electronic and thermal Free Energies=          -96.332694

                     E (Thermal)             CV                S
                      KCal/Mol        Cal/Mol-Kelvin    Cal/Mol-Kelvin
 Total                   42.112             14.010             67.477
 Electronic               0.000              0.000              1.377
 Translational            0.889              2.981             36.326
 Rotational               0.889              2.981             21.365
 Vibrational             40.334              8.049              8.408
 Vibration     1          0.594              1.982              5.340
 Vibration     2          0.748              1.518              1.050
 Vibration     3          0.765              1.473              0.968
 Vibration     4          0.915              1.119              0.525

                           ! Non-Optimized Parameters !
 Normal termination of Gaussian 16 at Wed Oct  7 13:27:20 2020.
