 Gaussian 16, Revision A.03,
 Gaussian 16:  ES64L-G16RevA.03 25-Dec-2016

 ----------------------------------------------------------------------
 #P Opt(MaxCyc=100) PBEPBE/6-31G* 5D 7F Integral=UltraFineGrid SCF=(NoS
 ymm,XQC,MaxCyc=120) EmpiricalDispersion=GD3BJ IOp(1/33=1)
 ----------------------------------------------------------------------

 TstMul:  Mul=     2
 TstMul:  ICh=     0
 TstMul:  Mul=     2
 Symbolic Z-matrix:
 Charge =  0 Multiplicity = 2

 SCF Done:  E(UPBE-PBE) =  -79.0312415837     A.U. after   13 cycles
 SCF Done:  E(UPBE-PBE) =  -79.0319200716     A.U. after   11 cycles
 SCF Done:  E(UPBE-PBE) =  -79.0319328908     A.U. after    9 cycles
 SCF Done:  E(UPBE-PBE) =  -79.0319345080     A.U. after    8 cycles
 Optimization completed.
    -- Stationary point found.

                         Standard orientation:
 ---------------------------------------------------------------------
 Center     Atomic      Atomic             Coordinates (Angstroms)
 Number     Number       Type             X           Y           Z
 ---------------------------------------------------------------------
      1          6           0       -0.011115   -0.693214    0.000000
      2          6           0       -0.011115    0.795414   -0.000000
      3          1           0        1.019612   -1.115713    0.000000
      4          1           0       -0.511776   -1.106416    0.894141
      5          1           0       -0.511776   -1.106416   -0.894141
      6          1           0        0.068658    1.357672   -0.934191
      7          1           0        0.068658    1.357672    0.934191
 ---------------------------------------------------------------------

 The electronic state is 2-A'.
 Alpha  occ. eigenvalues --   -9.89114  -9.88339  -0.67611  -0.53802  -0.39390
 Alpha  occ. eigenvalues --   -0.35831  -0.33985  -0.30579  -0.15479
 Alpha virt. eigenvalues --    0.09110   0.11291   0.11856   0.14750   0.19306
 Alpha virt. eigenvalues --    0.22645   0.47892   0.50777   0.51418   0.57454
 Alpha virt. eigenvalues --    0.58236   0.70435   0.74610   0.81354   0.82400

  Beta  occ. eigenvalues --   -9.88419  -9.87772  -0.66168  -0.51765  -0.38756
  Beta  occ. eigenvalues --   -0.34703  -0.33189  -0.30154
  Beta virt. eigenvalues --   -0.06511   0.09607   0.12110   0.12744   0.15534
  Beta virt. eigenvalues --    0.19804   0.23624   0.48608   0.51113   0.56206
  Beta virt. eigenvalues --    0.59170   0.61340   0.71233   0.76520   0.82051

 Mulliken charges and spin densities:
               1          2
     1  C   -0.502397  -0.076000
     2  C   -0.312153   1.079413
     3  H    0.171492   0.067683
     4  H    0.169479   0.015470
     5  H    0.169479   0.015470
     6  H    0.152050  -0.051018
     7  H    0.152050  -0.051018
 Sum of Mulliken charges =   0.00000   1.00000

 Dipole moment (field-independent basis, Debye):
    X=              0.1338    Y=             -0.2532    Z=              0.0000  Tot=              0.2864
 Quadrupole moment (field-independent basis, Debye-Ang):
   XX=            -14.9475   YY=            -13.9016   ZZ=            -13.3795
   XY=              0.1717   XZ=              0.0000   YZ=             -0.0000

 Normal termination of Gaussian 16 at Wed Oct  7 12:50:39 2020.
