 Gaussian 16, Revision A.03,
 Gaussian 16:  ES64L-G16RevA.03 25-Dec-2016

 ----------------------------------------------------------------------
 #P Opt(MaxCyc=100) PBEPBE/6-31G* 5D 7F Integral=UltraFineGrid SCF=(NoS
 ymm,XQC,MaxCyc=120) EmpiricalDispersion=GD3BJ IOp(1/33=1)
 ----------------------------------------------------------------------

 TstMul:  Mul=     1
 TstMul:  ICh=     0
 TstMul:  Mul=     1
 Symbolic Z-matrix:
 Charge =  0 Multiplicity = 1

 SCF Done:  E(RPBE-PBE) =  -499.837920154     A.U. after   11 cycles
 SCF Done:  E(RPBE-PBE) =  -499.838453388     A.U. after   10 cycles
 SCF Done:  E(RPBE-PBE) =  -499.838455008     A.U. after    7 cycles
 Optimization completed.
    -- Stationary point found.

                         Standard orientation:
 ---------------------------------------------------------------------
 Center     Atomic      Atomic             Coordinates (Angstroms)
 Number     Number       Type             X           Y           Z
 ---------------------------------------------------------------------
      1          6           0        0.000000    0.000000   -1.134820
      2         17           0        0.000000    0.000000    0.663152
      3          1           0        0.000000    1.040597   -1.488220
      4          1           0        0.901183   -0.520298   -1.488220
      5          1           0       -0.901183   -0.520298   -1.488220
 ---------------------------------------------------------------------

 The electronic state is 1-A1.
 Alpha  occ. eigenvalues -- -100.64750  -9.94561  -9.16240  -6.98842  -6.97598
 Alpha  occ. eigenvalues --   -6.97598  -0.77363  -0.61076  -0.39930  -0.39930
 Alpha  occ. eigenvalues --   -0.37364  -0.25340  -0.25340
 Alpha virt. eigenvalues --   -0.00541   0.08152   0.11449   0.11449   0.37625
 Alpha virt. eigenvalues --    0.41090   0.43002   0.43002   0.49352   0.49352
 Alpha virt. eigenvalues --    0.51989   0.78173   0.78173   0.81754   0.83558

 Mulliken charges:
               1
     1  C   -0.576807
     2  Cl  -0.069494
     3  H    0.215433
     4  H    0.215433
     5  H    0.215433
 Sum of Mulliken charges =  -0.00000

 Dipole moment (field-independent basis, Debye):
    X=             -0.0000    Y=              0.0000    Z=             -2.0137  Tot=              2.0137
 Quadrupole moment (field-independent basis, Debye-Ang):
   XX=            -19.7438   YY=            -19.7438   ZZ=            -17.9347
   XY=              0.0000   XZ=              0.0000   YZ=             -0.0000

 Normal termination of Gaussian 16 at Wed Oct  7 12:51:21 2020.
