 Gaussian 16, Revision A.03,
 Gaussian 16:  ES64L-G16RevA.03 25-Dec-2016

 ----------------------------------------------------------------------
 #P Opt(MaxCyc=100) PBEPBE/6-31G* 5D 7F Integral=UltraFineGrid SCF=(NoS
 ymm,XQC,MaxCyc=120) EmpiricalDispersion=GD3BJ IOp(1/33=1)
 ----------------------------------------------------------------------

 TstMul:  Mul=     2
 TstMul:  ICh=     0
 TstMul:  Mul=     2
 Symbolic Z-matrix:
 Charge =  0 Multiplicity = 2

 SCF Done:  E(UPBE-PBE) =  -118.288488270     A.U. after   14 cycles
 SCF Done:  E(UPBE-PBE) =  -118.289366013     A.U. after   11 cycles
 SCF Done:  E(UPBE-PBE) =  -118.289373643     A.U. after    9 cycles
 SCF Done:  E(UPBE-PBE) =  -118.289374405     A.U. after    8 cycles
 Optimization completed.
    -- Stationary point found.

                         Standard orientation:
 ---------------------------------------------------------------------
 Center     Atomic      Atomic             Coordinates (Angstroms)
 Number     Number       Type             X           Y           Z
 ---------------------------------------------------------------------
      1          6           0        1.215678   -0.287448    0.000059
      2          6           0       -0.070925    0.576353   -0.000057
      3          6           0       -1.321681   -0.237381   -0.000014
      4          1           0        1.253183   -0.937073    0.891121
      5          1           0        1.253207   -0.937275   -0.890855
      6          1           0        2.118278    0.349491   -0.000003
      7          1           0       -0.047322    1.237826   -0.887325
      8          1           0       -0.047380    1.238017    0.887063
      9          1           0       -1.734383   -0.629754    0.934192
     10          1           0       -1.734013   -0.630376   -0.934124
 ---------------------------------------------------------------------

 The electronic state is 2-A.
 Alpha  occ. eigenvalues --   -9.88993  -9.88926  -9.87896  -0.70183  -0.60027
 Alpha  occ. eigenvalues --   -0.51397  -0.40801  -0.37591  -0.34152  -0.33050
 Alpha  occ. eigenvalues --   -0.30135  -0.28442  -0.15670
 Alpha virt. eigenvalues --    0.08107   0.11381   0.11411   0.13129   0.14958
 Alpha virt. eigenvalues --    0.15067   0.19480   0.19611   0.23969   0.48408
 Alpha virt. eigenvalues --    0.50087   0.50626   0.52138   0.55255   0.57560

  Beta  occ. eigenvalues --   -9.89000  -9.87757  -9.87660  -0.69292  -0.58482
  Beta  occ. eigenvalues --   -0.50224  -0.40368  -0.37068  -0.33649  -0.32164
  Beta  occ. eigenvalues --   -0.29652  -0.28247
  Beta virt. eigenvalues --   -0.06881   0.08517   0.11603   0.12685   0.13356
  Beta virt. eigenvalues --    0.15205   0.15399   0.19953   0.20158   0.24966
  Beta virt. eigenvalues --    0.49127   0.50847   0.52614   0.53305   0.57963

 Mulliken charges and spin densities:
               1          2
     1  C   -0.474838   0.051383
     2  C   -0.300615  -0.067649
     3  C   -0.312712   1.076222
     4  H    0.160259  -0.000529
     5  H    0.160256  -0.000531
     6  H    0.155946   0.015424
     7  H    0.156532   0.013408
     8  H    0.156527   0.013381
     9  H    0.149325  -0.050555
    10  H    0.149321  -0.050554
 Sum of Mulliken charges =  -0.00000   1.00000

 Dipole moment (field-independent basis, Debye):
    X=              0.2655    Y=             -0.0123    Z=              0.0001  Tot=              0.2657
 Quadrupole moment (field-independent basis, Debye-Ang):
   XX=            -21.5411   YY=            -21.0515   ZZ=            -19.8448
   XY=              0.7634   XZ=             -0.0005   YZ=              0.0004

 Normal termination of Gaussian 16 at Wed Oct  7 12:51:49 2020.
