 Gaussian 16, Revision A.03,
 Gaussian 16:  ES64L-G16RevA.03 25-Dec-2016

 ----------------------------------------------------------------------
 #P Opt(MaxCyc=100) PBEPBE/6-31G* 5D 7F Integral=UltraFineGrid SCF=(NoS
 ymm,XQC,MaxCyc=120) EmpiricalDispersion=GD3BJ IOp(1/33=1)
 ----------------------------------------------------------------------

 TstMul:  Mul=     1
 TstMul:  ICh=     0
 TstMul:  Mul=     1
 Symbolic Z-matrix:
 Charge =  0 Multiplicity = 1

 SCF Done:  E(RPBE-PBE) =  -79.6996542909     A.U. after    9 cycles
 SCF Done:  E(RPBE-PBE) =  -79.7003455185     A.U. after    9 cycles
 SCF Done:  E(RPBE-PBE) =  -79.7003481838     A.U. after    6 cycles
 Optimization completed.
    -- Stationary point found.

                         Standard orientation:
 ---------------------------------------------------------------------
 Center     Atomic      Atomic             Coordinates (Angstroms)
 Number     Number       Type             X           Y           Z
 ---------------------------------------------------------------------
      1          6           0       -0.765791   -0.000000   -0.000000
      2          6           0        0.765791    0.000000    0.000000
      3          1           0        1.168135   -0.089235   -1.023950
      4          1           0       -1.168130   -0.931185   -0.435127
      5          1           0        1.168134   -0.842150    0.589256
      6          1           0        1.168130    0.931387    0.434695
      7          1           0       -1.168135    0.088760    1.023991
      8          1           0       -1.168134    0.842423   -0.588865
 ---------------------------------------------------------------------

 The electronic state is 1-A.
 Alpha  occ. eigenvalues --   -9.87508  -9.87506  -0.67241  -0.54461  -0.37796
 Alpha  occ. eigenvalues --   -0.37796  -0.31728  -0.29175  -0.29175
 Alpha virt. eigenvalues --    0.08209   0.13144   0.13414   0.13414   0.16305
 Alpha virt. eigenvalues --    0.16305   0.20716   0.48125   0.51288   0.51288
 Alpha virt. eigenvalues --    0.60269   0.60269   0.62112   0.83245   0.83245

 Mulliken charges:
               1
     1  C   -0.477908
     2  C   -0.477908
     3  H    0.159303
     4  H    0.159303
     5  H    0.159303
     6  H    0.159303
     7  H    0.159303
     8  H    0.159303
 Sum of Mulliken charges =  -0.00000

 Dipole moment (field-independent basis, Debye):
    X=             -0.0000    Y=             -0.0000    Z=              0.0000  Tot=              0.0000
 Quadrupole moment (field-independent basis, Debye-Ang):
   XX=            -15.1809   YY=            -14.6836   ZZ=            -14.6836
   XY=             -0.0000   XZ=             -0.0000   YZ=              0.0000

 Normal termination of Gaussian 16 at Wed Oct  7 12:50:55 2020.
