 Gaussian 16, Revision A.03,
 Gaussian 16:  ES64L-G16RevA.03 25-Dec-2016

 ----------------------------------------------------------------------
 #P Opt(MaxCyc=100) PBEPBE/6-31G* 5D 7F Integral=UltraFineGrid SCF=(NoS
 ymm,XQC,MaxCyc=120) EmpiricalDispersion=GD3BJ IOp(1/33=1)
 ----------------------------------------------------------------------

 TstMul:  Mul=     1
 TstMul:  ICh=     0
 TstMul:  Mul=     1
 Symbolic Z-matrix:
 Charge =  0 Multiplicity = 1

 SCF Done:  E(RPBE-PBE) =  -78.4659576835     A.U. after    9 cycles
 SCF Done:  E(RPBE-PBE) =  -78.4665574951     A.U. after    9 cycles
 SCF Done:  E(RPBE-PBE) =  -78.4665613857     A.U. after    6 cycles
 Optimization completed.
    -- Stationary point found.

                         Standard orientation:
 ---------------------------------------------------------------------
 Center     Atomic      Atomic             Coordinates (Angstroms)
 Number     Number       Type             X           Y           Z
 ---------------------------------------------------------------------
      1          6           0        0.000000   -0.000000    0.669735
      2          6           0        0.000000   -0.000000   -0.669735
      3          1           0        0.000000    0.931181    1.246838
      4          1           0       -0.000000   -0.931181    1.246838
      5          1           0        0.000000    0.931181   -1.246838
      6          1           0       -0.000000   -0.931181   -1.246838
 ---------------------------------------------------------------------

 The electronic state is 1-AG.
 Alpha  occ. eigenvalues --   -9.88762  -9.88711  -0.67754  -0.51479  -0.41025
 Alpha  occ. eigenvalues --   -0.36243  -0.30534  -0.23166
 Alpha virt. eigenvalues --   -0.01610   0.09698   0.11155   0.12963   0.21837
 Alpha virt. eigenvalues --    0.29827   0.45114   0.51218   0.53598   0.59468
 Alpha virt. eigenvalues --    0.62448   0.64852   0.79994   0.81671   0.87550

 Mulliken charges:
               1
     1  C   -0.304569
     2  C   -0.304569
     3  H    0.152285
     4  H    0.152285
     5  H    0.152285
     6  H    0.152285
 Sum of Mulliken charges =  -0.00000

 Dipole moment (field-independent basis, Debye):
    X=             -0.0000    Y=             -0.0000    Z=              0.0000  Tot=              0.0000
 Quadrupole moment (field-independent basis, Debye-Ang):
   XX=            -15.0800   YY=            -12.0468   ZZ=            -11.9626
   XY=              0.0000   XZ=             -0.0000   YZ=              0.0000

 Normal termination of Gaussian 16 at Wed Oct  7 12:50:16 2020.
