 Gaussian 16, Revision A.03,
 Gaussian 16:  ES64L-G16RevA.03 25-Dec-2016

 ----------------------------------------------------------------------
 #P Opt(MaxCyc=100) PBEPBE/6-31G* 5D 7F Integral=UltraFineGrid SCF=(NoS
 ymm,XQC,MaxCyc=120) EmpiricalDispersion=GD3BJ IOp(1/33=1)
 ----------------------------------------------------------------------

 TstMul:  Mul=     1
 TstMul:  ICh=     0
 TstMul:  Mul=     1
 Symbolic Z-matrix:
 Charge =  0 Multiplicity = 1

 SCF Done:  E(RPBE-PBE) =  -195.031568242     A.U. after   14 cycles
 SCF Done:  E(RPBE-PBE) =  -195.033082339     A.U. after   12 cycles
 SCF Done:  E(RPBE-PBE) =  -195.033105617     A.U. after    9 cycles
 SCF Done:  E(RPBE-PBE) =  -195.033107882     A.U. after    8 cycles
 Optimization completed.
    -- Stationary point found.

                         Standard orientation:
 ---------------------------------------------------------------------
 Center     Atomic      Atomic             Coordinates (Angstroms)
 Number     Number       Type             X           Y           Z
 ---------------------------------------------------------------------
      1          6           0       -2.071194   -0.610138    0.000001
      2          6           0       -1.241567    0.639876    0.000050
      3          6           0        0.111961    0.732194    0.000034
      4          6           0        1.061793   -0.368603   -0.000034
      5          6           0        2.403267   -0.202688   -0.000045
      6          1           0       -2.734422   -0.641703    0.885229
      7          1           0       -2.734455   -0.641612   -0.885206
      8          1           0       -1.466092   -1.530034   -0.000057
      9          1           0       -1.810836    1.578970    0.000104
     10          1           0        0.557276    1.736578    0.000077
     11          1           0        0.658558   -1.389150   -0.000080
     12          1           0        3.090537   -1.053529   -0.000097
     13          1           0        2.853878    0.796633   -0.000001
 ---------------------------------------------------------------------

 The electronic state is 1-A.
 Alpha  occ. eigenvalues --   -9.89452  -9.89242  -9.88792  -9.88680  -9.88226
 Alpha  occ. eigenvalues --   -0.72600  -0.67603  -0.60989  -0.52638  -0.46973
 Alpha  occ. eigenvalues --   -0.41996  -0.39182  -0.36274  -0.35060  -0.32999
 Alpha  occ. eigenvalues --   -0.31811  -0.28527  -0.27102  -0.18826
 Alpha virt. eigenvalues --   -0.04716   0.05344   0.07783   0.08483   0.10859
 Alpha virt. eigenvalues --    0.13568   0.14432   0.14681   0.16583   0.19883
 Alpha virt. eigenvalues --    0.22220   0.29841   0.34575   0.39851   0.44387

 Mulliken charges:
               1
     1  C   -0.535843
     2  C   -0.118458
     3  C   -0.121070
     4  C   -0.064711
     5  C   -0.374851
     6  H    0.175265
     7  H    0.175265
     8  H    0.170829
     9  H    0.136418
    10  H    0.127731
    11  H    0.131070
    12  H    0.150191
    13  H    0.148164
 Sum of Mulliken charges =  -0.00000

 Dipole moment (field-independent basis, Debye):
    X=             -0.5606    Y=             -0.1456    Z=              0.0000  Tot=              0.5792
 Quadrupole moment (field-independent basis, Debye-Ang):
   XX=            -28.6678   YY=            -29.3160   ZZ=            -34.2215
   XY=              0.0951   XZ=             -0.0001   YZ=              0.0002

 Normal termination of Gaussian 16 at Wed Oct  7 12:52:20 2020.
