 Gaussian 16, Revision A.03,
 Gaussian 16:  ES64L-G16RevA.03 25-Dec-2016

 ----------------------------------------------------------------------
 #P Opt(MaxCyc=100) PBEPBE/6-31G* 5D 7F Integral=UltraFineGrid SCF=(NoS
 ymm,XQC,MaxCyc=120) EmpiricalDispersion=GD3BJ IOp(1/33=1)
 ----------------------------------------------------------------------

 TstMul:  Mul=     2
 TstMul:  ICh=     0
 TstMul:  Mul=     2
 Symbolic Z-matrix:
 Charge =  0 Multiplicity = 2

 SCF Done:  E(UPBE-PBE) =  -79.0312684467     A.U. after   13 cycles
 SCF Done:  E(UPBE-PBE) =  -79.0319229795     A.U. after   11 cycles
 SCF Done:  E(UPBE-PBE) =  -79.0319330320     A.U. after    9 cycles
 Optimization completed.
    -- Stationary point found.

                         Standard orientation:
 ---------------------------------------------------------------------
 Center     Atomic      Atomic             Coordinates (Angstroms)
 Number     Number       Type             X           Y           Z
 ---------------------------------------------------------------------
      1          6           0        0.795519   -0.000003   -0.022013
      2          6           0       -0.693980    0.000198   -0.001310
      3          1           0       -1.112520    0.900312   -0.486255
      4          1           0        1.357856   -0.934972    0.048996
      5          1           0       -1.100399   -0.012557    1.035393
      6          1           0       -1.112980   -0.888275   -0.507349
      7          1           0        1.358805    0.934323    0.049157
 ---------------------------------------------------------------------

 The electronic state is 2-A.
 Alpha  occ. eigenvalues --   -9.89118  -9.88339  -0.67597  -0.53794  -0.39390
 Alpha  occ. eigenvalues --   -0.35844  -0.33949  -0.30590  -0.15479
 Alpha virt. eigenvalues --    0.09102   0.11288   0.11866   0.14759   0.19301
 Alpha virt. eigenvalues --    0.22597   0.47914   0.50779   0.51422   0.57414
 Alpha virt. eigenvalues --    0.58226   0.70425   0.74577   0.81388   0.82411

  Beta  occ. eigenvalues --   -9.88418  -9.87775  -0.66155  -0.51755  -0.38757
  Beta  occ. eigenvalues --   -0.34721  -0.33152  -0.30165
  Beta virt. eigenvalues --   -0.06503   0.09601   0.12116   0.12743   0.15539
  Beta virt. eigenvalues --    0.19799   0.23576   0.48628   0.51115   0.56208
  Beta virt. eigenvalues --    0.59126   0.61334   0.71223   0.76487   0.82082

 Mulliken charges and spin densities:
               1          2
     1  C   -0.312385   1.079948
     2  C   -0.502282  -0.075864
     3  H    0.169396   0.014786
     4  H    0.151987  -0.051038
     5  H    0.171617   0.067217
     6  H    0.169533   0.016026
     7  H    0.152135  -0.051074
 Sum of Mulliken charges =   0.00000   1.00000

 Dipole moment (field-independent basis, Debye):
    X=             -0.2507    Y=             -0.0006    Z=              0.1361  Tot=              0.2853
 Quadrupole moment (field-independent basis, Debye-Ang):
   XX=            -13.9053   YY=            -13.3764   ZZ=            -14.9490
   XY=              0.0014   XZ=              0.1557   YZ=              0.0002

 Normal termination of Gaussian 16 at Wed Oct  7 12:50:58 2020.
