 Gaussian 16, Revision A.03,

 ----------------------------------------------------------------------
 #P Opt(TS,MaxCyc=50,NoEigenTest,MaxStep=10,AddRedundant) PBEPBE/6-31G*
  5D 7F Integral=UltraFineGrid SCF=(NoSymm,XQC,MaxCyc=120) EmpiricalDis
 persion=GD3BJ IOp(1/33=1)
 ----------------------------------------------------------------------

 TstMul:  Mul=     2
 TstMul:  ICh=     0
 TstMul:  Mul=     2
 Symbolic Z-matrix:
 Charge =  0 Multiplicity = 2

 SCF Done:  E(UPBE-PBE) =  -78.9654797678     A.U. after   15 cycles
 SCF Done:  E(UPBE-PBE) =  -78.9667956176     A.U. after   14 cycles
 SCF Done:  E(UPBE-PBE) =  -78.9660886375     A.U. after   14 cycles
 SCF Done:  E(UPBE-PBE) =  -78.9655122869     A.U. after   14 cycles
 SCF Done:  E(UPBE-PBE) =  -78.9650991868     A.U. after   14 cycles
 SCF Done:  E(UPBE-PBE) =  -78.9648240745     A.U. after   14 cycles
 SCF Done:  E(UPBE-PBE) =  -78.9646541133     A.U. after   14 cycles
 SCF Done:  E(UPBE-PBE) =  -78.9645597063     A.U. after   14 cycles
 SCF Done:  E(UPBE-PBE) =  -78.9645179668     A.U. after   13 cycles
 SCF Done:  E(UPBE-PBE) =  -78.9645120501     A.U. after   13 cycles
 SCF Done:  E(UPBE-PBE) =  -78.9645128854     A.U. after    9 cycles
 SCF Done:  E(UPBE-PBE) =  -78.9645134000     A.U. after   12 cycles
 SCF Done:  E(UPBE-PBE) =  -78.9645140500     A.U. after   10 cycles
 SCF Done:  E(UPBE-PBE) =  -78.9645185834     A.U. after   12 cycles
 SCF Done:  E(UPBE-PBE) =  -78.9645196099     A.U. after    9 cycles
 SCF Done:  E(UPBE-PBE) =  -78.9645198589     A.U. after    9 cycles
 Optimization completed.
    -- Stationary point found.

 1\1\GINC-NODE61\FTS\UPBEPBE\6-31G(d)\C2H5(2)\RPEVERATI\07-Oct-2020\0\\
 #P Opt(TS,MaxCyc=50,NoEigenTest,MaxStep=10,AddRedundant) PBEPBE/6-31G*
  5D 7F Integral=UltraFineGrid SCF=(NoSymm,XQC,MaxCyc=120) EmpiricalDis
 persion=GD3BJ IOp(1/33=1)\\TS search on BH76.\\0,2\C,-0.5310994113,0.0
 004152866,-0.2912011915\C,0.7775271129,0.0005899177,0.0150821401\H,-1.
 6660292819,-0.0032360299,1.7598001145\H,-1.0857753023,0.9310294469,-0.
 4519626426\H,-1.0846703617,-0.9301705152,-0.4558765891\H,1.3375046098,
 -0.9305646592,0.152487284\H,1.3362352515,0.9318604357,0.1568012628\\Ve

 Normal termination of Gaussian 16 at Wed Oct  7 12:55:36 2020.
 Gaussian 16:  ES64L-G16RevA.03 25-Dec-2016

 ----------------------------------------------------------------------
 #P Freq PBEPBE/6-31G* 5D 7F Integral=UltraFineGrid SCF=(NoSymm,XQC,Max
 Cyc=120) EmpiricalDispersion=GD3BJ IOp(1/33=1) Geom=Check Guess=Read
 ----------------------------------------------------------------------

 TstMul:  Mul=     2
 TstMul:  ICh=     0
 TstMul:  Mul=     2
 Structure from the checkpoint file:  "MN_13_c2h5ts_BH76_PBEDBJ_631Gs.chk"
 Charge =  0 Multiplicity = 2

                         Standard orientation:
 ---------------------------------------------------------------------
 Center     Atomic      Atomic             Coordinates (Angstroms)
 Number     Number       Type             X           Y           Z
 ---------------------------------------------------------------------
      1          6           0       -0.535154    0.290564    0.001183
      2          6           0        0.755578   -0.084030   -0.000305
      3          1           0       -1.776249   -1.697977   -0.007283
      4          1           0       -1.080159    0.477696    0.932582
      5          1           0       -1.079772    0.486628   -0.928601
      6          1           0        1.307104   -0.248115   -0.932185
      7          1           0        1.306533   -0.257441    0.930222
 ---------------------------------------------------------------------

 SCF Done:  E(UPBE-PBE) =  -78.9645198589     A.U. after    1 cycles

 The electronic state is 2-A.
 Alpha  occ. eigenvalues --   -9.89401  -9.89275  -0.68264  -0.52007  -0.41395
 Alpha  occ. eigenvalues --   -0.36728  -0.30951  -0.27354  -0.20993
 Alpha virt. eigenvalues --   -0.01699   0.09431   0.10898   0.12660   0.21539
 Alpha virt. eigenvalues --    0.29297   0.44677   0.51911   0.53091   0.58395
 Alpha virt. eigenvalues --    0.62772   0.64922   0.78160   0.79761   0.81200

  Beta  occ. eigenvalues --   -9.89452  -9.89092  -0.68084  -0.51855  -0.41334
  Beta  occ. eigenvalues --   -0.36601  -0.30905  -0.23966
  Beta virt. eigenvalues --   -0.07124   0.00029   0.09524   0.10922   0.12769
  Beta virt. eigenvalues --    0.21566   0.29366   0.44742   0.52765   0.53118
  Beta virt. eigenvalues --    0.59334   0.63575   0.67085   0.79786   0.81266

 Mulliken charges and spin densities:
               1          2
     1  C   -0.316108  -0.079085
     2  C   -0.294880   0.142659
     3  H   -0.023597   0.941260
     4  H    0.161591   0.004260
     5  H    0.161584   0.004255
     6  H    0.155704  -0.006675
     7  H    0.155706  -0.006674
 Sum of Mulliken charges =  -0.00000   1.00000

 Dipole moment (field-independent basis, Debye):
    X=              0.2196    Y=              0.2544    Z=              0.0011  Tot=              0.3361
 Quadrupole moment (field-independent basis, Debye-Ang):
   XX=            -13.8514   YY=            -16.3948   ZZ=            -13.2847
   XY=             -1.3041   XZ=             -0.0062   YZ=             -0.0153

  Exact polarizability:  36.295   1.380  18.235   0.005  -0.019  20.861
 Approx polarizability:  65.871  -3.389  23.588  -0.015  -0.039  29.937

 ******    1 imaginary frequencies (negative Signs) ******

                      1                      2                      3
                      A                      A                      A
 Frequencies --   -265.8535               199.8591               239.5198
 Red. masses --      1.0815                 1.2226                 1.0377
 Frc consts  --      0.0450                 0.0288                 0.0351
 IR Inten    --     32.5049                 1.8337                 0.0544

                      4                      5                      6
                      A                      A                      A
 Frequencies --    807.4806               899.5736               934.9171
 Red. masses --      1.0423                 1.4726                 1.1440
 Frc consts  --      0.4004                 0.7021                 0.5891
 IR Inten    --      1.3759                 2.6507                89.0317

                      7                      8                      9
                      A                      A                      A
 Frequencies --   1032.6708              1206.1902              1349.0234
 Red. masses --      1.0083                 1.5228                 1.2430
 Frc consts  --      0.6336                 1.3054                 1.3328
 IR Inten    --      0.0117                 0.0006                 0.5097

                     10                     11                     12
                      A                      A                      A
 Frequencies --   1443.1248              1648.4162              3088.7546
 Red. masses --      1.1124                 3.0147                 1.0476
 Frc consts  --      1.3650                 4.8265                 5.8885
 IR Inten    --      6.5761                 3.1691                13.6112

                     13                     14                     15
                      A                      A                      A
 Frequencies --   3101.9973              3162.7956              3188.5198
 Red. masses --      1.0713                 1.1147                 1.1178
 Frc consts  --      6.0737                 6.5695                 6.6955
 IR Inten    --      1.0560                 0.0660                24.2029

 - Thermochemistry -
 -------------------
 Temperature   298.150 Kelvin.  Pressure   1.00000 Atm.
 Atom     1 has atomic number  6 and mass  12.00000

 Molecular mass:    29.03913 amu.
 Principal axes and moments of inertia in atomic units:
                           1         2         3
     Eigenvalues --    28.27367  81.49026  84.81303
           X            0.99580   0.09159   0.00020
           Y           -0.09159   0.99580  -0.00161
           Z           -0.00035   0.00159   1.00000
 This molecule is an asymmetric top.
 Rotational symmetry number  1.
 Rotational temperatures (Kelvin)      3.06341     1.06287     1.02123
 Rotational constants (GHZ):          63.83116    22.14671    21.27905
    1 imaginary frequencies ignored.
 Zero-point vibrational energy     133400.6 (Joules/Mol)
                                   31.88351 (Kcal/Mol)
 Warning -- explicit consideration of   2 degrees of freedom as
           vibrations may cause significant error
 Vibrational temperatures:    287.55   344.62  1161.78  1294.29  1345.14
          (Kelvin)           1485.78  1735.44  1940.94  2076.33  2371.70
                             4444.03  4463.08  4550.56  4587.57

 Zero-point correction=                           0.050810 (Hartree/Particle)
 Thermal correction to Energy=                    0.054949
 Thermal correction to Enthalpy=                  0.055893
 Thermal correction to Gibbs Free Energy=         0.026489
 Sum of electronic and zero-point Energies=            -78.913710
 Sum of electronic and thermal Energies=               -78.909571
 Sum of electronic and thermal Enthalpies=             -78.908627
 Sum of electronic and thermal Free Energies=          -78.938031

                     E (Thermal)             CV                S
                      KCal/Mol        Cal/Mol-Kelvin    Cal/Mol-Kelvin
 Total                   34.481             11.980             61.887
 Electronic               0.000              0.000              1.377
 Translational            0.889              2.981             36.032
 Rotational               0.889              2.981             19.908
 Vibrational             32.704              6.019              4.569
 Vibration     1          0.638              1.840              2.134
 Vibration     2          0.657              1.780              1.806

                           ! Non-Optimized Parameters !
 Normal termination of Gaussian 16 at Wed Oct  7 12:56:22 2020.
