 Gaussian 16, Revision A.03,

 ----------------------------------------------------------------------
 #P Opt(TS,MaxCyc=50,NoEigenTest,MaxStep=10,AddRedundant) PBEPBE/6-31G*
  5D 7F Integral=UltraFineGrid SCF=(NoSymm,XQC,MaxCyc=120) EmpiricalDis
 persion=GD3BJ IOp(1/33=1)
 ----------------------------------------------------------------------

 TstMul:  Mul=     2
 TstMul:  ICh=     0
 TstMul:  Mul=     2
 Symbolic Z-matrix:
 Charge =  0 Multiplicity = 2

 SCF Done:  E(UPBE-PBE) =  -118.236783409     A.U. after   15 cycles
 SCF Done:  E(UPBE-PBE) =  -118.238853299     A.U. after   14 cycles
 SCF Done:  E(UPBE-PBE) =  -118.237613536     A.U. after   14 cycles
 SCF Done:  E(UPBE-PBE) =  -118.236619570     A.U. after   14 cycles
 SCF Done:  E(UPBE-PBE) =  -118.235936408     A.U. after   14 cycles
 SCF Done:  E(UPBE-PBE) =  -118.235517806     A.U. after   14 cycles
 SCF Done:  E(UPBE-PBE) =  -118.235312224     A.U. after   15 cycles
 SCF Done:  E(UPBE-PBE) =  -118.235270044     A.U. after   13 cycles
 SCF Done:  E(UPBE-PBE) =  -118.235270381     A.U. after   10 cycles
 SCF Done:  E(UPBE-PBE) =  -118.235271425     A.U. after   10 cycles
 SCF Done:  E(UPBE-PBE) =  -118.235284596     A.U. after   13 cycles
 SCF Done:  E(UPBE-PBE) =  -118.235292148     A.U. after   11 cycles
 SCF Done:  E(UPBE-PBE) =  -118.235307510     A.U. after   12 cycles
 SCF Done:  E(UPBE-PBE) =  -118.235313333     A.U. after   11 cycles
 SCF Done:  E(UPBE-PBE) =  -118.235317153     A.U. after   11 cycles
 SCF Done:  E(UPBE-PBE) =  -118.235318512     A.U. after   10 cycles
 SCF Done:  E(UPBE-PBE) =  -118.235319276     A.U. after   10 cycles
 SCF Done:  E(UPBE-PBE) =  -118.235319522     A.U. after    8 cycles
 SCF Done:  E(UPBE-PBE) =  -118.235319664     A.U. after    9 cycles
 Optimization completed.
    -- Stationary point found.

 1\1\GINC-NODE51\FTS\UPBEPBE\6-31G(d)\C3H7(2)\RPEVERATI\07-Oct-2020\0\\
 #P Opt(TS,MaxCyc=50,NoEigenTest,MaxStep=10,AddRedundant) PBEPBE/6-31G*
  5D 7F Integral=UltraFineGrid SCF=(NoSymm,XQC,MaxCyc=120) EmpiricalDis
 persion=GD3BJ IOp(1/33=1)\\TS search on BH76.\\0,2\C,-0.5663041307,0.6
 610325573,0.0052783083\C,-1.4627383907,-0.3540470666,-0.0045143064\H,-
 0.2656361873,1.1647698366,-0.9185883679\H,-0.2666055488,1.147767554,0.
 9385243578\H,-1.8249728688,-0.8108804014,0.9223603807\H,-1.8239679936,
 -0.7937040609,-0.9400499728\C,1.7630681639,-0.2652139461,-0.0006714127

 Normal termination of Gaussian 16 at Wed Oct  7 12:56:52 2020.
 Gaussian 16:  ES64L-G16RevA.03 25-Dec-2016

 ----------------------------------------------------------------------
 #P Freq PBEPBE/6-31G* 5D 7F Integral=UltraFineGrid SCF=(NoSymm,XQC,Max
 Cyc=120) EmpiricalDispersion=GD3BJ IOp(1/33=1) Geom=Check Guess=Read
 ----------------------------------------------------------------------

 TstMul:  Mul=     2
 TstMul:  ICh=     0
 TstMul:  Mul=     2
 Structure from the checkpoint file:  "MN_17_c3h7ts_BH76_PBEDBJ_631Gs.chk"
 Charge =  0 Multiplicity = 2

                         Standard orientation:
 ---------------------------------------------------------------------
 Center     Atomic      Atomic             Coordinates (Angstroms)
 Number     Number       Type             X           Y           Z
 ---------------------------------------------------------------------
      1          6           0       -0.574370    0.649648    0.000079
      2          6           0       -1.450938   -0.382683   -0.000078
      3          1           0       -0.284264    1.151099   -0.928396
      4          1           0       -0.283443    1.150176    0.928794
      5          1           0       -1.803508   -0.838409    0.931058
      6          1           0       -1.804300   -0.837357   -0.931431
      7          6           0        1.772538   -0.231241   -0.000081
      8          1           0        2.286038    0.732085   -0.031923
      9          1           0        1.694379   -0.812296   -0.919785
     10          1           0        1.711723   -0.759642    0.952162
 ---------------------------------------------------------------------

 SCF Done:  E(UPBE-PBE) =  -118.235319664     A.U. after    1 cycles

 The electronic state is 2-A.
 Alpha  occ. eigenvalues --   -9.88923  -9.88880  -9.88296  -0.67518  -0.60139
 Alpha  occ. eigenvalues --   -0.51217  -0.40690  -0.36375  -0.35505  -0.35140
 Alpha  occ. eigenvalues --   -0.30224  -0.24575  -0.15291
 Alpha virt. eigenvalues --   -0.00146   0.07760   0.11244   0.11463   0.13982
 Alpha virt. eigenvalues --    0.15673   0.15692   0.21882   0.29751   0.43045
 Alpha virt. eigenvalues --    0.50229   0.50366   0.52378   0.56346   0.56550

  Beta  occ. eigenvalues --   -9.89061  -9.87919  -9.87635  -0.67130  -0.57298
  Beta  occ. eigenvalues --   -0.50881  -0.40547  -0.35940  -0.34639  -0.34497
  Beta  occ. eigenvalues --   -0.30117  -0.22970
  Beta virt. eigenvalues --   -0.08023   0.01399   0.08467   0.11527   0.11919
  Beta virt. eigenvalues --    0.14306   0.16326   0.16345   0.21971   0.29976
  Beta virt. eigenvalues --    0.43630   0.50864   0.51792   0.54870   0.57057

 Mulliken charges and spin densities:
               1          2
     1  C   -0.288221  -0.125886
     2  C   -0.310864   0.296192
     3  H    0.157722   0.007095
     4  H    0.157753   0.007091
     5  H    0.148149  -0.014169
     6  H    0.148137  -0.014171
     7  C   -0.516342   0.963848
     8  H    0.163759  -0.039021
     9  H    0.170116  -0.040483
    10  H    0.169790  -0.040498
 Sum of Mulliken charges =  -0.00000   1.00000

 Dipole moment (field-independent basis, Debye):
    X=              0.1610    Y=              0.0514    Z=              0.0005  Tot=              0.1690
 Quadrupole moment (field-independent basis, Debye-Ang):
   XX=            -22.0813   YY=            -20.3436   ZZ=            -19.1786
   XY=              1.5665   XZ=              0.0002   YZ=             -0.0001

  Exact polarizability:  52.309   7.694  32.425  -0.004  -0.007  31.554
 Approx polarizability:  93.577  20.502  54.017  -0.003  -0.006  46.654

 ******    1 imaginary frequencies (negative Signs) ******

                      1                      2                      3
                      A                      A                      A
 Frequencies --   -231.3025                71.8507               182.6081
 Red. masses --      8.5037                 1.0914                 2.4748
 Frc consts  --      0.2681                 0.0033                 0.0486
 IR Inten    --      0.9839                 0.0036                 1.0031

                      4                      5                      6
                      A                      A                      A
 Frequencies --    295.3987               381.7069               398.9550
 Red. masses --      1.0637                 1.0976                 1.0752
 Frc consts  --      0.0547                 0.0942                 0.1008
 IR Inten    --      0.0817                 1.8810                 0.6045

                      7                      8                      9
                      A                      A                      A
 Frequencies --    649.0820               803.3400               846.7829
 Red. masses --      1.0888                 1.0424                 1.4530
 Frc consts  --      0.2703                 0.3964                 0.6138
 IR Inten    --     18.7919                 1.1525                17.2706

                     10                     11                     12
                      A                      A                      A
 Frequencies --    900.8876              1005.5322              1205.5442
 Red. masses --      1.1315                 1.0136                 1.5094
 Frc consts  --      0.5411                 0.6038                 1.2925
 IR Inten    --     65.9779                 0.0194                 0.0393

                     13                     14                     15
                      A                      A                      A
 Frequencies --   1322.3388              1389.9638              1395.2221
 Red. masses --      1.3778                 1.0987                 1.0979
 Frc consts  --      1.4195                 1.2507                 1.2592
 IR Inten    --      0.5210                 2.5261                 2.2050

                     16                     17                     18
                      A                      A                      A
 Frequencies --   1440.6436              1601.9905              3074.8154
 Red. masses --      1.1128                 2.4319                 1.0104
 Frc consts  --      1.3608                 3.6772                 5.6283
 IR Inten    --      4.7891                 0.1811                 0.1089

                     19                     20                     21
                      A                      A                      A
 Frequencies --   3090.9219              3103.2455              3164.7683
 Red. masses --      1.0486                 1.0668                 1.1146
 Frc consts  --      5.9025                 6.0531                 6.5775
 IR Inten    --     14.1689                 0.6780                 0.8020

                     22                     23                     24
                      A                      A                      A
 Frequencies --   3191.0380              3239.7086              3249.5039
 Red. masses --      1.1179                 1.1167                 1.1169
 Frc consts  --      6.7068                 6.9056                 6.9484
 IR Inten    --     23.7268                 7.3675                 7.2770

 - Thermochemistry -
 -------------------
 Temperature   298.150 Kelvin.  Pressure   1.00000 Atm.
 Atom     1 has atomic number  6 and mass  12.00000

 Molecular mass:    43.05478 amu.
 Principal axes and moments of inertia in atomic units:
                           1         2         3
     Eigenvalues --    66.28211 321.34273 350.10410
           X            0.99982   0.01888   0.00000
           Y           -0.01888   0.99982  -0.00007
           Z           -0.00001   0.00007   1.00000
 This molecule is an asymmetric top.
 Rotational symmetry number  1.
 Rotational temperatures (Kelvin)      1.30675     0.26954     0.24739
 Rotational constants (GHZ):          27.22818     5.61625     5.15487
    1 imaginary frequencies ignored.
 Zero-point vibrational energy     215362.8 (Joules/Mol)
                                   51.47294 (Kcal/Mol)
 Warning -- explicit consideration of   5 degrees of freedom as
           vibrations may cause significant error
 Vibrational temperatures:    103.38   262.73   425.01   549.19   574.01
          (Kelvin)            933.88  1155.83  1218.33  1296.18  1446.74
                             1734.51  1902.55  1999.85  2007.41  2072.76
                             2304.91  4423.97  4447.15  4464.88  4553.40
                             4591.19  4661.22  4675.31

 Zero-point correction=                           0.082027 (Hartree/Particle)
 Thermal correction to Energy=                    0.087722
 Thermal correction to Enthalpy=                  0.088666
 Thermal correction to Gibbs Free Energy=         0.053953
 Sum of electronic and zero-point Energies=           -118.153292
 Sum of electronic and thermal Energies=              -118.147598
 Sum of electronic and thermal Enthalpies=            -118.146654
 Sum of electronic and thermal Free Energies=         -118.181367

                     E (Thermal)             CV                S
                      KCal/Mol        Cal/Mol-Kelvin    Cal/Mol-Kelvin
 Total                   55.046             18.179             73.060
 Electronic               0.000              0.000              1.377
 Translational            0.889              2.981             37.206
 Rotational               0.889              2.981             23.526
 Vibrational             53.269             12.217             10.951
 Vibration     1          0.598              1.967              4.102
 Vibration     2          0.630              1.863              2.302
 Vibration     3          0.690              1.682              1.443
 Vibration     4          0.751              1.509              1.032
 Vibration     5          0.765              1.472              0.966

                           ! Non-Optimized Parameters !
 Normal termination of Gaussian 16 at Wed Oct  7 12:57:44 2020.
