 Gaussian 16, Revision A.03,
 Gaussian 16:  ES64L-G16RevA.03 25-Dec-2016

 ----------------------------------------------------------------------
 #P Opt(MaxCyc=100) PBEPBE/6-31G* 5D 7F Integral=UltraFineGrid SCF=(NoS
 ymm,XQC,MaxCyc=120) EmpiricalDispersion=GD3BJ IOp(1/33=1)
 ----------------------------------------------------------------------

 TstMul:  Mul=     1
 TstMul:  ICh=    -1
 TstMul:  Mul=     1
 Symbolic Z-matrix:
 Charge = -1 Multiplicity = 1

 SCF Done:  E(RPBE-PBE) =  -959.898373112     A.U. after   13 cycles
 SCF Done:  E(RPBE-PBE) =  -959.899399182     A.U. after   11 cycles
 SCF Done:  E(RPBE-PBE) =  -959.899682457     A.U. after   11 cycles
 SCF Done:  E(RPBE-PBE) =  -959.899958713     A.U. after   11 cycles
 SCF Done:  E(RPBE-PBE) =  -959.900021192     A.U. after   10 cycles
 SCF Done:  E(RPBE-PBE) =  -959.900032194     A.U. after    8 cycles
 SCF Done:  E(RPBE-PBE) =  -959.900034606     A.U. after    8 cycles
 Optimization completed.
    -- Stationary point found.

                         Standard orientation:
 ---------------------------------------------------------------------
 Center     Atomic      Atomic             Coordinates (Angstroms)
 Number     Number       Type             X           Y           Z
 ---------------------------------------------------------------------
      1         17           0        0.000000    0.000000   -2.344604
      2          6           0        0.000000    0.000000   -0.459367
      3          1           0       -0.000000    1.040304   -0.123047
      4          1           0       -0.900930   -0.520152   -0.123047
      5          1           0        0.900930   -0.520152   -0.123047
      6         17           0        0.000000    0.000000    2.528448
 ---------------------------------------------------------------------

 The electronic state is 1-A1.
 Alpha  occ. eigenvalues -- -100.49736-100.34586  -9.77972  -9.01186  -8.85571
 Alpha  occ. eigenvalues --   -6.83631  -6.82635  -6.82635  -6.67491  -6.67357
 Alpha  occ. eigenvalues --   -6.67357  -0.60594  -0.45222  -0.40636  -0.22994
 Alpha  occ. eigenvalues --   -0.22994  -0.20785  -0.11091  -0.11091   0.00895
 Alpha  occ. eigenvalues --    0.01346   0.01346
 Alpha virt. eigenvalues --    0.13539   0.24630   0.28535   0.28535   0.50295
 Alpha virt. eigenvalues --    0.54855   0.56188   0.56188   0.58998   0.63604
 Alpha virt. eigenvalues --    0.63604   0.68448   0.68910   0.68910   0.89063

 Mulliken charges:
               1
     1  Cl  -0.252100
     2  C   -0.519307
     3  H    0.217339
     4  H    0.217339
     5  H    0.217339
     6  Cl  -0.880609
 Sum of Mulliken charges =  -1.00000

 Dipole moment (field-independent basis, Debye):
    X=             -0.0000    Y=             -0.0000    Z=             -6.7558  Tot=              6.7558
 Quadrupole moment (field-independent basis, Debye-Ang):
   XX=            -35.5497   YY=            -35.5497   ZZ=            -72.4769
   XY=             -0.0000   XZ=              0.0000   YZ=              0.0000

 Normal termination of Gaussian 16 at Wed Oct  7 12:52:46 2020.
