 Gaussian 16, Revision A.03,

 ----------------------------------------------------------------------
 #P Opt(TS,MaxCyc=50,NoEigenTest,MaxStep=10,AddRedundant) PBEPBE/6-31G*
  5D 7F Integral=UltraFineGrid SCF=(NoSymm,XQC,MaxCyc=120) EmpiricalDis
 persion=GD3BJ IOp(1/33=1)
 ----------------------------------------------------------------------

 TstMul:  Mul=     1
 TstMul:  ICh=    -1
 TstMul:  Mul=     1
 Symbolic Z-matrix:
 Charge = -1 Multiplicity = 1

 SCF Done:  E(RPBE-PBE) =  -959.891664043     A.U. after   13 cycles
 SCF Done:  E(RPBE-PBE) =  -959.892140967     A.U. after   11 cycles
 SCF Done:  E(RPBE-PBE) =  -959.892217632     A.U. after   12 cycles
 SCF Done:  E(RPBE-PBE) =  -959.892198277     A.U. after   11 cycles
 SCF Done:  E(RPBE-PBE) =  -959.892213494     A.U. after   11 cycles
 Optimization completed.
    -- Stationary point found.
 Normal termination of Gaussian 16 at Wed Oct  7 12:52:34 2020.
 Gaussian 16:  ES64L-G16RevA.03 25-Dec-2016

 ----------------------------------------------------------------------
 #P Freq PBEPBE/6-31G* 5D 7F Integral=UltraFineGrid SCF=(NoSymm,XQC,Max
 Cyc=120) EmpiricalDispersion=GD3BJ IOp(1/33=1) Geom=Check Guess=Read
 ----------------------------------------------------------------------

 TstMul:  Mul=     1
 TstMul:  ICh=    -1
 TstMul:  Mul=     1
 Structure from the checkpoint file:  "MN_28_clch3clts_BH76_PBEDBJ_631Gs.chk"
 Charge = -1 Multiplicity = 1

                         Standard orientation:
 ---------------------------------------------------------------------
 Center     Atomic      Atomic             Coordinates (Angstroms)
 Number     Number       Type             X           Y           Z
 ---------------------------------------------------------------------
      1         17           0        2.349007   -0.000006   -0.000022
      2          6           0       -0.000278    0.000016    0.000075
      3          1           0       -0.000093    0.857223   -0.662306
      4          1           0       -0.000226   -1.002247   -0.411051
      5          1           0       -0.000095    0.145087    1.073628
      6         17           0       -2.348885   -0.000003   -0.000021
 ---------------------------------------------------------------------

 SCF Done:  E(RPBE-PBE) =  -959.892213494     A.U. after    1 cycles

 The electronic state is 1-A.
 Alpha  occ. eigenvalues -- -100.41415-100.41405  -9.78219  -8.92578  -8.92567
 Alpha  occ. eigenvalues --   -6.74751  -6.74740  -6.74211  -6.74211  -6.74201
 Alpha  occ. eigenvalues --   -6.74201  -0.51023  -0.48230  -0.43153  -0.22801
 Alpha  occ. eigenvalues --   -0.22801  -0.12113  -0.05005  -0.05005  -0.04290
 Alpha  occ. eigenvalues --   -0.04290  -0.04235
 Alpha virt. eigenvalues --    0.11229   0.23213   0.29778   0.29779   0.54429
 Alpha virt. eigenvalues --    0.54758   0.60771   0.60772   0.61192   0.61192
 Alpha virt. eigenvalues --    0.65514   0.69538   0.69538   0.70559   0.83908

 Mulliken charges:
               1
     1  Cl  -0.612201
     2  C   -0.436797
     3  H    0.220265
     4  H    0.220266
     5  H    0.220254
     6  Cl  -0.611787
 Sum of Mulliken charges =  -1.00000

 Dipole moment (field-independent basis, Debye):
    X=             -0.0045    Y=              0.0001    Z=              0.0002  Tot=              0.0045
 Quadrupole moment (field-independent basis, Debye-Ang):
   XX=            -70.9989   YY=            -35.4725   ZZ=            -35.4726
   XY=              0.0002   XZ=              0.0001   YZ=             -0.0000

  Exact polarizability: 100.896   0.000  22.856   0.000   0.000  22.856
 Approx polarizability: 218.157   0.001  33.066   0.000  -0.000  33.066

 ******    1 imaginary frequencies (negative Signs) ******

                      1                      2                      3
                      A                      A                      A
 Frequencies --   -306.0985               195.2733               195.5221
 Red. masses --     13.2350                 4.3439                 4.3440
 Frc consts  --      0.7306                 0.0976                 0.0978
 IR Inten    --    795.8865                11.6561                11.6557

                      4                      5                      6
                      A                      A                      A
 Frequencies --    208.4960               903.8061               903.8935
 Red. masses --     34.9612                 1.0123                 1.0123
 Frc consts  --      0.8954                 0.4872                 0.4873
 IR Inten    --      0.0002                 0.0001                 0.0000

                      7                      8                      9
                      A                      A                      A
 Frequencies --    964.2053              1370.8843              1370.9669
 Red. masses --      1.0439                 1.1050                 1.1050
 Frc consts  --      0.5718                 1.2235                 1.2236
 IR Inten    --     39.3060                 5.3478                 5.3476

                     10                     11                     12
                      A                      A                      A
 Frequencies --   3150.3100              3343.9296              3344.0179
 Red. masses --      1.0078                 1.1229                 1.1229
 Frc consts  --      5.8931                 7.3977                 7.3980
 IR Inten    --      0.0000                 0.0416                 0.0415

 - Thermochemistry -
 -------------------
 Temperature   298.150 Kelvin.  Pressure   1.00000 Atm.
 Atom     1 has atomic number 17 and mass  34.96885

 Molecular mass:    84.96118 amu.
 Principal axes and moments of inertia in atomic units:
                           1         2         3
     Eigenvalues --    12.670921384.353981384.35430
           X            1.00000   0.00000   0.00000
           Y           -0.00000   1.00000  -0.00012
           Z           -0.00000   0.00012   1.00000
 This molecule is an asymmetric top.
 Rotational symmetry number  1.
 Rotational temperatures (Kelvin)      6.83565     0.06257     0.06257
 Rotational constants (GHZ):         142.43177     1.30367     1.30367
    1 imaginary frequencies ignored.
 Zero-point vibrational energy      95410.0 (Joules/Mol)
                                   22.80354 (Kcal/Mol)
 Warning -- explicit consideration of   3 degrees of freedom as
           vibrations may cause significant error
 Vibrational temperatures:    280.95   281.31   299.98  1300.38  1300.50
          (Kelvin)           1387.28  1972.40  1972.52  4532.59  4811.17
                             4811.30

 Zero-point correction=                           0.036340 (Hartree/Particle)
 Thermal correction to Energy=                    0.041021
 Thermal correction to Enthalpy=                  0.041965
 Thermal correction to Gibbs Free Energy=         0.008343
 Sum of electronic and zero-point Energies=           -959.855874
 Sum of electronic and thermal Energies=              -959.851192
 Sum of electronic and thermal Enthalpies=            -959.850248
 Sum of electronic and thermal Free Energies=         -959.883870

                     E (Thermal)             CV                S
                      KCal/Mol        Cal/Mol-Kelvin    Cal/Mol-Kelvin
 Total                   25.741             13.123             70.764
 Electronic               0.000              0.000              0.000
 Translational            0.889              2.981             39.232
 Rotational               0.889              2.981             24.699
 Vibrational             23.964              7.162              6.832
 Vibration     1          0.636              1.846              2.177
 Vibration     2          0.636              1.846              2.175
 Vibration     3          0.642              1.828              2.057

 Optimization completed.
    -- Stationary point found.
 Normal termination of Gaussian 16 at Wed Oct  7 12:53:04 2020.
