 Gaussian 16, Revision A.03,
 Gaussian 16:  ES64L-G16RevA.03 25-Dec-2016

 ----------------------------------------------------------------------
 #P Opt(MaxCyc=100) PBEPBE/6-31G* 5D 7F Integral=UltraFineGrid SCF=(NoS
 ymm,XQC,MaxCyc=120) EmpiricalDispersion=GD3BJ IOp(1/33=1)
 ----------------------------------------------------------------------

 TstMul:  Mul=     1
 TstMul:  ICh=     0
 TstMul:  Mul=     1
 Symbolic Z-matrix:
 Charge =  0 Multiplicity = 1

 SCF Done:  E(RPBE-PBE) =  -559.645245273     A.U. after   12 cycles
 SCF Done:  E(RPBE-PBE) =  -559.646122611     A.U. after   12 cycles
 SCF Done:  E(RPBE-PBE) =  -559.646235107     A.U. after    9 cycles
 Optimization completed.
    -- Stationary point found.

                         Standard orientation:
 ---------------------------------------------------------------------
 Center     Atomic      Atomic             Coordinates (Angstroms)
 Number     Number       Type             X           Y           Z
 ---------------------------------------------------------------------
      1          9           0        0.000000    0.000000   -1.094673
      2         17           0        0.000000    0.000000    0.579533
 ---------------------------------------------------------------------

 The electronic state is 1-SG.
 Alpha  occ. eigenvalues -- -100.73563 -24.30897  -9.24435  -7.07737  -7.05531
 Alpha  occ. eigenvalues --   -7.05531  -1.11103  -0.75664  -0.47624  -0.39662
 Alpha  occ. eigenvalues --   -0.39662  -0.27561  -0.27561
 Alpha virt. eigenvalues --   -0.16039   0.29891   0.35412   0.39302   0.39302
 Alpha virt. eigenvalues --    0.68261   0.68261   0.76106   0.76106   0.83312
 Alpha virt. eigenvalues --    1.17460   1.18464   1.18464   1.66247   1.75965

 Mulliken charges:
               1
     1  F   -0.274386
     2  Cl   0.274386
 Sum of Mulliken charges =  -0.00000

 Dipole moment (field-independent basis, Debye):
    X=              0.0000    Y=             -0.0000    Z=              0.8663  Tot=              0.8663
 Quadrupole moment (field-independent basis, Debye-Ang):
   XX=            -17.1391   YY=            -17.1391   ZZ=            -15.3934
   XY=              0.0000   XZ=              0.0000   YZ=              0.0000

 Normal termination of Gaussian 16 at Wed Oct  7 12:52:06 2020.
