 Gaussian 16, Revision A.03,
 Gaussian 16:  ES64L-G16RevA.03 25-Dec-2016

 ----------------------------------------------------------------------
 #P Opt(MaxCyc=100) PBEPBE/6-31G* 5D 7F Integral=UltraFineGrid SCF=(NoS
 ymm,XQC,MaxCyc=120) EmpiricalDispersion=GD3BJ IOp(1/33=1)
 ----------------------------------------------------------------------

 TstMul:  Mul=     1
 TstMul:  ICh=     0
 TstMul:  Mul=     1
 Symbolic Z-matrix:
 Charge =  0 Multiplicity = 1

 SCF Done:  E(RPBE-PBE) =  -139.572662801     A.U. after   10 cycles
 SCF Done:  E(RPBE-PBE) =  -139.573431940     A.U. after   10 cycles
 SCF Done:  E(RPBE-PBE) =  -139.573441923     A.U. after    7 cycles
 SCF Done:  E(RPBE-PBE) =  -139.573443240     A.U. after    7 cycles
 Optimization completed.
    -- Stationary point found.

                         Standard orientation:
 ---------------------------------------------------------------------
 Center     Atomic      Atomic             Coordinates (Angstroms)
 Number     Number       Type             X           Y           Z
 ---------------------------------------------------------------------
      1          6           0        0.000000    0.000000   -0.630620
      2          9           0        0.000000    0.000000    0.755915
      3          1           0        0.000000    1.040087   -1.006504
      4          1           0        0.900741   -0.520043   -1.006504
      5          1           0       -0.900741   -0.520043   -1.006504
 ---------------------------------------------------------------------

 The electronic state is 1-A1.
 Alpha  occ. eigenvalues --  -24.23433  -9.95295  -1.06707  -0.62140  -0.41917
 Alpha  occ. eigenvalues --   -0.40916  -0.40916  -0.27018  -0.27018
 Alpha virt. eigenvalues --    0.07884   0.09813   0.13686   0.13686   0.47390
 Alpha virt. eigenvalues --    0.52111   0.52111   0.79068   0.79068   0.81524
 Alpha virt. eigenvalues --    0.94197   1.19373   1.20235   1.20235   1.45767

 Mulliken charges:
               1
     1  C   -0.150578
     2  F   -0.303205
     3  H    0.151261
     4  H    0.151261
     5  H    0.151261
 Sum of Mulliken charges =  -0.00000

 Dipole moment (field-independent basis, Debye):
    X=              0.0000    Y=             -0.0000    Z=             -1.5888  Tot=              1.5888
 Quadrupole moment (field-independent basis, Debye-Ang):
   XX=            -11.7469   YY=            -11.7469   ZZ=            -11.9477
   XY=             -0.0000   XZ=             -0.0000   YZ=             -0.0000

 1\1\GINC-NODE26\FOpt\RPBEPBE\6-31G(d)\C1H3F1\RPEVERATI\07-Oct-2020\0\\
 #P Opt(MaxCyc=100) PBEPBE/6-31G* 5D 7F Integral=UltraFineGrid SCF=(NoS
 ymm,XQC,MaxCyc=120) EmpiricalDispersion=GD3BJ IOp(1/33=1)\\TS search o
 n BH76.\\0,1\C,0.,0.,0.0516835565\F,0.,0.,-1.3348516869\H,0.5200432897
 ,-0.9007413999,0.4275672782\H,0.5200432897,0.9007413999,0.4275672782\H
 ,-1.0400865794,0.,0.4275672782\\Version=ES64L-G16RevA.03\State=1-A1\HF
 =-139.5734432\RMSD=1.988e-09\RMSF=5.340e-05\Dipole=0.,0.,0.6250642\Qua
 drupole=0.0497595,0.0497595,-0.0995189,0.,0.,0.\PG=C03V [C3(C1F1),3SGV

 Normal termination of Gaussian 16 at Wed Oct  7 12:51:32 2020.
