 Gaussian 16, Revision A.03,
 Gaussian 16:  ES64L-G16RevA.03 25-Dec-2016

 ----------------------------------------------------------------------
 #P Opt(MaxCyc=100) PBEPBE/6-31G* 5D 7F Integral=UltraFineGrid SCF=(NoS
 ymm,XQC,MaxCyc=120) EmpiricalDispersion=GD3BJ IOp(1/33=1)
 ----------------------------------------------------------------------

 TstMul:  Mul=     1
 TstMul:  ICh=     0
 TstMul:  Mul=     1
 Symbolic Z-matrix:
 Charge =  0 Multiplicity = 1

 SCF Done:  E(RPBE-PBE) =  -115.567524619     A.U. after   11 cycles
 SCF Done:  E(RPBE-PBE) =  -115.568615864     A.U. after   11 cycles
 SCF Done:  E(RPBE-PBE) =  -115.568629109     A.U. after    7 cycles
 Optimization completed.
    -- Stationary point found.

                         Standard orientation:
 ---------------------------------------------------------------------
 Center     Atomic      Atomic             Coordinates (Angstroms)
 Number     Number       Type             X           Y           Z
 ---------------------------------------------------------------------
      1          6           0       -0.047160    0.661043    0.000000
      2          8           0       -0.047160   -0.761275    0.000000
      3          1           0       -1.103345    0.975784    0.000000
      4          1           0        0.888178   -1.044320    0.000000
      5          1           0        0.437706    1.096242    0.899781
      6          1           0        0.437706    1.096242   -0.899781
 ---------------------------------------------------------------------

 The electronic state is 1-A'.
 Alpha  occ. eigenvalues --  -18.75597  -9.92394  -0.91856  -0.60665  -0.44607
 Alpha  occ. eigenvalues --   -0.37698  -0.36548  -0.27795  -0.20789
 Alpha virt. eigenvalues --    0.05030   0.10611   0.13686   0.14703   0.16957
 Alpha virt. eigenvalues --    0.49160   0.53896   0.54806   0.73337   0.79653
 Alpha virt. eigenvalues --    0.81546   0.84574   0.92817   0.95078   0.98650

 Mulliken charges:
               1
     1  C   -0.255709
     2  O   -0.587883
     3  H    0.171924
     4  H    0.392474
     5  H    0.139597
     6  H    0.139597
 Sum of Mulliken charges =  -0.00000

 Dipole moment (field-independent basis, Debye):
    X=              1.4014    Y=              0.8095    Z=             -0.0000  Tot=              1.6184
 Quadrupole moment (field-independent basis, Debye-Ang):
   XX=            -11.5501   YY=            -13.0349   ZZ=            -13.6381
   XY=             -2.0853   XZ=              0.0000   YZ=              0.0000

 1\1\GINC-NODE17\FOpt\RPBEPBE\6-31G(d)\C1H4O1\RPEVERATI\07-Oct-2020\0\\
 #P Opt(MaxCyc=100) PBEPBE/6-31G* 5D 7F Integral=UltraFineGrid SCF=(NoS
 ymm,XQC,MaxCyc=120) EmpiricalDispersion=GD3BJ IOp(1/33=1)\\TS search o
 n BH76.\\0,1\C,-0.0450926287,0.6536309263,0.\O,-0.060617101,-0.7686023
 173,0.\H,-1.0977785451,0.9798816571,0.\H,0.8715765873,-1.06183924,0.\H
 ,0.4444947247,1.0835119896,0.8997807158\H,0.4444947247,1.0835119896,-0
 .8997807158\\Version=ES64L-G16RevA.03\State=1-A'\HF=-115.5686291\RMSD=
 8.220e-09\RMSF=1.555e-04\Dipole=0.5547868,0.3124554,0.\Quadrupole=0.85

 Normal termination of Gaussian 16 at Wed Oct  7 12:51:34 2020.
