 Gaussian 16, Revision A.03,
 Gaussian 16:  ES64L-G16RevA.03 25-Dec-2016

 ----------------------------------------------------------------------
 #P Opt(MaxCyc=100) PBEPBE/6-31G* 5D 7F Integral=UltraFineGrid SCF=(NoS
 ymm,XQC,MaxCyc=120) EmpiricalDispersion=GD3BJ IOp(1/33=1)
 ----------------------------------------------------------------------

 TstMul:  Mul=     1
 TstMul:  ICh=     0
 TstMul:  Mul=     1
 Symbolic Z-matrix:
 Charge =  0 Multiplicity = 1

 SCF Done:  E(RPBE-PBE) =  -40.4444870857     A.U. after    8 cycles
 SCF Done:  E(RPBE-PBE) =  -40.4449085015     A.U. after    6 cycles
 Optimization completed.
    -- Stationary point found.

                         Standard orientation:
 ---------------------------------------------------------------------
 Center     Atomic      Atomic             Coordinates (Angstroms)
 Number     Number       Type             X           Y           Z
 ---------------------------------------------------------------------
      1          6           0        0.000000    0.000000    0.000000
      2          1           0        0.635381    0.635381    0.635381
      3          1           0       -0.635381   -0.635381    0.635381
      4          1           0        0.635381   -0.635381   -0.635381
      5          1           0       -0.635381    0.635381   -0.635381
 ---------------------------------------------------------------------

 The electronic state is 1-A1.
 Alpha  occ. eigenvalues --   -9.86787  -0.61780  -0.33883  -0.33883  -0.33883
 Alpha virt. eigenvalues --    0.09557   0.14833   0.14833   0.14833   0.50379
 Alpha virt. eigenvalues --    0.50379   0.50379   0.84435   0.84435   0.84435
 Alpha virt. eigenvalues --    0.88380   1.06862   1.58621   1.58621   2.15771

 Mulliken charges:
               1
     1  C   -0.686831
     2  H    0.171708
     3  H    0.171708
     4  H    0.171708
     5  H    0.171708
 Sum of Mulliken charges =   0.00000

 Dipole moment (field-independent basis, Debye):
    X=              0.0000    Y=              0.0000    Z=             -0.0000  Tot=              0.0000
 Quadrupole moment (field-independent basis, Debye-Ang):
   XX=             -8.2457   YY=             -8.2457   ZZ=             -8.2457
   XY=              0.0000   XZ=              0.0000   YZ=             -0.0000

 Normal termination of Gaussian 16 at Wed Oct  7 12:51:26 2020.
