 Gaussian 16, Revision A.03,
 Gaussian 16:  ES64L-G16RevA.03 25-Dec-2016

 ----------------------------------------------------------------------
 #P Opt(MaxCyc=100) PBEPBE/6-31G* 5D 7F Integral=UltraFineGrid SCF=(NoS
 ymm,XQC,MaxCyc=120) EmpiricalDispersion=GD3BJ IOp(1/33=1)
 ----------------------------------------------------------------------

 TstMul:  Mul=     1
 TstMul:  ICh=    -1
 TstMul:  Mul=     1
 Symbolic Z-matrix:
 Charge = -1 Multiplicity = 1

 SCF Done:  E(RPBE-PBE) =  -599.554360073     A.U. after   18 cycles
 SCF Done:  E(RPBE-PBE) =  -599.558641697     A.U. after   16 cycles
 SCF Done:  E(RPBE-PBE) =  -599.562408861     A.U. after   13 cycles
 SCF Done:  E(RPBE-PBE) =  -599.566392258     A.U. after   15 cycles
 SCF Done:  E(RPBE-PBE) =  -599.570284336     A.U. after   13 cycles
 SCF Done:  E(RPBE-PBE) =  -599.592307529     A.U. after   13 cycles
 SCF Done:  E(RPBE-PBE) =  -599.616372075     A.U. after   13 cycles
 SCF Done:  E(RPBE-PBE) =  -599.623284250     A.U. after   11 cycles
 SCF Done:  E(RPBE-PBE) =  -599.625373291     A.U. after   11 cycles
 SCF Done:  E(RPBE-PBE) =  -599.626404629     A.U. after   11 cycles
 SCF Done:  E(RPBE-PBE) =  -599.627759021     A.U. after   10 cycles
 SCF Done:  E(RPBE-PBE) =  -599.628671958     A.U. after   11 cycles
 SCF Done:  E(RPBE-PBE) =  -599.628855332     A.U. after   10 cycles
 SCF Done:  E(RPBE-PBE) =  -599.628860863     A.U. after    9 cycles
 SCF Done:  E(RPBE-PBE) =  -599.628861313     A.U. after    6 cycles
 Optimization completed.
    -- Stationary point found.

                         Standard orientation:
 ---------------------------------------------------------------------
 Center     Atomic      Atomic             Coordinates (Angstroms)
 Number     Number       Type             X           Y           Z
 ---------------------------------------------------------------------
      1         17           0        0.000000    0.000000    1.964389
      2          6           0        0.000000    0.000000   -1.210380
      3          1           0        0.000000    1.032115   -0.826489
      4          1           0        0.893838   -0.516058   -0.826489
      5          1           0       -0.893838   -0.516058   -0.826489
      6          9           0        0.000000    0.000000   -2.628097
 ---------------------------------------------------------------------

 The electronic state is 1-A1.
 Alpha  occ. eigenvalues -- -100.32599 -24.08121  -9.78224  -8.83548  -6.65418
 Alpha  occ. eigenvalues --   -6.65365  -6.65365  -0.90646  -0.45489  -0.38748
 Alpha  occ. eigenvalues --   -0.25757  -0.24244  -0.24244  -0.11677  -0.11677
 Alpha  occ. eigenvalues --    0.02902   0.03176   0.03176
 Alpha virt. eigenvalues --    0.23808   0.26902   0.30638   0.30638   0.58305
 Alpha virt. eigenvalues --    0.65891   0.66558   0.66558   0.70158   0.70158
 Alpha virt. eigenvalues --    0.78267   0.96784   0.96784   1.05116   1.09122

 Mulliken charges:
               1
     1  Cl  -0.941256
     2  C   -0.166911
     3  H    0.156678
     4  H    0.156678
     5  H    0.156678
     6  F   -0.361866
 Sum of Mulliken charges =  -1.00000

 Dipole moment (field-independent basis, Debye):
    X=             -0.0000    Y=             -0.0000    Z=             -6.3224  Tot=              6.3224
 Quadrupole moment (field-independent basis, Debye-Ang):
   XX=            -27.3798   YY=            -27.3798   ZZ=            -53.3605
   XY=             -0.0000   XZ=              0.0000   YZ=              0.0000

 Normal termination of Gaussian 16 at Wed Oct  7 12:55:46 2020.
