 Gaussian 16, Revision A.03,
 Gaussian 16:  ES64L-G16RevA.03 25-Dec-2016

 ----------------------------------------------------------------------
 #P Opt(MaxCyc=100) PBEPBE/6-31G* 5D 7F Integral=UltraFineGrid SCF=(NoS
 ymm,XQC,MaxCyc=120) EmpiricalDispersion=GD3BJ IOp(1/33=1)
 ----------------------------------------------------------------------

 TstMul:  Mul=     1
 TstMul:  ICh=    -1
 TstMul:  Mul=     1
 Symbolic Z-matrix:
 Charge = -1 Multiplicity = 1

 SCF Done:  E(RPBE-PBE) =  -239.272889684     A.U. after   17 cycles
 SCF Done:  E(RPBE-PBE) =  -239.275192135     A.U. after   12 cycles
 SCF Done:  E(RPBE-PBE) =  -239.276433799     A.U. after   12 cycles
 SCF Done:  E(RPBE-PBE) =  -239.277064673     A.U. after   12 cycles
 SCF Done:  E(RPBE-PBE) =  -239.277180453     A.U. after   11 cycles
 SCF Done:  E(RPBE-PBE) =  -239.277221523     A.U. after    9 cycles
 SCF Done:  E(RPBE-PBE) =  -239.277223403     A.U. after    8 cycles
 SCF Done:  E(RPBE-PBE) =  -239.277225038     A.U. after    8 cycles
 Optimization completed.
    -- Stationary point found.

                         Standard orientation:
 ---------------------------------------------------------------------
 Center     Atomic      Atomic             Coordinates (Angstroms)
 Number     Number       Type             X           Y           Z
 ---------------------------------------------------------------------
      1          9           0        0.000000    0.000000   -1.808109
      2          6           0        0.000000    0.000000   -0.334562
      3          1           0       -0.000000    1.027057    0.049495
      4          1           0       -0.889457   -0.513529    0.049495
      5          1           0        0.889457   -0.513529    0.049495
      6          9           0        0.000000    0.000000    2.014652
 ---------------------------------------------------------------------

 The electronic state is 1-A1.
 Alpha  occ. eigenvalues --  -24.00931 -23.77060  -9.71707  -0.82431  -0.55571
 Alpha  occ. eigenvalues --   -0.38919  -0.18292  -0.17270  -0.17270  -0.05744
 Alpha  occ. eigenvalues --   -0.05744   0.11692   0.12755   0.12755
 Alpha virt. eigenvalues --    0.29335   0.31638   0.36084   0.36084   0.73108
 Alpha virt. eigenvalues --    0.73108   0.73760   1.02436   1.02436   1.06705
 Alpha virt. eigenvalues --    1.20619   1.39579   1.39579   1.39775   1.53827

 Mulliken charges:
               1
     1  F   -0.408695
     2  C   -0.210536
     3  H    0.123020
     4  H    0.123020
     5  H    0.123020
     6  F   -0.749829
 Sum of Mulliken charges =  -1.00000

 Dipole moment (field-independent basis, Debye):
    X=              0.0000    Y=             -0.0000    Z=             -4.4724  Tot=              4.4724
 Quadrupole moment (field-independent basis, Debye-Ang):
   XX=            -18.0216   YY=            -18.0216   ZZ=            -38.8235
   XY=             -0.0000   XZ=             -0.0000   YZ=              0.0000

 Normal termination of Gaussian 16 at Wed Oct  7 12:53:30 2020.
