 Gaussian 16, Revision A.03,

 ----------------------------------------------------------------------
 #P Opt(TS,MaxCyc=50,NoEigenTest,MaxStep=10,AddRedundant) PBEPBE/6-31G*
  5D 7F Integral=UltraFineGrid SCF=(NoSymm,XQC,MaxCyc=120) EmpiricalDis
 persion=GD3BJ IOp(1/33=1)
 ----------------------------------------------------------------------

 TstMul:  Mul=     1
 TstMul:  ICh=    -1
 TstMul:  Mul=     1
 Symbolic Z-matrix:
 Charge = -1 Multiplicity = 1

 SCF Done:  E(RPBE-PBE) =  -239.266307764     A.U. after   12 cycles
 SCF Done:  E(RPBE-PBE) =  -239.266880162     A.U. after   12 cycles
 SCF Done:  E(RPBE-PBE) =  -239.266930516     A.U. after    8 cycles
 SCF Done:  E(RPBE-PBE) =  -239.266928862     A.U. after   12 cycles
 SCF Done:  E(RPBE-PBE) =  -239.266928639     A.U. after    8 cycles
 Optimization completed.
    -- Stationary point found.
 Normal termination of Gaussian 16 at Wed Oct  7 12:53:12 2020.
 Gaussian 16:  ES64L-G16RevA.03 25-Dec-2016

 ----------------------------------------------------------------------
 #P Freq PBEPBE/6-31G* 5D 7F Integral=UltraFineGrid SCF=(NoSymm,XQC,Max
 Cyc=120) EmpiricalDispersion=GD3BJ IOp(1/33=1) Geom=Check Guess=Read
 ----------------------------------------------------------------------

 TstMul:  Mul=     1
 TstMul:  ICh=    -1
 TstMul:  Mul=     1
 Structure from the checkpoint file:  "MN_39_fch3fts_BH76_PBEDBJ_631Gs.chk"
 Charge = -1 Multiplicity = 1

                         Standard orientation:
 ---------------------------------------------------------------------
 Center     Atomic      Atomic             Coordinates (Angstroms)
 Number     Number       Type             X           Y           Z
 ---------------------------------------------------------------------
      1          9           0        1.821627    0.000011   -0.000022
      2          6           0        0.000207   -0.000013    0.000033
      3          1           0       -0.000031   -0.364778    1.024483
      4          1           0        0.000037    1.069553   -0.196319
      5          1           0       -0.000079   -0.704947   -0.827981
      6          9           0       -1.821757    0.000017   -0.000020
 ---------------------------------------------------------------------

 SCF Done:  E(RPBE-PBE) =  -239.266928639     A.U. after    1 cycles

 The electronic state is 1-A.
 Alpha  occ. eigenvalues --  -23.86815 -23.86797  -9.70817  -0.66277  -0.65674
 Alpha  occ. eigenvalues --   -0.36802  -0.15441  -0.15438  -0.05828   0.03816
 Alpha  occ. eigenvalues --    0.03816   0.04424   0.05258   0.05258
 Alpha virt. eigenvalues --    0.28289   0.29712   0.35376   0.35377   0.75434
 Alpha virt. eigenvalues --    0.75437   0.82037   0.97694   1.06097   1.06101
 Alpha virt. eigenvalues --    1.29759   1.37624   1.37624   1.50726   1.51286

 Mulliken charges:
               1
     1  F   -0.601227
     2  C   -0.145872
     3  H    0.116178
     4  H    0.116189
     5  H    0.116186
     6  F   -0.601454
 Sum of Mulliken charges =  -1.00000

 Dipole moment (field-independent basis, Debye):
    X=              0.0030    Y=             -0.0001    Z=              0.0001  Tot=              0.0030
 Quadrupole moment (field-independent basis, Debye-Ang):
   XX=            -37.2704   YY=            -17.7179   ZZ=            -17.7183
   XY=              0.0001   XZ=              0.0000   YZ=              0.0000

  Exact polarizability:  31.444   0.000  15.212   0.000  -0.000  15.212
 Approx polarizability:  70.232   0.001  21.063   0.000  -0.000  21.062

 ******    1 imaginary frequencies (negative Signs) ******

                      1                      2                      3
                      A                      A                      A
 Frequencies --   -448.4885               313.7780               313.8056
 Red. masses --      8.8592                 4.3296                 4.3295
 Frc consts  --      1.0499                 0.2512                 0.2512
 IR Inten    --    570.0388                13.0663                13.0666

                      4                      5                      6
                      A                      A                      A
 Frequencies --    345.6411               926.4454               926.5066
 Red. masses --     18.9585                 1.0213                 1.0213
 Frc consts  --      1.3345                 0.5165                 0.5166
 IR Inten    --      0.0000                 0.0000                 0.0000

                      7                      8                      9
                      A                      A                      A
 Frequencies --   1038.7202              1327.1781              1327.3105
 Red. masses --      1.1084                 1.1239                 1.1239
 Frc consts  --      0.7046                 1.1664                 1.1666
 IR Inten    --      4.6126                 1.7850                 1.7827

                     10                     11                     12
                      A                      A                      A
 Frequencies --   3045.5154              3229.5673              3229.6285
 Red. masses --      1.0079                 1.1279                 1.1279
 Frc consts  --      5.5081                 6.9314                 6.9317
 IR Inten    --      0.0000                59.3932                59.3771

 - Thermochemistry -
 -------------------
 Temperature   298.150 Kelvin.  Pressure   1.00000 Atm.
 Atom     1 has atomic number  9 and mass  18.99840

 Molecular mass:    53.02028 amu.
 Principal axes and moments of inertia in atomic units:
                           1         2         3
     Eigenvalues --    12.76791 456.67607 456.67714
           X            1.00000   0.00000   0.00000
           Y           -0.00000   1.00000   0.00002
           Z           -0.00000  -0.00002   1.00000
 This molecule is an asymmetric top.
 Rotational symmetry number  1.
 Rotational temperatures (Kelvin)      6.78372     0.18966     0.18966
 Rotational constants (GHZ):         141.34981     3.95191     3.95190
    1 imaginary frequencies ignored.
 Zero-point vibrational energy      95845.4 (Joules/Mol)
                                   22.90760 (Kcal/Mol)
 Warning -- explicit consideration of   3 degrees of freedom as
           vibrations may cause significant error
 Vibrational temperatures:    451.46   451.50   497.30  1332.95  1333.04
          (Kelvin)           1494.49  1909.51  1909.70  4381.82  4646.63
                             4646.72

 Zero-point correction=                           0.036506 (Hartree/Particle)
 Thermal correction to Energy=                    0.040660
 Thermal correction to Enthalpy=                  0.041604
 Thermal correction to Gibbs Free Energy=         0.010920
 Sum of electronic and zero-point Energies=           -239.230423
 Sum of electronic and thermal Energies=              -239.226269
 Sum of electronic and thermal Enthalpies=            -239.225324
 Sum of electronic and thermal Free Energies=         -239.256009

                     E (Thermal)             CV                S
                      KCal/Mol        Cal/Mol-Kelvin    Cal/Mol-Kelvin
 Total                   25.515             12.378             64.580
 Electronic               0.000              0.000              0.000
 Translational            0.889              2.981             37.827
 Rotational               0.889              2.981             22.503
 Vibrational             23.737              6.416              4.251
 Vibration     1          0.702              1.647              1.342
 Vibration     2          0.702              1.647              1.342
 Vibration     3          0.724              1.584              1.186

                           ! Non-Optimized Parameters !
 Normal termination of Gaussian 16 at Wed Oct  7 12:53:42 2020.
