 Gaussian 16, Revision A.03,

 ----------------------------------------------------------------------
 #P Opt(TS,MaxCyc=50,NoEigenTest,MaxStep=10,AddRedundant) PBEPBE/6-31G*
  5D 7F Integral=UltraFineGrid SCF=(NoSymm,XQC,MaxCyc=120) EmpiricalDis
 persion=GD3BJ IOp(1/33=1)
 ----------------------------------------------------------------------

 TstMul:  Mul=     1
 TstMul:  ICh=    -1
 TstMul:  Mul=     1
 Symbolic Z-matrix:
 Charge = -1 Multiplicity = 1

 SCF Done:  E(RPBE-PBE) =  -599.569672135     A.U. after   14 cycles
 SCF Done:  E(RPBE-PBE) =  -599.569698744     A.U. after    8 cycles
 SCF Done:  E(RPBE-PBE) =  -599.569713040     A.U. after   10 cycles
 SCF Done:  E(RPBE-PBE) =  -599.570322880     A.U. after   13 cycles
 SCF Done:  E(RPBE-PBE) =  -599.570366543     A.U. after   13 cycles
 SCF Done:  E(RPBE-PBE) =  -599.570366198     A.U. after   13 cycles
 SCF Done:  E(RPBE-PBE) =  -599.571101920     A.U. after   12 cycles
 SCF Done:  E(RPBE-PBE) =  -599.569580153     A.U. after   13 cycles
 SCF Done:  E(RPBE-PBE) =  -599.568216320     A.U. after   13 cycles
 SCF Done:  E(RPBE-PBE) =  -599.566972283     A.U. after   13 cycles
 SCF Done:  E(RPBE-PBE) =  -599.562190913     A.U. after   12 cycles
 SCF Done:  E(RPBE-PBE) =  -599.562399915     A.U. after   12 cycles
 SCF Done:  E(RPBE-PBE) =  -599.562562889     A.U. after   12 cycles
 SCF Done:  E(RPBE-PBE) =  -599.562691672     A.U. after   11 cycles
 SCF Done:  E(RPBE-PBE) =  -599.562787201     A.U. after   12 cycles
 SCF Done:  E(RPBE-PBE) =  -599.562852629     A.U. after   11 cycles
 SCF Done:  E(RPBE-PBE) =  -599.562890154     A.U. after   12 cycles
 SCF Done:  E(RPBE-PBE) =  -599.562904434     A.U. after   13 cycles
 SCF Done:  E(RPBE-PBE) =  -599.562905439     A.U. after    9 cycles
 Optimization completed.
    -- Stationary point found.
 Normal termination of Gaussian 16 at Wed Oct  7 13:02:08 2020.
 Gaussian 16:  ES64L-G16RevA.03 25-Dec-2016

 ----------------------------------------------------------------------
 #P Freq PBEPBE/6-31G* 5D 7F Integral=UltraFineGrid SCF=(NoSymm,XQC,Max
 Cyc=120) EmpiricalDispersion=GD3BJ IOp(1/33=1) Geom=Check Guess=Read
 ----------------------------------------------------------------------

 TstMul:  Mul=     1
 TstMul:  ICh=    -1
 TstMul:  Mul=     1
 Structure from the checkpoint file:  "MN_37_fch3clts_BH76_PBEDBJ_631Gs.chk"
 Charge = -1 Multiplicity = 1

                         Standard orientation:
 ---------------------------------------------------------------------
 Center     Atomic      Atomic             Coordinates (Angstroms)
 Number     Number       Type             X           Y           Z
 ---------------------------------------------------------------------
      1          6           0        0.328176   -0.325744    0.000037
      2          9           0        2.632986    0.163858    0.000006
      3         17           0       -1.622649    0.108755    0.000005
      4          1           0        1.076009    0.512845   -0.000606
      5          1           0        0.421274   -0.941299   -0.903696
      6          1           0        0.421815   -0.940645    0.903937
 ---------------------------------------------------------------------

 SCF Done:  E(RPBE-PBE) =  -599.562905439     A.U. after    1 cycles

 The electronic state is 1-A.
 Alpha  occ. eigenvalues -- -100.44236 -23.85153  -9.72555  -8.95552  -6.77900
 Alpha  occ. eigenvalues --   -6.77075  -6.77073  -0.63406  -0.53525  -0.40105
 Alpha  occ. eigenvalues --   -0.18241  -0.16679  -0.14158  -0.06409  -0.06300
 Alpha  occ. eigenvalues --    0.04758   0.05207   0.05811
 Alpha virt. eigenvalues --    0.16405   0.27307   0.31330   0.38618   0.54145
 Alpha virt. eigenvalues --    0.59855   0.60543   0.63296   0.69894   0.70633
 Alpha virt. eigenvalues --    0.82295   0.97459   0.99409   1.01007   1.03594

 Mulliken charges:
               1
     1  C   -0.532963
     2  F   -0.635835
     3  Cl  -0.394120
     4  H    0.260723
     5  H    0.151050
     6  H    0.151145
 Sum of Mulliken charges =  -1.00000

 Dipole moment (field-independent basis, Debye):
    X=             -3.8206    Y=             -1.0127    Z=              0.0001  Tot=              3.9525
 Quadrupole moment (field-independent basis, Debye-Ang):
   XX=            -54.3307   YY=            -26.9762   ZZ=            -26.6774
   XY=             -0.9214   XZ=              0.0003   YZ=             -0.0005

  Exact polarizability:  65.478  -0.674  19.410   0.001   0.001  19.523
 Approx polarizability: 173.880   0.882  28.066   0.003   0.002  28.347

 ******    1 imaginary frequencies (negative Signs) ******

                      1                      2                      3
                      A                      A                      A
 Frequencies --   -159.5496               216.2602               280.7345
 Red. masses --      2.7322                 1.7469                17.0140
 Frc consts  --      0.0410                 0.0481                 0.7900
 IR Inten    --     51.0159                 1.0769                 4.8724

                      4                      5                      6
                      A                      A                      A
 Frequencies --    380.3178               658.2937               921.9598
 Red. masses --      7.3974                 1.3072                 1.0934
 Frc consts  --      0.6304                 0.3338                 0.5476
 IR Inten    --    208.1545               207.4874                 0.6701

                      7                      8                      9
                      A                      A                      A
 Frequencies --   1140.6411              1394.5608              1410.5877
 Red. masses --      1.0796                 1.0650                 1.0769
 Frc consts  --      0.8276                 1.2203                 1.2625
 IR Inten    --      7.0962                 6.2913                 8.0884

                     10                     11                     12
                      A                      A                      A
 Frequencies --   2818.1831              3087.8691              3155.4526
 Red. masses --      1.0544                 1.0758                 1.1104
 Frc consts  --      4.9339                 6.0434                 6.5140
 IR Inten    --     90.9497                27.1645                37.3306

 - Thermochemistry -
 -------------------
 Temperature   298.150 Kelvin.  Pressure   1.00000 Atm.
 Atom     1 has atomic number  6 and mass  12.00000

 Molecular mass:    68.99073 amu.
 Principal axes and moments of inertia in atomic units:
                           1         2         3
     Eigenvalues --    20.90408 815.04567 824.18985
           X            1.00000  -0.00234  -0.00000
           Y            0.00234   1.00000   0.00002
           Z            0.00000  -0.00002   1.00000
 This molecule is an asymmetric top.
 Rotational symmetry number  1.
 Rotational temperatures (Kelvin)      4.14340     0.10627     0.10509
 Rotational constants (GHZ):          86.33439     2.21428     2.18972
    1 imaginary frequencies ignored.
 Zero-point vibrational energy      92500.4 (Joules/Mol)
                                   22.10813 (Kcal/Mol)
 Warning -- explicit consideration of   3 degrees of freedom as
           vibrations may cause significant error
 Vibrational temperatures:    311.15   403.91   547.19   947.14  1326.49
          (Kelvin)           1641.13  2006.46  2029.52  4054.74  4442.75
                             4539.99

 Zero-point correction=                           0.035232 (Hartree/Particle)
 Thermal correction to Energy=                    0.039590
 Thermal correction to Enthalpy=                  0.040534
 Thermal correction to Gibbs Free Energy=         0.008273
 Sum of electronic and zero-point Energies=           -599.527674
 Sum of electronic and thermal Energies=              -599.523316
 Sum of electronic and thermal Enthalpies=            -599.522371
 Sum of electronic and thermal Free Energies=         -599.554633

                     E (Thermal)             CV                S
                      KCal/Mol        Cal/Mol-Kelvin    Cal/Mol-Kelvin
 Total                   24.843             12.839             67.900
 Electronic               0.000              0.000              0.000
 Translational            0.889              2.981             38.612
 Rotational               0.889              2.981             24.155
 Vibrational             23.066              6.877              5.133
 Vibration     1          0.645              1.816              1.990
 Vibration     2          0.680              1.709              1.529
 Vibration     3          0.750              1.512              1.038

 Optimization completed.
    -- Stationary point found.
 Normal termination of Gaussian 16 at Wed Oct  7 13:02:40 2020.
