 Gaussian 16, Revision A.03,
 Gaussian 16:  ES64L-G16RevA.03 25-Dec-2016

 ----------------------------------------------------------------------
 #P Opt(MaxCyc=100) PBEPBE/6-31G* 5D 7F Integral=UltraFineGrid SCF=(NoS
 ymm,XQC,MaxCyc=120) EmpiricalDispersion=GD3BJ IOp(1/33=1)
 ----------------------------------------------------------------------

 TstMul:  Mul=     1
 TstMul:  ICh=    -1
 TstMul:  Mul=     1
 Symbolic Z-matrix:
 Charge = -1 Multiplicity = 1

 SCF Done:  E(RPBE-PBE) =  -599.627924716     A.U. after   12 cycles
 SCF Done:  E(RPBE-PBE) =  -599.628744195     A.U. after   11 cycles
 SCF Done:  E(RPBE-PBE) =  -599.628803915     A.U. after   10 cycles
 SCF Done:  E(RPBE-PBE) =  -599.628853633     A.U. after   10 cycles
 SCF Done:  E(RPBE-PBE) =  -599.628859487     A.U. after    8 cycles
 SCF Done:  E(RPBE-PBE) =  -599.628860973     A.U. after    7 cycles
 SCF Done:  E(RPBE-PBE) =  -599.628861258     A.U. after    7 cycles
 Optimization completed.
    -- Stationary point found.

                         Standard orientation:
 ---------------------------------------------------------------------
 Center     Atomic      Atomic             Coordinates (Angstroms)
 Number     Number       Type             X           Y           Z
 ---------------------------------------------------------------------
      1          9           0        0.000000    0.000000   -2.627753
      2          6           0        0.000000    0.000000   -1.210340
      3          1           0       -0.000000    1.032016   -0.826347
      4          1           0       -0.893752   -0.516008   -0.826347
      5          1           0        0.893752   -0.516008   -0.826347
      6         17           0        0.000000    0.000000    1.964168
 ---------------------------------------------------------------------

 The electronic state is 1-A1.
 Alpha  occ. eigenvalues -- -100.32597 -24.08124  -9.78219  -8.83547  -6.65417
 Alpha  occ. eigenvalues --   -6.65363  -6.65363  -0.90657  -0.45488  -0.38747
 Alpha  occ. eigenvalues --   -0.25764  -0.24248  -0.24248  -0.11676  -0.11676
 Alpha  occ. eigenvalues --    0.02903   0.03177   0.03177
 Alpha virt. eigenvalues --    0.23819   0.26914   0.30643   0.30643   0.58311
 Alpha virt. eigenvalues --    0.65896   0.66559   0.66559   0.70159   0.70159
 Alpha virt. eigenvalues --    0.78268   0.96787   0.96787   1.05129   1.09121

 Mulliken charges:
               1
     1  F   -0.361758
     2  C   -0.166908
     3  H    0.156642
     4  H    0.156642
     5  H    0.156642
     6  Cl  -0.941262
 Sum of Mulliken charges =  -1.00000

 Dipole moment (field-independent basis, Debye):
    X=              0.0000    Y=             -0.0000    Z=             -6.3229  Tot=              6.3229
 Quadrupole moment (field-independent basis, Debye-Ang):
   XX=            -27.3800   YY=            -27.3800   ZZ=            -53.3516
   XY=             -0.0000   XZ=              0.0000   YZ=              0.0000

 Normal termination of Gaussian 16 at Wed Oct  7 12:53:22 2020.
