 Gaussian 16, Revision A.03,
 Gaussian 16:  ES64L-G16RevA.03 25-Dec-2016

 ----------------------------------------------------------------------
 #P PBEPBE/6-31G* 5D 7F Integral=UltraFineGrid SCF=(NoSymm,XQC,MaxCyc=1
 20) EmpiricalDispersion=GD3BJ IOp(1/33=1) Stable=Opt
 ----------------------------------------------------------------------

 TstMul:  Mul=     2
 TstMul:  ICh=     0
 TstMul:  Mul=     2
 Symbolic Z-matrix:
 Charge =  0 Multiplicity = 2

                         Standard orientation:
 ---------------------------------------------------------------------
 Center     Atomic      Atomic             Coordinates (Angstroms)
 Number     Number       Type             X           Y           Z
 ---------------------------------------------------------------------
      1          9           0        0.000000    0.000000    0.000000
 ---------------------------------------------------------------------

 SCF Done:  E(UPBE-PBE) =  -99.6125760360     A.U. after    9 cycles

 Unable to determine electronic state:  an orbital has unidentified symmetry.
 Alpha  occ. eigenvalues --  -24.33966  -1.08862  -0.45726  -0.36561  -0.36561
 Alpha virt. eigenvalues --    1.02376   1.08225   1.08225   1.22707   1.70183
 Alpha virt. eigenvalues --    1.71660   1.71660   1.76543   1.76543
  Beta  occ. eigenvalues --  -24.31166  -1.01582  -0.33670  -0.33670
  Beta virt. eigenvalues --   -0.30557   1.10127   1.10127   1.12724   1.27620
  Beta virt. eigenvalues --    1.77392   1.77392   1.77612   1.77612   1.79303

 Mulliken charges and spin densities:
               1          2
     1  F   -0.000000   1.000000
 Sum of Mulliken charges =  -0.00000   1.00000

 Dipole moment (field-independent basis, Debye):
    X=             -0.0000    Y=             -0.0000    Z=              0.0000  Tot=              0.0000
 Quadrupole moment (field-independent basis, Debye-Ang):
   XX=             -4.7115   YY=             -4.7114   ZZ=             -3.9010
   XY=              0.0000   XZ=             -0.0000   YZ=              0.0057

 Normal termination of Gaussian 16 at Wed Oct  7 12:52:25 2020.
