 Gaussian 16, Revision A.03,

 ----------------------------------------------------------------------
 #P Opt(TS,MaxCyc=50,NoEigenTest,MaxStep=10,AddRedundant) PBEPBE/6-31G*
  5D 7F Integral=UltraFineGrid SCF=(NoSymm,XQC,MaxCyc=120) EmpiricalDis
 persion=GD3BJ IOp(1/33=1)
 ----------------------------------------------------------------------

 TstMul:  Mul=     1
 TstMul:  ICh=     0
 TstMul:  Mul=     1
 Symbolic Z-matrix:
 Charge =  0 Multiplicity = 1

 SCF Done:  E(RPBE-PBE) =  -93.2277355350     A.U. after   13 cycles
 SCF Done:  E(RPBE-PBE) =  -93.2278831532     A.U. after   11 cycles
 SCF Done:  E(RPBE-PBE) =  -93.2278678621     A.U. after   11 cycles
 SCF Done:  E(RPBE-PBE) =  -93.2278586678     A.U. after    9 cycles
 Optimization completed.
    -- Stationary point found.
 Normal termination of Gaussian 16 at Wed Oct  7 12:54:10 2020.
 Gaussian 16:  ES64L-G16RevA.03 25-Dec-2016

 ----------------------------------------------------------------------
 #P Freq PBEPBE/6-31G* 5D 7F Integral=UltraFineGrid SCF=(NoSymm,XQC,Max
 Cyc=120) EmpiricalDispersion=GD3BJ IOp(1/33=1) Geom=Check Guess=Read
 ----------------------------------------------------------------------

 TstMul:  Mul=     1
 TstMul:  ICh=     0
 TstMul:  Mul=     1
 Structure from the checkpoint file:  "MN_49_hcnts_BH76_PBEDBJ_631Gs.chk"
 Charge =  0 Multiplicity = 1

                         Standard orientation:
 ---------------------------------------------------------------------
 Center     Atomic      Atomic             Coordinates (Angstroms)
 Number     Number       Type             X           Y           Z
 ---------------------------------------------------------------------
      1          6           0        0.080391    0.633056    0.000000
      2          7           0        0.080391   -0.571224    0.000000
      3          1           0       -1.045082    0.200229    0.000000
 ---------------------------------------------------------------------

 SCF Done:  E(RPBE-PBE) =  -93.2278586678     A.U. after    1 cycles

 The electronic state is 1-A'.
 Alpha  occ. eigenvalues --  -14.06722  -9.95580  -0.90057  -0.47216  -0.39998
 Alpha  occ. eigenvalues --   -0.33813  -0.28202
 Alpha virt. eigenvalues --   -0.09138  -0.02965   0.02777   0.29219   0.49076
 Alpha virt. eigenvalues --    0.49434   0.53231   0.62473   0.65568   0.69459
 Alpha virt. eigenvalues --    0.72686   0.77438   1.20057   1.40564   1.41875

 Mulliken charges:
               1
     1  C   -0.049590
     2  N   -0.218280
     3  H    0.267869
 Sum of Mulliken charges =  -0.00000

 Dipole moment (field-independent basis, Debye):
    X=             -1.2215    Y=              0.0741    Z=              0.0000  Tot=              1.2238
 Quadrupole moment (field-independent basis, Debye-Ang):
   XX=             -9.4764   YY=            -14.0992   ZZ=            -11.8137
   XY=             -0.2001   XZ=              0.0000   YZ=              0.0000

  Exact polarizability:  13.168   0.401  17.722   0.000  -0.000   8.719
 Approx polarizability:  23.206   2.143  44.522   0.000   0.000  13.810

 ******    1 imaginary frequencies (negative Signs) ******

                      1                      2                      3
                     A'                     A'                     A'
 Frequencies --  -1097.4206              1985.4801              2543.0765
 Red. masses --      1.1632                11.8186                 1.0588
 Frc consts  --      0.8253                27.4502                 4.0345
 IR Inten    --     64.5698                 9.6635               103.0843

 - Thermochemistry -
 -------------------
 Temperature   298.150 Kelvin.  Pressure   1.00000 Atm.
 Atom     1 has atomic number  6 and mass  12.00000

 Molecular mass:    27.01090 amu.
 Principal axes and moments of inertia in atomic units:
                           1         2         3
     Eigenvalues --     4.36455  33.65359  38.01813
           X           -0.02873   0.99959   0.00000
           Y            0.99959   0.02873   0.00000
           Z            0.00000   0.00000   1.00000
 This molecule is an asymmetric top.
 Rotational symmetry number  1.
 Rotational temperatures (Kelvin)     19.84487     2.57369     2.27823
 Rotational constants (GHZ):         413.49996    53.62701    47.47053
    1 imaginary frequencies ignored.
 Zero-point vibrational energy      27086.8 (Joules/Mol)
                                    6.47390 (Kcal/Mol)
 Vibrational temperatures:   2856.66  3658.92
          (Kelvin)

 Zero-point correction=                           0.010317 (Hartree/Particle)
 Thermal correction to Energy=                    0.013150
 Thermal correction to Enthalpy=                  0.014094
 Thermal correction to Gibbs Free Energy=        -0.010704
 Sum of electronic and zero-point Energies=            -93.217542
 Sum of electronic and thermal Energies=               -93.214709
 Sum of electronic and thermal Enthalpies=             -93.213764
 Sum of electronic and thermal Free Energies=          -93.238563

                     E (Thermal)             CV                S
                      KCal/Mol        Cal/Mol-Kelvin    Cal/Mol-Kelvin
 Total                    8.252              5.976             52.193
 Electronic               0.000              0.000              0.000
 Translational            0.889              2.981             35.816
 Rotational               0.889              2.981             16.375
 Vibrational              6.474              0.014              0.002

 Optimization completed.
    -- Stationary point found.

 1\1\GINC-NODE62\Freq\RPBEPBE\6-31G(d)\C1H1N1\RPEVERATI\07-Oct-2020\0\\
 #P Freq PBEPBE/6-31G* 5D 7F Integral=UltraFineGrid SCF=(NoSymm,XQC,Max
 Cyc=120) EmpiricalDispersion=GD3BJ IOp(1/33=1) Geom=Check Guess=Read\\
 TS search on BH76.\\0,1\C,0.0958637338,0.6373574784,0.\N,0.0619721515,
 -0.5664454227,0.\H,-1.0413438064,0.2363753296,0.\\Version=ES64L-G16Rev
 A.03\State=1-A'\HF=-93.2278587\RMSD=2.995e-10\RMSF=9.622e-05\ZeroPoint
 =0.0103168\Thermal=0.01315\Dipole=-0.4795818,0.0426515,0.\DipoleDeriv=
 -0.2144407,0.0357547,0.,0.1847218,-0.0829302,0.,0.,0.,-0.1319479,-0.10

 Normal termination of Gaussian 16 at Wed Oct  7 12:54:45 2020.
