 Gaussian 16, Revision A.03,
 Gaussian 16:  ES64L-G16RevA.03 25-Dec-2016

 ----------------------------------------------------------------------
 #P Opt(MaxCyc=100) PBEPBE/6-31G* 5D 7F Integral=UltraFineGrid SCF=(NoS
 ymm,XQC,MaxCyc=120) EmpiricalDispersion=GD3BJ IOp(1/33=1)
 ----------------------------------------------------------------------

 TstMul:  Mul=     1
 TstMul:  ICh=     0
 TstMul:  Mul=     1
 Symbolic Z-matrix:
 Charge =  0 Multiplicity = 1

 SCF Done:  E(RPBE-PBE) =  -460.582791542     A.U. after   10 cycles
 SCF Done:  E(RPBE-PBE) =  -460.583071358     A.U. after    9 cycles
 Optimization completed.
    -- Stationary point found.

                         Standard orientation:
 ---------------------------------------------------------------------
 Center     Atomic      Atomic             Coordinates (Angstroms)
 Number     Number       Type             X           Y           Z
 ---------------------------------------------------------------------
      1         17           0        0.000000    0.000000    0.072041
      2          1           0        0.000000    0.000000   -1.224700
 ---------------------------------------------------------------------

 The electronic state is 1-SG.
 Alpha  occ. eigenvalues -- -100.66421  -9.18126  -7.00703  -6.99463  -6.99463
 Alpha  occ. eigenvalues --   -0.77257  -0.42967  -0.28687  -0.28687
 Alpha virt. eigenvalues --   -0.01943   0.34715   0.37893   0.40755   0.40755
 Alpha virt. eigenvalues --    0.64184   0.76911   0.76911   0.80254   0.80254
 Alpha virt. eigenvalues --    1.10115

 Mulliken charges:
               1
     1  Cl  -0.232591
     2  H    0.232591
 Sum of Mulliken charges =  -0.00000

 Dipole moment (field-independent basis, Debye):
    X=              0.0000    Y=             -0.0000    Z=             -1.4894  Tot=              1.4894
 Quadrupole moment (field-independent basis, Debye-Ang):
   XX=            -13.9082   YY=            -13.9082   ZZ=            -10.3053
   XY=             -0.0000   XZ=              0.0000   YZ=             -0.0000

 Normal termination of Gaussian 16 at Wed Oct  7 12:52:59 2020.
