 Gaussian 16, Revision A.03,
 Gaussian 16:  ES64L-G16RevA.03 25-Dec-2016

 ----------------------------------------------------------------------
 #P Opt(MaxCyc=100) PBEPBE/6-31G* 5D 7F Integral=UltraFineGrid SCF=(NoS
 ymm,XQC,MaxCyc=120) EmpiricalDispersion=GD3BJ IOp(1/33=1)
 ----------------------------------------------------------------------

 TstMul:  Mul=     1
 TstMul:  ICh=     0
 TstMul:  Mul=     1
 Symbolic Z-matrix:
 Charge =  0 Multiplicity = 1

 SCF Done:  E(RPBE-PBE) =  -93.3049787257     A.U. after   11 cycles
 SCF Done:  E(RPBE-PBE) =  -93.3056592891     A.U. after   10 cycles
 SCF Done:  E(RPBE-PBE) =  -93.3056607969     A.U. after    7 cycles
 Optimization completed.
    -- Stationary point found.

                         Standard orientation:
 ---------------------------------------------------------------------
 Center     Atomic      Atomic             Coordinates (Angstroms)
 Number     Number       Type             X           Y           Z
 ---------------------------------------------------------------------
      1          6           0        0.000000    0.000000   -0.507432
      2          7           0        0.000000    0.000000    0.661574
      3          1           0        0.000000    0.000000   -1.586423
 ---------------------------------------------------------------------

 The electronic state is 1-SG.
 Alpha  occ. eigenvalues --  -14.02285  -9.94705  -0.83011  -0.54742  -0.32222
 Alpha  occ. eigenvalues --   -0.31524  -0.31524
 Alpha virt. eigenvalues --   -0.01820  -0.01820   0.05292   0.25761   0.48660
 Alpha virt. eigenvalues --    0.48660   0.61170   0.65116   0.72537   0.72537
 Alpha virt. eigenvalues --    0.77471   1.00935   1.42627   1.44241   1.44241

 Mulliken charges:
               1
     1  C    0.020423
     2  N   -0.265954
     3  H    0.245531
 Sum of Mulliken charges =  -0.00000

 Dipole moment (field-independent basis, Debye):
    X=              0.0000    Y=             -0.0000    Z=             -2.8048  Tot=              2.8048
 Quadrupole moment (field-independent basis, Debye-Ang):
   XX=            -11.4013   YY=            -11.4013   ZZ=             -9.5120
   XY=             -0.0000   XZ=              0.0000   YZ=              0.0000

 1\1\GINC-NODE13\FOpt\RPBEPBE\6-31G(d)\C1H1N1\RPEVERATI\07-Oct-2020\0\\
 #P Opt(MaxCyc=100) PBEPBE/6-31G* 5D 7F Integral=UltraFineGrid SCF=(NoS
 ymm,XQC,MaxCyc=120) EmpiricalDispersion=GD3BJ IOp(1/33=1)\\TS search o
 n BH76.\\0,1\C,0.,0.,-0.5013439712\N,0.,0.,0.6676624507\H,0.,0.,-1.580
 334492\\Version=ES64L-G16RevA.03\State=1-SG\HF=-93.3056608\RMSD=9.459e
 -10\RMSF=1.221e-05\Dipole=0.,0.,-1.1034855\Quadrupole=-0.4682205,-0.46
 82205,0.9364409,0.,0.,0.\PG=C*V [C*(H1C1N1)]\\@

 Normal termination of Gaussian 16 at Wed Oct  7 12:53:11 2020.
