 Gaussian 16, Revision A.03,
 Gaussian 16:  ES64L-G16RevA.03 25-Dec-2016

 ----------------------------------------------------------------------
 #P Opt(MaxCyc=100) PBEPBE/6-31G* 5D 7F Integral=UltraFineGrid SCF=(NoS
 ymm,XQC,MaxCyc=120) EmpiricalDispersion=GD3BJ IOp(1/33=1)
 ----------------------------------------------------------------------

 TstMul:  Mul=     1
 TstMul:  ICh=     0
 TstMul:  Mul=     1
 Symbolic Z-matrix:
 Charge =  0 Multiplicity = 1

 SCF Done:  E(RPBE-PBE) =  -76.3200896530     A.U. after   10 cycles
 SCF Done:  E(RPBE-PBE) =  -76.3207693958     A.U. after    7 cycles
 SCF Done:  E(RPBE-PBE) =  -76.3207914057     A.U. after    6 cycles
 Optimization completed.
    -- Stationary point found.

                         Standard orientation:
 ---------------------------------------------------------------------
 Center     Atomic      Atomic             Coordinates (Angstroms)
 Number     Number       Type             X           Y           Z
 ---------------------------------------------------------------------
      1          8           0        0.000000    0.000000    0.121771
      2          1           0       -0.000000    0.763794   -0.487084
      3          1           0       -0.000000   -0.763794   -0.487084
 ---------------------------------------------------------------------

 The electronic state is 1-A1.
 Alpha  occ. eigenvalues --  -18.74817  -0.90258  -0.45632  -0.31183  -0.22621
 Alpha virt. eigenvalues --    0.04128   0.12128   0.72204   0.79960   0.84366
 Alpha virt. eigenvalues --    0.89062   1.00960   1.32803   1.65933   1.67933
 Alpha virt. eigenvalues --    1.71178   2.20377   2.48244

 Mulliken charges:
               1
     1  O   -0.779357
     2  H    0.389679
     3  H    0.389679
 Sum of Mulliken charges =  -0.00000

 Dipole moment (field-independent basis, Debye):
    X=             -0.0000    Y=              0.0000    Z=             -2.0628  Tot=              2.0628
 Quadrupole moment (field-independent basis, Debye-Ang):
   XX=             -7.2330   YY=             -4.3197   ZZ=             -5.9617
   XY=              0.0000   XZ=              0.0000   YZ=             -0.0000

 Normal termination of Gaussian 16 at Wed Oct  7 12:52:57 2020.
