 Gaussian 16, Revision A.03,

 ----------------------------------------------------------------------
 #P Opt(TS,MaxCyc=50,NoEigenTest,MaxStep=10,AddRedundant) PBEPBE/6-31G*
  5D 7F Integral=UltraFineGrid SCF=(NoSymm,XQC,MaxCyc=120) EmpiricalDis
 persion=GD3BJ IOp(1/33=1)
 ----------------------------------------------------------------------

 TstMul:  Mul=     2
 TstMul:  ICh=     0
 TstMul:  Mul=     2
 Symbolic Z-matrix:
 Charge =  0 Multiplicity = 2

 SCF Done:  E(UPBE-PBE) =  -461.062145530     A.U. after   10 cycles
 SCF Done:  E(UPBE-PBE) =  -461.062399852     A.U. after    9 cycles
 SCF Done:  E(UPBE-PBE) =  -461.062423059     A.U. after    7 cycles
 Optimization completed.
    -- Stationary point found.
 Normal termination of Gaussian 16 at Wed Oct  7 12:53:01 2020.
 Gaussian 16:  ES64L-G16RevA.03 25-Dec-2016

 ----------------------------------------------------------------------
 #P Freq PBEPBE/6-31G* 5D 7F Integral=UltraFineGrid SCF=(NoSymm,XQC,Max
 Cyc=120) EmpiricalDispersion=GD3BJ IOp(1/33=1) Geom=Check Guess=Read
 ----------------------------------------------------------------------

 TstMul:  Mul=     2
 TstMul:  ICh=     0
 TstMul:  Mul=     2
 Structure from the checkpoint file:  "MN_45_hclhts_BH76_PBEDBJ_631Gs.chk"
 Charge =  0 Multiplicity = 2

                         Standard orientation:
 ---------------------------------------------------------------------
 Center     Atomic      Atomic             Coordinates (Angstroms)
 Number     Number       Type             X           Y           Z
 ---------------------------------------------------------------------
      1          1           0        0.000000    0.000000    1.510300
      2         17           0        0.000000    0.000000    0.000000
      3          1           0        0.000000    0.000000   -1.510300
 ---------------------------------------------------------------------

 SCF Done:  E(UPBE-PBE) =  -461.062423059     A.U. after    1 cycles

 The electronic state is 2-SGG.
 Alpha  occ. eigenvalues -- -100.68035  -9.19423  -7.02124  -7.00754  -7.00754
 Alpha  occ. eigenvalues --   -0.77199  -0.48529  -0.29658  -0.29658  -0.22291
 Alpha virt. eigenvalues --   -0.01050   0.35991   0.39636   0.39636   0.58026
 Alpha virt. eigenvalues --    0.59619   0.66316   0.76193   0.76193   0.79138
 Alpha virt. eigenvalues --    0.79138   1.00535
  Beta  occ. eigenvalues -- -100.67994  -9.19359  -7.02196  -7.00656  -7.00656
  Beta  occ. eigenvalues --   -0.76536  -0.45214  -0.29208  -0.29208
  Beta virt. eigenvalues --   -0.13700   0.04865   0.36096   0.40072   0.40072
  Beta virt. eigenvalues --    0.59058   0.65025   0.75367   0.75738   0.75738
  Beta virt. eigenvalues --    0.80034   0.80034   1.04772

 Mulliken charges and spin densities:
               1          2
     1  H    0.131535   0.542091
     2  Cl  -0.263070  -0.084182
     3  H    0.131535   0.542091
 Sum of Mulliken charges =   0.00000   1.00000

 Dipole moment (field-independent basis, Debye):
    X=              0.0000    Y=              0.0000    Z=             -0.0000  Tot=              0.0000
 Quadrupole moment (field-independent basis, Debye-Ang):
   XX=            -15.2051   YY=            -15.2051   ZZ=            -11.7158
   XY=             -0.0000   XZ=             -0.0000   YZ=              0.0000

  Exact polarizability:   6.379  -0.000   6.379   0.000  -0.000  37.659
 Approx polarizability:   8.756  -0.000   8.756   0.000  -0.000  76.128

 ******    1 imaginary frequencies (negative Signs) ******

                      1                      2                      3
                     SGU                    PIU                    PIU
 Frequencies --  -1092.4644               197.2831               197.2831
 Red. masses --      1.0641                 1.0641                 1.0641
 Frc consts  --      0.7483                 0.0244                 0.0244
 IR Inten    --    755.1458                46.0208                46.0208

                      4
                     SGG
 Frequencies --   1768.2184
 Red. masses --      1.0078
 Frc consts  --      1.8566
 IR Inten    --      0.0000

 - Thermochemistry -
 -------------------
 Temperature   298.150 Kelvin.  Pressure   1.00000 Atm.
 Atom     1 has atomic number  1 and mass   1.00783

 Molecular mass:    36.98450 amu.
 Principal axes and moments of inertia in atomic units:
                           1         2         3
     Eigenvalues --     0.00000  16.41871  16.41871
           X           -0.00000   1.00000   0.00000
           Y            0.00000   0.00000   1.00000
           Z            1.00000   0.00000   0.00000
 This molecule is a prolate symmetric top.
 Rotational symmetry number  2.
 Rotational temperature (Kelvin)      5.27532
 Rotational constant (GHZ):         109.919781
    1 imaginary frequencies ignored.
 Zero-point vibrational energy      12936.3 (Joules/Mol)
                                    3.09186 (Kcal/Mol)
 Warning -- explicit consideration of   2 degrees of freedom as
           vibrations may cause significant error
 Vibrational temperatures:    283.85   283.85  2544.07
          (Kelvin)

 Zero-point correction=                           0.004927 (Hartree/Particle)
 Thermal correction to Energy=                    0.008419
 Thermal correction to Enthalpy=                  0.009363
 Thermal correction to Gibbs Free Energy=        -0.014905
 Sum of electronic and zero-point Energies=           -461.057496
 Sum of electronic and thermal Energies=              -461.054004
 Sum of electronic and thermal Enthalpies=            -461.053060
 Sum of electronic and thermal Free Energies=         -461.077328

                     E (Thermal)             CV                S
                      KCal/Mol        Cal/Mol-Kelvin    Cal/Mol-Kelvin
 Total                    5.283              8.684             51.078
 Electronic               0.000              0.000              1.377
 Translational            0.889              2.981             36.753
 Rotational               0.592              1.987              8.627
 Vibrational              3.802              3.716              4.320
 Vibration     1          0.637              1.844              2.158
 Vibration     2          0.637              1.844              2.158

 Optimization completed.
    -- Stationary point found.
 Normal termination of Gaussian 16 at Wed Oct  7 12:53:23 2020.
