 Gaussian 16, Revision A.03,
 Gaussian 16:  ES64L-G16RevA.03 25-Dec-2016

 ----------------------------------------------------------------------
 #P Opt(MaxCyc=100) PBEPBE/6-31G* 5D 7F Integral=UltraFineGrid SCF=(NoS
 ymm,XQC,MaxCyc=120) EmpiricalDispersion=GD3BJ IOp(1/33=1)
 ----------------------------------------------------------------------

 TstMul:  Mul=     2
 TstMul:  ICh=     0
 TstMul:  Mul=     2
 Symbolic Z-matrix:
 Charge =  0 Multiplicity = 2

 SCF Done:  E(UPBE-PBE) =  -109.905163427     A.U. after   15 cycles
 SCF Done:  E(UPBE-PBE) =  -109.905885363     A.U. after   13 cycles
 SCF Done:  E(UPBE-PBE) =  -109.905926148     A.U. after   10 cycles
 SCF Done:  E(UPBE-PBE) =  -109.905929386     A.U. after    9 cycles
 Optimization completed.
    -- Stationary point found.

                         Standard orientation:
 ---------------------------------------------------------------------
 Center     Atomic      Atomic             Coordinates (Angstroms)
 Number     Number       Type             X           Y           Z
 ---------------------------------------------------------------------
      1          7           0       -0.063742    0.666428    0.000000
      2          7           0       -0.063742   -0.520800    0.000000
      3          1           0        0.892394   -1.019396    0.000000
 ---------------------------------------------------------------------

 The electronic state is 2-A'.
 Alpha  occ. eigenvalues --  -14.08140 -14.06811  -0.97732  -0.60580  -0.42218
 Alpha  occ. eigenvalues --   -0.38137  -0.35750  -0.16453
 Alpha virt. eigenvalues --   -0.08632   0.04455   0.33634   0.58280   0.58761
 Alpha virt. eigenvalues --    0.60882   0.63087   0.69333   0.70345   0.76249
 Alpha virt. eigenvalues --    0.88661   1.20470   1.40309   1.41977   1.42637

  Beta  occ. eigenvalues --  -14.07852 -14.05482  -0.96283  -0.58407  -0.38896
  Beta  occ. eigenvalues --   -0.37291  -0.33158
  Beta virt. eigenvalues --   -0.10089  -0.07316   0.06849   0.35057   0.59278
  Beta virt. eigenvalues --    0.59314   0.63151   0.67973   0.70658   0.71330
  Beta virt. eigenvalues --    0.79322   0.89823   1.22193   1.41807   1.44084

 Mulliken charges and spin densities:
               1          2
     1  N   -0.079928   0.689839
     2  N   -0.222847   0.129354
     3  H    0.302775   0.180807
 Sum of Mulliken charges =  -0.00000   1.00000

 Dipole moment (field-independent basis, Debye):
    X=              1.3498    Y=             -1.2569    Z=              0.0000  Tot=              1.8443
 Quadrupole moment (field-independent basis, Debye-Ang):
   XX=            -10.7479   YY=            -11.8808   ZZ=            -11.0001
   XY=             -1.3088   XZ=              0.0000   YZ=              0.0000

 Normal termination of Gaussian 16 at Wed Oct  7 12:54:05 2020.
