 Gaussian 16, Revision A.03,

 ----------------------------------------------------------------------
 #P Opt(TS,MaxCyc=50,NoEigenTest,MaxStep=10,AddRedundant) PBEPBE/6-31G*
  5D 7F Integral=UltraFineGrid SCF=(NoSymm,XQC,MaxCyc=120) EmpiricalDis
 persion=GD3BJ IOp(1/33=1)
 ----------------------------------------------------------------------

 TstMul:  Mul=     2
 TstMul:  ICh=     0
 TstMul:  Mul=     2
 Symbolic Z-matrix:
 Charge =  0 Multiplicity = 2

 SCF Done:  E(UPBE-PBE) =  -113.680814482     A.U. after   14 cycles
 SCF Done:  E(UPBE-PBE) =  -113.681112670     A.U. after   11 cycles
 SCF Done:  E(UPBE-PBE) =  -113.680864966     A.U. after   12 cycles
 SCF Done:  E(UPBE-PBE) =  -113.680495224     A.U. after   13 cycles
 SCF Done:  E(UPBE-PBE) =  -113.680153199     A.U. after   13 cycles
 SCF Done:  E(UPBE-PBE) =  -113.679827993     A.U. after   13 cycles
 SCF Done:  E(UPBE-PBE) =  -113.679548121     A.U. after   12 cycles
 SCF Done:  E(UPBE-PBE) =  -113.679328778     A.U. after   12 cycles
 SCF Done:  E(UPBE-PBE) =  -113.679173052     A.U. after   12 cycles
 SCF Done:  E(UPBE-PBE) =  -113.679075407     A.U. after   12 cycles
 SCF Done:  E(UPBE-PBE) =  -113.679025264     A.U. after   12 cycles
 SCF Done:  E(UPBE-PBE) =  -113.679011797     A.U. after   11 cycles
 SCF Done:  E(UPBE-PBE) =  -113.679010350     A.U. after    9 cycles
 SCF Done:  E(UPBE-PBE) =  -113.679010296     A.U. after    9 cycles
 Optimization completed.
    -- Stationary point found.
 Normal termination of Gaussian 16 at Wed Oct  7 12:55:34 2020.
 Gaussian 16:  ES64L-G16RevA.03 25-Dec-2016

 ----------------------------------------------------------------------
 #P Freq PBEPBE/6-31G* 5D 7F Integral=UltraFineGrid SCF=(NoSymm,XQC,Max
 Cyc=120) EmpiricalDispersion=GD3BJ IOp(1/33=1) Geom=Check Guess=Read
 ----------------------------------------------------------------------

 TstMul:  Mul=     2
 TstMul:  ICh=     0
 TstMul:  Mul=     2
 Structure from the checkpoint file:  "MN_51_hcots_BH76_PBEDBJ_631Gs.chk"
 Charge =  0 Multiplicity = 2

                         Standard orientation:
 ---------------------------------------------------------------------
 Center     Atomic      Atomic             Coordinates (Angstroms)
 Number     Number       Type             X           Y           Z
 ---------------------------------------------------------------------
      1          6           0        0.139950    0.547098   -0.000000
      2          8           0        0.139950   -0.603546    0.000000
      3          1           0       -1.959296    1.545783   -0.000000
 ---------------------------------------------------------------------

 SCF Done:  E(UPBE-PBE) =  -113.679010296     A.U. after    1 cycles

 The electronic state is 2-A'.
 Alpha  occ. eigenvalues --  -18.86929 -10.00515  -1.05382  -0.50322  -0.41491
 Alpha  occ. eigenvalues --   -0.41269  -0.33280  -0.25331
 Alpha virt. eigenvalues --   -0.06228  -0.05154   0.23511   0.47774   0.49880
 Alpha virt. eigenvalues --    0.57893   0.67399   0.73122   0.79127   0.86616
 Alpha virt. eigenvalues --    0.87640   1.41705   1.42210   1.45148   1.46197

  Beta  occ. eigenvalues --  -18.86860 -10.00441  -1.05273  -0.50184  -0.41196
  Beta  occ. eigenvalues --   -0.41155  -0.31854
  Beta virt. eigenvalues --   -0.09462  -0.06061  -0.00900   0.23604   0.47860
  Beta virt. eigenvalues --    0.50497   0.59979   0.67829   0.78776   0.86662
  Beta virt. eigenvalues --    0.88009   0.94512   1.41851   1.42498   1.45313

 Mulliken charges and spin densities:
               1          2
     1  C    0.123941   0.028807
     2  O   -0.131392   0.025225
     3  H    0.007451   0.945968
 Sum of Mulliken charges =   0.00000   1.00000

 Dipole moment (field-independent basis, Debye):
    X=             -0.0732    Y=             -0.1049    Z=             -0.0000  Tot=              0.1279
 Quadrupole moment (field-independent basis, Debye-Ang):
   XX=            -11.0853   YY=            -13.0225   ZZ=            -11.1689
   XY=             -0.1533   XZ=              0.0000   YZ=              0.0000

  Exact polarizability:  15.100  -3.769  15.128   0.000  -0.000   8.086
 Approx polarizability:  22.419  -4.741  32.398  -0.000   0.000  13.295

 ******    1 imaginary frequencies (negative Signs) ******

                      1                      2                      3
                     A'                     A'                     A'
 Frequencies --   -258.6293               189.8938              2106.7291
 Red. masses --      1.0852                 1.6241                13.4086
 Frc consts  --      0.0428                 0.0345                35.0632
 IR Inten    --      0.4755                 0.6051                82.1443

 - Thermochemistry -
 -------------------
 Temperature   298.150 Kelvin.  Pressure   1.00000 Atm.
 Atom     1 has atomic number  6 and mass  12.00000

 Molecular mass:    29.00274 amu.
 Principal axes and moments of inertia in atomic units:
                           1         2         3
     Eigenvalues --    10.64829  46.60507  57.25336
           X           -0.36003   0.93294   0.00000
           Y            0.93294   0.36003   0.00000
           Z           -0.00000   0.00000   1.00000
 This molecule is an asymmetric top.
 Rotational symmetry number  1.
 Rotational temperatures (Kelvin)      8.13407     1.85847     1.51282
 Rotational constants (GHZ):         169.48649    38.72414    31.52201
    1 imaginary frequencies ignored.
 Zero-point vibrational energy      13736.9 (Joules/Mol)
                                    3.28319 (Kcal/Mol)
 Warning -- explicit consideration of   1 degrees of freedom as
           vibrations may cause significant error
 Vibrational temperatures:    273.21  3031.11
          (Kelvin)

 Zero-point correction=                           0.005232 (Hartree/Particle)
 Thermal correction to Energy=                    0.008642
 Thermal correction to Enthalpy=                  0.009586
 Thermal correction to Gibbs Free Energy=        -0.017795
 Sum of electronic and zero-point Energies=           -113.673778
 Sum of electronic and thermal Energies=              -113.670369
 Sum of electronic and thermal Enthalpies=            -113.669424
 Sum of electronic and thermal Free Energies=         -113.696805

                     E (Thermal)             CV                S
                      KCal/Mol        Cal/Mol-Kelvin    Cal/Mol-Kelvin
 Total                    5.423              7.823             57.627
 Electronic               0.000              0.000              1.377
 Translational            0.889              2.981             36.028
 Rotational               0.889              2.981             17.992
 Vibrational              3.645              1.862              2.230
 Vibration     1          0.633              1.854              2.229

                           ! Non-Optimized Parameters !
 Normal termination of Gaussian 16 at Wed Oct  7 12:55:56 2020.
