 Gaussian 16, Revision A.03,

 ----------------------------------------------------------------------
 #P Opt(TS,MaxCyc=50,NoEigenTest,MaxStep=10,AddRedundant) PBEPBE/6-31G*
  5D 7F Integral=UltraFineGrid SCF=(NoSymm,XQC,MaxCyc=120) EmpiricalDis
 persion=GD3BJ IOp(1/33=1)
 ----------------------------------------------------------------------

 TstMul:  Mul=     2
 TstMul:  ICh=     0
 TstMul:  Mul=     2
 Symbolic Z-matrix:
 Charge =  0 Multiplicity = 2

 SCF Done:  E(UPBE-PBE) =  -109.890991311     A.U. after   15 cycles
 SCF Done:  E(UPBE-PBE) =  -109.891661108     A.U. after   13 cycles
 SCF Done:  E(UPBE-PBE) =  -109.891611805     A.U. after   10 cycles
 SCF Done:  E(UPBE-PBE) =  -109.891472478     A.U. after   11 cycles
 SCF Done:  E(UPBE-PBE) =  -109.891464525     A.U. after   10 cycles
 SCF Done:  E(UPBE-PBE) =  -109.890886590     A.U. after   14 cycles
 SCF Done:  E(UPBE-PBE) =  -109.890708139     A.U. after   13 cycles
 SCF Done:  E(UPBE-PBE) =  -109.890704855     A.U. after   10 cycles
 Optimization completed.
    -- Stationary point found.

 1\1\GINC-NODE13\FTS\UPBEPBE\6-31G(d)\H1N2(2)\RPEVERATI\07-Oct-2020\0\\
 #P Opt(TS,MaxCyc=50,NoEigenTest,MaxStep=10,AddRedundant) PBEPBE/6-31G*
  5D 7F Integral=UltraFineGrid SCF=(NoSymm,XQC,MaxCyc=120) EmpiricalDis
 persion=GD3BJ IOp(1/33=1)\\TS search on BH76.\\0,2\N,0.1238602179,-0.6
 841934359,0.\N,0.1161280669,0.4493191556,0.\H,-1.2547480293,1.21321499
 1,0.\\Version=ES64L-G16RevA.03\State=2-A'\HF=-109.8907049\S2=0.756645\
 S2-1=0.\S2A=0.750004\RMSD=7.330e-09\RMSF=5.183e-05\Dipole=-0.1104465,0
 .1128754,0.\Quadrupole=0.2961477,-0.677954,0.3818063,-0.1385898,0.,0.\

 Normal termination of Gaussian 16 at Wed Oct  7 12:54:51 2020.
 Gaussian 16:  ES64L-G16RevA.03 25-Dec-2016

 ----------------------------------------------------------------------
 #P Freq PBEPBE/6-31G* 5D 7F Integral=UltraFineGrid SCF=(NoSymm,XQC,Max
 Cyc=120) EmpiricalDispersion=GD3BJ IOp(1/33=1) Geom=Check Guess=Read
 ----------------------------------------------------------------------

 TstMul:  Mul=     2
 TstMul:  ICh=     0
 TstMul:  Mul=     2
 Structure from the checkpoint file:  "MN_59_hn2ts_BH76_PBEDBJ_631Gs.chk"
 Charge =  0 Multiplicity = 2

                         Standard orientation:
 ---------------------------------------------------------------------
 Center     Atomic      Atomic             Coordinates (Angstroms)
 Number     Number       Type             X           Y           Z
 ---------------------------------------------------------------------
      1          7           0        0.091042   -0.656103    0.000000
      2          7           0        0.091042    0.477436    0.000000
      3          1           0       -1.274591    1.250665    0.000000
 ---------------------------------------------------------------------

 SCF Done:  E(UPBE-PBE) =  -109.890704855     A.U. after    1 cycles

 The electronic state is 2-A'.
 Alpha  occ. eigenvalues --  -14.10583 -14.09196  -1.01420  -0.52163  -0.42965
 Alpha  occ. eigenvalues --   -0.40790  -0.37594  -0.21068
 Alpha virt. eigenvalues --   -0.07531  -0.04344   0.36887   0.55416   0.57105
 Alpha virt. eigenvalues --    0.58337   0.60838   0.70040   0.71736   0.74212
 Alpha virt. eigenvalues --    0.86956   1.23245   1.38911   1.40415   1.45212

  Beta  occ. eigenvalues --  -14.10485 -14.08645  -1.00880  -0.50494  -0.41012
  Beta  occ. eigenvalues --   -0.40408  -0.36313
  Beta virt. eigenvalues --   -0.12025  -0.06967   0.00066   0.37525   0.56717
  Beta virt. eigenvalues --    0.57348   0.60852   0.65842   0.70473   0.72389
  Beta virt. eigenvalues --    0.78630   0.90914   1.24383   1.39680   1.41485

 Mulliken charges and spin densities:
               1          2
     1  N    0.002062   0.264056
     2  N   -0.069800  -0.002863
     3  H    0.067738   0.738807
 Sum of Mulliken charges =  -0.00000   1.00000

 Dipole moment (field-independent basis, Debye):
    X=             -0.2788    Y=              0.2888    Z=              0.0000  Tot=              0.4014
 Quadrupole moment (field-independent basis, Debye-Ang):
   XX=            -11.3754   YY=            -12.6804   ZZ=            -11.2576
   XY=             -0.1953   XZ=              0.0000   YZ=              0.0000

  Exact polarizability:  15.372  -7.351  20.183   0.000  -0.000   6.161
 Approx polarizability:  26.065 -14.978  50.005  -0.000  -0.000   9.721

 ******    1 imaginary frequencies (negative Signs) ******

                      1                      2                      3
                     A'                     A'                     A'
 Frequencies --   -980.2574               631.0133              2172.1805
 Red. masses --      1.0871                 1.3790                10.5518
 Frc consts  --      0.6154                 0.3235                29.3337
 IR Inten    --    169.2648                 2.4557                63.1821

 - Thermochemistry -
 -------------------
 Temperature   298.150 Kelvin.  Pressure   1.00000 Atm.
 Atom     1 has atomic number  7 and mass  14.00307

 Molecular mass:    29.01397 amu.
 Principal axes and moments of inertia in atomic units:
                           1         2         3
     Eigenvalues --     5.25810  39.58518  44.84328
           X           -0.18858   0.98206   0.00000
           Y            0.98206   0.18858   0.00000
           Z            0.00000   0.00000   1.00000
 This molecule is an asymmetric top.
 Rotational symmetry number  1.
 Rotational temperatures (Kelvin)     16.47248     2.18804     1.93148
 Rotational constants (GHZ):         343.23072    45.59134    40.24552
    1 imaginary frequencies ignored.
 Zero-point vibrational energy      16766.8 (Joules/Mol)
                                    4.00737 (Kcal/Mol)
 Vibrational temperatures:    907.89  3125.28
          (Kelvin)

 Zero-point correction=                           0.006386 (Hartree/Particle)
 Thermal correction to Energy=                    0.009363
 Thermal correction to Enthalpy=                  0.010307
 Thermal correction to Gibbs Free Energy=        -0.015679
 Sum of electronic and zero-point Energies=           -109.884319
 Sum of electronic and thermal Energies=              -109.881342
 Sum of electronic and thermal Enthalpies=            -109.880398
 Sum of electronic and thermal Free Energies=         -109.906384

                     E (Thermal)             CV                S
                      KCal/Mol        Cal/Mol-Kelvin    Cal/Mol-Kelvin
 Total                    5.875              6.935             54.693
 Electronic               0.000              0.000              1.377
 Translational            0.889              2.981             36.030
 Rotational               0.889              2.981             16.886
 Vibrational              4.098              0.973              0.400

 Optimization completed.
    -- Stationary point found.
 Normal termination of Gaussian 16 at Wed Oct  7 12:55:15 2020.
