 Gaussian 16, Revision A.03,

 ----------------------------------------------------------------------
 #P Opt(TS,MaxCyc=50,NoEigenTest,MaxStep=10,AddRedundant) PBEPBE/6-31G*
  5D 7F Integral=UltraFineGrid SCF=(NoSymm,XQC,MaxCyc=120) EmpiricalDis
 persion=GD3BJ IOp(1/33=1)
 ----------------------------------------------------------------------

 TstMul:  Mul=     2
 TstMul:  ICh=     0
 TstMul:  Mul=     2
 Symbolic Z-matrix:
 Charge =  0 Multiplicity = 2

 SCF Done:  E(UPBE-PBE) =  -100.769572385     A.U. after    9 cycles
 SCF Done:  E(UPBE-PBE) =  -100.771106807     A.U. after    9 cycles
 SCF Done:  E(UPBE-PBE) =  -100.771728911     A.U. after    9 cycles
 SCF Done:  E(UPBE-PBE) =  -100.771755893     A.U. after    7 cycles
 Optimization completed.
    -- Stationary point found.

 1\1\GINC-NODE54\FTS\UPBEPBE\6-31G(d)\F1H2(2)\RPEVERATI\07-Oct-2020\0\\
 #P Opt(TS,MaxCyc=50,NoEigenTest,MaxStep=10,AddRedundant) PBEPBE/6-31G*
  5D 7F Integral=UltraFineGrid SCF=(NoSymm,XQC,MaxCyc=120) EmpiricalDis
 persion=GD3BJ IOp(1/33=1)\\TS search on BH76.\\0,2\H,0.,0.,1.194863153
 1\F,0.,0.,0.\H,0.,0.,-1.1948631531\\Version=ES64L-G16RevA.03\State=2-S
 GG\HF=-100.7717559\S2=0.758759\S2-1=0.\S2A=0.750001\RMSD=2.429e-09\RMS
 F=8.966e-05\Dipole=0.,0.,0.\Quadrupole=-0.5593895,-0.5593895,1.1187791
 ,0.,0.,0.\PG=D*H [O(F1),C*(H1.H1)]\\@

 Normal termination of Gaussian 16 at Wed Oct  7 12:53:56 2020.
 Gaussian 16:  ES64L-G16RevA.03 25-Dec-2016

 ----------------------------------------------------------------------
 #P Freq PBEPBE/6-31G* 5D 7F Integral=UltraFineGrid SCF=(NoSymm,XQC,Max
 Cyc=120) EmpiricalDispersion=GD3BJ IOp(1/33=1) Geom=Check Guess=Read
 ----------------------------------------------------------------------

 TstMul:  Mul=     2
 TstMul:  ICh=     0
 TstMul:  Mul=     2
 Structure from the checkpoint file:  "MN_54_hfhts_BH76_PBEDBJ_631Gs.chk"
 Charge =  0 Multiplicity = 2

                         Standard orientation:
 ---------------------------------------------------------------------
 Center     Atomic      Atomic             Coordinates (Angstroms)
 Number     Number       Type             X           Y           Z
 ---------------------------------------------------------------------
      1          1           0        0.000000    0.000000    1.194863
      2          9           0        0.000000    0.000000    0.000000
      3          1           0        0.000000    0.000000   -1.194863
 ---------------------------------------------------------------------

 SCF Done:  E(UPBE-PBE) =  -100.771755893     A.U. after    1 cycles

 The electronic state is 2-SGG.
 Alpha  occ. eigenvalues --  -24.26693  -1.05650  -0.52040  -0.32637  -0.32637
 Alpha  occ. eigenvalues --   -0.16477
 Alpha virt. eigenvalues --   -0.01743   0.55466   0.69145   1.09513   1.09513
 Alpha virt. eigenvalues --    1.52942   1.58684   1.71206   1.71206   1.78615
 Alpha virt. eigenvalues --    1.78615   2.23366
  Beta  occ. eigenvalues --  -24.26579  -1.05325  -0.49350  -0.32316  -0.32316
  Beta virt. eigenvalues --   -0.07181   0.04943   0.63650   0.78213   1.09941
  Beta virt. eigenvalues --    1.09941   1.53683   1.61575   1.70913   1.70913
  Beta virt. eigenvalues --    1.78752   1.78752   2.26315

 Mulliken charges and spin densities:
               1          2
     1  H    0.187711   0.550491
     2  F   -0.375422  -0.100982
     3  H    0.187711   0.550491
 Sum of Mulliken charges =  -0.00000   1.00000

 Dipole moment (field-independent basis, Debye):
    X=              0.0000    Y=             -0.0000    Z=              0.0000  Tot=              0.0000
 Quadrupole moment (field-independent basis, Debye-Ang):
   XX=             -6.9817   YY=             -6.9817   ZZ=             -4.7245
   XY=             -0.0000   XZ=             -0.0000   YZ=              0.0000

  Exact polarizability:   1.959   0.000   1.959  -0.000  -0.000  34.185
 Approx polarizability:   2.396  -0.000   2.396  -0.000  -0.000  73.219

 ******    1 imaginary frequencies (negative Signs) ******

                      1                      2                      3
                     SGU                    PIU                    PIU
 Frequencies --  -2086.3211                89.5557                89.5557
 Red. masses --      1.1085                 1.1085                 1.1085
 Frc consts  --      2.8428                 0.0052                 0.0052
 IR Inten    --   3125.1525                44.2017                44.2017

                      4
                     SGG
 Frequencies --   2063.1281
 Red. masses --      1.0078
 Frc consts  --      2.5275
 IR Inten    --      0.0000

 - Thermochemistry -
 -------------------
 Temperature   298.150 Kelvin.  Pressure   1.00000 Atm.
 Atom     1 has atomic number  1 and mass   1.00783

 Molecular mass:    21.01405 amu.
 Principal axes and moments of inertia in atomic units:
                           1         2         3
     Eigenvalues --     0.00000  10.27659  10.27659
           X           -0.00000   1.00000   0.00000
           Y            0.00000   0.00000   1.00000
           Z            1.00000   0.00000   0.00000
 This molecule is a prolate symmetric top.
 Rotational symmetry number  2.
 Rotational temperature (Kelvin)      8.42827
 Rotational constant (GHZ):         175.616664
    1 imaginary frequencies ignored.
 Zero-point vibrational energy      13411.6 (Joules/Mol)
                                    3.20544 (Kcal/Mol)
 Warning -- explicit consideration of   2 degrees of freedom as
           vibrations may cause significant error
 Vibrational temperatures:    128.85   128.85  2968.38
          (Kelvin)

 Zero-point correction=                           0.005108 (Hartree/Particle)
 Thermal correction to Energy=                    0.008979
 Thermal correction to Enthalpy=                  0.009923
 Thermal correction to Gibbs Free Energy=        -0.014538
 Sum of electronic and zero-point Energies=           -100.766648
 Sum of electronic and thermal Energies=              -100.762777
 Sum of electronic and thermal Enthalpies=            -100.761833
 Sum of electronic and thermal Free Energies=         -100.786294

                     E (Thermal)             CV                S
                      KCal/Mol        Cal/Mol-Kelvin    Cal/Mol-Kelvin
 Total                    5.634              8.890             51.482
 Electronic               0.000              0.000              1.377
 Translational            0.889              2.981             35.068
 Rotational               0.592              1.987              7.696
 Vibrational              4.153              3.922              7.341
 Vibration     1          0.602              1.957              3.670
 Vibration     2          0.602              1.957              3.670

 Optimization completed.
    -- Stationary point found.
 Normal termination of Gaussian 16 at Wed Oct  7 12:54:21 2020.
