 Gaussian 16, Revision A.03,

 ----------------------------------------------------------------------
 #P Opt(TS,MaxCyc=50,NoEigenTest,MaxStep=10,AddRedundant) PBEPBE/6-31G*
  5D 7F Integral=UltraFineGrid SCF=(NoSymm,XQC,MaxCyc=120) EmpiricalDis
 persion=GD3BJ IOp(1/33=1)
 ----------------------------------------------------------------------

 TstMul:  Mul=     2
 TstMul:  ICh=     0
 TstMul:  Mul=     2
 Symbolic Z-matrix:
 Charge =  0 Multiplicity = 2

 SCF Done:  E(UPBE-PBE) =  -140.031609091     A.U. after   14 cycles
 SCF Done:  E(UPBE-PBE) =  -140.032491318     A.U. after   12 cycles
 SCF Done:  E(UPBE-PBE) =  -140.032812242     A.U. after   13 cycles
 SCF Done:  E(UPBE-PBE) =  -140.032583979     A.U. after   14 cycles
 SCF Done:  E(UPBE-PBE) =  -140.032551541     A.U. after   12 cycles
 SCF Done:  E(UPBE-PBE) =  -140.032553965     A.U. after   10 cycles
 SCF Done:  E(UPBE-PBE) =  -140.032558150     A.U. after    9 cycles
 SCF Done:  E(UPBE-PBE) =  -140.032560672     A.U. after   10 cycles
 SCF Done:  E(UPBE-PBE) =  -140.032558909     A.U. after   10 cycles
 SCF Done:  E(UPBE-PBE) =  -140.032559752     A.U. after    9 cycles
 SCF Done:  E(UPBE-PBE) =  -140.032559790     A.U. after    8 cycles
 Optimization completed.
    -- Stationary point found.
 Normal termination of Gaussian 16 at Wed Oct  7 12:55:31 2020.
 Gaussian 16:  ES64L-G16RevA.03 25-Dec-2016

 ----------------------------------------------------------------------
 #P Freq PBEPBE/6-31G* 5D 7F Integral=UltraFineGrid SCF=(NoSymm,XQC,Max
 Cyc=120) EmpiricalDispersion=GD3BJ IOp(1/33=1) Geom=Check Guess=Read
 ----------------------------------------------------------------------

 TstMul:  Mul=     2
 TstMul:  ICh=     0
 TstMul:  Mul=     2
 Structure from the checkpoint file:  "MN_53_hfch3ts_BH76_PBEDBJ_631Gs.chk"
 Charge =  0 Multiplicity = 2

                         Standard orientation:
 ---------------------------------------------------------------------
 Center     Atomic      Atomic             Coordinates (Angstroms)
 Number     Number       Type             X           Y           Z
 ---------------------------------------------------------------------
      1          1           0       -0.000124    2.050789    0.000000
      2          9           0        0.000004    0.776422    0.000000
      3          6           0        0.000004   -0.919273    0.000000
      4          1           0        1.063592   -1.174137    0.000000
      5          1           0       -0.531761   -1.174406    0.921049
      6          1           0       -0.531761   -1.174406   -0.921049
 ---------------------------------------------------------------------

 SCF Done:  E(UPBE-PBE) =  -140.032559790     A.U. after    1 cycles

 The electronic state is 2-A'.
 Alpha  occ. eigenvalues --  -24.23408  -9.93357  -1.01703  -0.63272  -0.43697
 Alpha  occ. eigenvalues --   -0.38659  -0.38658  -0.28269  -0.28268  -0.14945
 Alpha virt. eigenvalues --   -0.00589   0.08637   0.13933   0.13933   0.45770
 Alpha virt. eigenvalues --    0.51623   0.51623   0.64488   0.77515   0.82225
 Alpha virt. eigenvalues --    0.82227   0.96723   1.15774   1.15776   1.47708

  Beta  occ. eigenvalues --  -24.23339  -9.92558  -1.01505  -0.61606  -0.41696
  Beta  occ. eigenvalues --   -0.38068  -0.38067  -0.28058  -0.28058
  Beta virt. eigenvalues --   -0.07222   0.04550   0.09272   0.14427   0.14427
  Beta virt. eigenvalues --    0.49128   0.52102   0.52103   0.73419   0.78999
  Beta virt. eigenvalues --    0.82823   0.82824   0.98312   1.16289   1.16292

 Mulliken charges and spin densities:
               1          2
     1  H    0.109934   0.633695
     2  F   -0.322059  -0.086021
     3  C   -0.332819   0.513669
     4  H    0.181655  -0.020448
     5  H    0.181645  -0.020448
     6  H    0.181645  -0.020448
 Sum of Mulliken charges =  -0.00000   1.00000

 Dipole moment (field-independent basis, Debye):
    X=             -0.0000    Y=             -1.2774    Z=              0.0000  Tot=              1.2774
 Quadrupole moment (field-independent basis, Debye-Ang):
   XX=            -12.8114   YY=            -11.8685   ZZ=            -12.8116
   XY=              0.0001   XZ=              0.0000   YZ=              0.0000

  Exact polarizability:  13.196  -0.000  48.610  -0.000   0.000  13.196
 Approx polarizability:  18.015  -0.001  99.972  -0.000   0.000  18.015

 ******    1 imaginary frequencies (negative Signs) ******

                      1                      2                      3
                     A'                     A'                     A"
 Frequencies --  -1283.4849               167.6297               167.6596
 Red. masses --      2.0039                 1.1606                 1.1606
 Frc consts  --      1.9450                 0.0192                 0.0192
 IR Inten    --   1186.7649                 8.9859                 8.9875

                      4                      5                      6
                     A"                     A'                     A'
 Frequencies --    776.0158               776.1184               947.9828
 Red. masses --      1.1327                 1.1327                 1.4696
 Frc consts  --      0.4019                 0.4020                 0.7781
 IR Inten    --      0.8975                 0.8981               158.7184

                      7                      8                      9
                     A'                     A'                     A"
 Frequencies --   1164.9398              1427.5224              1427.5526
 Red. masses --      1.2843                 1.0861                 1.0861
 Frc consts  --      1.0269                 1.3041                 1.3041
 IR Inten    --     52.3174                 3.4601                 3.4601

                     10                     11                     12
                     A'                     A"                     A'
 Frequencies --   3055.2531              3200.7844              3200.8823
 Red. masses --      1.0170                 1.1145                 1.1145
 Frc consts  --      5.5932                 6.7272                 6.7276
 IR Inten    --      1.1737                12.2043                12.1967

 - Thermochemistry -
 -------------------
 Temperature   298.150 Kelvin.  Pressure   1.00000 Atm.
 Atom     1 has atomic number  1 and mass   1.00783

 Molecular mass:    35.02970 amu.
 Principal axes and moments of inertia in atomic units:
                           1         2         3
     Eigenvalues --    12.21299 112.73450 112.73488
           X           -0.00000   1.00000   0.00000
           Y            1.00000   0.00000   0.00000
           Z            0.00000   0.00000   1.00000
 This molecule is an asymmetric top.
 Rotational symmetry number  1.
 Rotational temperatures (Kelvin)      7.09195     0.76830     0.76830
 Rotational constants (GHZ):         147.77233    16.00877    16.00872
    1 imaginary frequencies ignored.
 Zero-point vibrational energy      97569.5 (Joules/Mol)
                                   23.31966 (Kcal/Mol)
 Warning -- explicit consideration of   2 degrees of freedom as
           vibrations may cause significant error
 Vibrational temperatures:    241.18   241.22  1116.51  1116.66  1363.94
          (Kelvin)           1676.09  2053.89  2053.93  4395.83  4605.21
                             4605.36

 Zero-point correction=                           0.037162 (Hartree/Particle)
 Thermal correction to Energy=                    0.041470
 Thermal correction to Enthalpy=                  0.042414
 Thermal correction to Gibbs Free Energy=         0.012376
 Sum of electronic and zero-point Energies=           -139.995398
 Sum of electronic and thermal Energies=              -139.991090
 Sum of electronic and thermal Enthalpies=            -139.990146
 Sum of electronic and thermal Free Energies=         -140.020184

                     E (Thermal)             CV                S
                      KCal/Mol        Cal/Mol-Kelvin    Cal/Mol-Kelvin
 Total                   26.023             11.968             63.222
 Electronic               0.000              0.000              1.377
 Translational            0.889              2.981             36.591
 Rotational               0.889              2.981             19.679
 Vibrational             24.245              6.006              5.574
 Vibration     1          0.624              1.882              2.462
 Vibration     2          0.624              1.882              2.462

 Optimization completed.
    -- Stationary point found.
 Normal termination of Gaussian 16 at Wed Oct  7 12:56:00 2020.
