 Gaussian 16, Revision A.03,

 ----------------------------------------------------------------------
 #P Opt(TS,MaxCyc=50,NoEigenTest,MaxStep=10,AddRedundant) PBEPBE/6-31G*
  5D 7F Integral=UltraFineGrid SCF=(NoSymm,XQC,MaxCyc=120) EmpiricalDis
 persion=GD3BJ IOp(1/33=1)
 ----------------------------------------------------------------------

 TstMul:  Mul=     2
 TstMul:  ICh=     0
 TstMul:  Mul=     2
 Symbolic Z-matrix:
 Charge =  0 Multiplicity = 2

 SCF Done:  E(UPBE-PBE) =  -199.825389392     A.U. after   19 cycles
 SCF Done:  E(UPBE-PBE) =  -199.827327446     A.U. after   14 cycles
 SCF Done:  E(UPBE-PBE) =  -199.825337945     A.U. after   14 cycles
 SCF Done:  E(UPBE-PBE) =  -199.823890147     A.U. after   14 cycles
 SCF Done:  E(UPBE-PBE) =  -199.822716674     A.U. after   14 cycles
 SCF Done:  E(UPBE-PBE) =  -199.821768393     A.U. after   14 cycles
 SCF Done:  E(UPBE-PBE) =  -199.820999592     A.U. after   14 cycles
 SCF Done:  E(UPBE-PBE) =  -199.820370542     A.U. after   15 cycles
 SCF Done:  E(UPBE-PBE) =  -199.819848430     A.U. after   14 cycles
 SCF Done:  E(UPBE-PBE) =  -199.819408542     A.U. after   14 cycles
 SCF Done:  E(UPBE-PBE) =  -199.815696269     A.U. after    8 cycles
 SCF Done:  E(UPBE-PBE) =  -199.815678434     A.U. after    9 cycles
 SCF Done:  E(UPBE-PBE) =  -199.815662512     A.U. after    9 cycles
 SCF Done:  E(UPBE-PBE) =  -199.815648349     A.U. after    8 cycles
 SCF Done:  E(UPBE-PBE) =  -199.815636415     A.U. after    8 cycles
 SCF Done:  E(UPBE-PBE) =  -199.815626391     A.U. after    8 cycles
 SCF Done:  E(UPBE-PBE) =  -199.815617893     A.U. after    8 cycles
 SCF Done:  E(UPBE-PBE) =  -199.815610602     A.U. after    9 cycles
 SCF Done:  E(UPBE-PBE) =  -199.815604123     A.U. after    8 cycles
 Optimization completed.
    -- Stationary point found.

 1\1\GINC-NODE20\FTS\UPBEPBE\6-31G(d)\F2H1(2)\RPEVERATI\07-Oct-2020\0\\
 #P Opt(TS,MaxCyc=50,NoEigenTest,MaxStep=10,AddRedundant) PBEPBE/6-31G*
  5D 7F Integral=UltraFineGrid SCF=(NoSymm,XQC,MaxCyc=120) EmpiricalDis
 persion=GD3BJ IOp(1/33=1)\\TS search on BH76.\\0,2\H,0.,0.,-3.88008683
 82\F,0.,0.,0.2383097671\F,0.,0.,1.658420885\\Version=ES64L-G16RevA.03\
 State=2-SG\HF=-199.8156041\S2=0.75\S2-1=0.\S2A=0.75\RMSD=6.417e-09\RMS
 F=3.816e-05\Dipole=0.,0.,-0.0007201\Quadrupole=-0.2518049,-0.2518049,0
 .5036097,0.,0.,0.\PG=C*V [C*(H1F1F1)]\\@

 Normal termination of Gaussian 16 at Wed Oct  7 13:02:37 2020.
 Gaussian 16:  ES64L-G16RevA.03 25-Dec-2016

 ----------------------------------------------------------------------
 #P Freq PBEPBE/6-31G* 5D 7F Integral=UltraFineGrid SCF=(NoSymm,XQC,Max
 Cyc=120) EmpiricalDispersion=GD3BJ IOp(1/33=1) Geom=Check Guess=Read
 ----------------------------------------------------------------------

 TstMul:  Mul=     2
 TstMul:  ICh=     0
 TstMul:  Mul=     2
 Structure from the checkpoint file:  "MN_52_hf2ts_BH76_PBEDBJ_631Gs.chk"
 Charge =  0 Multiplicity = 2

                         Standard orientation:
 ---------------------------------------------------------------------
 Center     Atomic      Atomic             Coordinates (Angstroms)
 Number     Number       Type             X           Y           Z
 ---------------------------------------------------------------------
      1          1           0        0.000000    0.000000   -4.574323
      2          9           0        0.000000    0.000000   -0.455926
      3          9           0        0.000000    0.000000    0.964185
 ---------------------------------------------------------------------

 SCF Done:  E(UPBE-PBE) =  -199.815604123     A.U. after    1 cycles

 The electronic state is 2-SG.
 Alpha  occ. eigenvalues --  -24.35357 -24.35346  -1.21536  -0.98801  -0.53576
 Alpha  occ. eigenvalues --   -0.43666  -0.43666  -0.31447  -0.31447  -0.27142
 Alpha virt. eigenvalues --   -0.18475   0.66321   1.00891   1.00891   1.03342
 Alpha virt. eigenvalues --    1.16411   1.18938   1.18938   1.20968   1.48046
 Alpha virt. eigenvalues --    1.48046   1.63918   1.63918   1.67544   1.86594

  Beta  occ. eigenvalues --  -24.35357 -24.35346  -1.21536  -0.98801  -0.53575
  Beta  occ. eigenvalues --   -0.43666  -0.43666  -0.31447  -0.31447
  Beta virt. eigenvalues --   -0.18475   0.72972   1.00891   1.00891   1.03350
  Beta virt. eigenvalues --    1.16414   1.18938   1.18938   1.20968   1.48046
  Beta virt. eigenvalues --    1.48046   1.63918   1.63918   1.67545   1.86595

 Mulliken charges and spin densities:
               1          2
     1  H    0.000079   0.999918
     2  F   -0.000050   0.000031
     3  F   -0.000029   0.000052
 Sum of Mulliken charges =  -0.00000   1.00000

 Dipole moment (field-independent basis, Debye):
    X=              0.0000    Y=             -0.0000    Z=             -0.0018  Tot=              0.0018
 Quadrupole moment (field-independent basis, Debye-Ang):
   XX=            -10.5637   YY=            -10.5637   ZZ=             -9.5476
   XY=              0.0000   XZ=              0.0000   YZ=             -0.0000

  Exact polarizability:   2.775  -0.000   2.775  -0.000   0.000   9.739
 Approx polarizability:   3.553  -0.000   3.553  -0.000  -0.000  24.618

 ******    1 imaginary frequencies (negative Signs) ******

                      1                      2                      3
                     SG                     PI                     PI
 Frequencies --    -53.9879                13.8552                13.8552
 Red. masses --      1.0331                 2.1291                 2.1291
 Frc consts  --      0.0018                 0.0002                 0.0002
 IR Inten    --      0.0031                 0.0000                 0.0000

                      4
                     SG
 Frequencies --   1009.3674
 Red. masses --     18.9982
 Frc consts  --     11.4041
 IR Inten    --      0.0032

 - Thermochemistry -
 -------------------
 Temperature   298.150 Kelvin.  Pressure   1.00000 Atm.
 Atom     1 has atomic number  1 and mass   1.00783

 Molecular mass:    39.00463 amu.
 Principal axes and moments of inertia in atomic units:
                           1         2         3
     Eigenvalues --     0.00000 150.15062 150.15062
           X            0.00000   0.00000   1.00000
           Y            0.00000   1.00000   0.00000
           Z            1.00000   0.00000   0.00000
 This molecule is a prolate symmetric top.
 Rotational symmetry number  1.
 Rotational temperature (Kelvin)      0.57685
 Rotational constant (GHZ):          12.019538
    1 imaginary frequencies ignored.
 Zero-point vibrational energy       6203.1 (Joules/Mol)
                                    1.48258 (Kcal/Mol)
 Warning -- explicit consideration of   2 degrees of freedom as
           vibrations may cause significant error
 Vibrational temperatures:     19.93    19.93  1452.25
          (Kelvin)

 Zero-point correction=                           0.002363 (Hartree/Particle)
 Thermal correction to Energy=                    0.006585
 Thermal correction to Enthalpy=                  0.007529
 Thermal correction to Gibbs Free Energy=        -0.024547
 Sum of electronic and zero-point Energies=           -199.813241
 Sum of electronic and thermal Energies=              -199.809020
 Sum of electronic and thermal Enthalpies=            -199.808075
 Sum of electronic and thermal Free Energies=         -199.840151

                     E (Thermal)             CV                S
                      KCal/Mol        Cal/Mol-Kelvin    Cal/Mol-Kelvin
 Total                    4.132              9.308             67.508
 Electronic               0.000              0.000              1.377
 Translational            0.889              2.981             36.912
 Rotational               0.592              1.987             14.403
 Vibrational              2.651              4.340             14.817
 Vibration     1          0.593              1.986              7.363
 Vibration     2          0.593              1.986              7.363

                           ! Non-Optimized Parameters !
 Normal termination of Gaussian 16 at Wed Oct  7 13:03:01 2020.
