 Gaussian 16, Revision A.03,
 Gaussian 16:  ES64L-G16RevA.03 25-Dec-2016

 ----------------------------------------------------------------------
 #P Opt(MaxCyc=100) PBEPBE/6-31G* 5D 7F Integral=UltraFineGrid SCF=(NoS
 ymm,XQC,MaxCyc=120) EmpiricalDispersion=GD3BJ IOp(1/33=1)
 ----------------------------------------------------------------------

 TstMul:  Mul=     1
 TstMul:  ICh=     0
 TstMul:  Mul=     1
 Symbolic Z-matrix:
 Charge =  0 Multiplicity = 1

 SCF Done:  E(RPBE-PBE) =  -184.484567946     A.U. after   13 cycles
 SCF Done:  E(RPBE-PBE) =  -184.486699835     A.U. after   12 cycles
 SCF Done:  E(RPBE-PBE) =  -184.486753965     A.U. after    9 cycles
 SCF Done:  E(RPBE-PBE) =  -184.486754157     A.U. after    7 cycles
 Optimization completed.
    -- Stationary point found.

                         Standard orientation:
 ---------------------------------------------------------------------
 Center     Atomic      Atomic             Coordinates (Angstroms)
 Number     Number       Type             X           Y           Z
 ---------------------------------------------------------------------
      1          7           0        0.000000    0.000000   -1.219775
      2          7           0        0.000000    0.000000   -0.069632
      3          8           0        0.000000    0.000000    1.128231
 ---------------------------------------------------------------------

 The electronic state is 1-SG.
 Alpha  occ. eigenvalues --  -18.87168 -14.21445 -14.08970  -1.14014  -0.98618
 Alpha  occ. eigenvalues --   -0.54074  -0.49612  -0.49612  -0.41232  -0.29553
 Alpha  occ. eigenvalues --   -0.29553
 Alpha virt. eigenvalues --   -0.05294  -0.05294   0.08077   0.38871   0.55678
 Alpha virt. eigenvalues --    0.56201   0.56201   0.69052   0.70092   0.70187
 Alpha virt. eigenvalues --    0.70187   0.90201   0.90201   0.97437   1.28724

 Mulliken charges:
               1
     1  N   -0.104086
     2  N    0.508206
     3  O   -0.404120
 Sum of Mulliken charges =  -0.00000

 Dipole moment (field-independent basis, Debye):
    X=              0.0000    Y=             -0.0000    Z=              0.1901  Tot=              0.1901
 Quadrupole moment (field-independent basis, Debye-Ang):
   XX=            -15.0167   YY=            -15.0167   ZZ=            -18.6364
   XY=              0.0000   XZ=              0.0000   YZ=              0.0000

 Normal termination of Gaussian 16 at Wed Oct  7 12:54:28 2020.
