 Gaussian 16, Revision A.03,
 Gaussian 16:  ES64L-G16RevA.03 25-Dec-2016

 ----------------------------------------------------------------------
 #P Opt(MaxCyc=100) PBEPBE/6-31G* 5D 7F Integral=UltraFineGrid SCF=(NoS
 ymm,XQC,MaxCyc=120) EmpiricalDispersion=GD3BJ IOp(1/33=1)
 ----------------------------------------------------------------------

 TstMul:  Mul=     1
 TstMul:  ICh=    -1
 TstMul:  Mul=     1
 Symbolic Z-matrix:
 Charge = -1 Multiplicity = 1

 SCF Done:  E(RPBE-PBE) =  -215.235984092     A.U. after   16 cycles
 SCF Done:  E(RPBE-PBE) =  -215.240807998     A.U. after   13 cycles
 SCF Done:  E(RPBE-PBE) =  -215.244673323     A.U. after   15 cycles
 SCF Done:  E(RPBE-PBE) =  -215.246598133     A.U. after   13 cycles
 SCF Done:  E(RPBE-PBE) =  -215.246972599     A.U. after   13 cycles
 SCF Done:  E(RPBE-PBE) =  -215.247573253     A.U. after   13 cycles
 SCF Done:  E(RPBE-PBE) =  -215.247705398     A.U. after   11 cycles
 SCF Done:  E(RPBE-PBE) =  -215.247796363     A.U. after   11 cycles
 SCF Done:  E(RPBE-PBE) =  -215.247832820     A.U. after   11 cycles
 SCF Done:  E(RPBE-PBE) =  -215.247903425     A.U. after   11 cycles
 SCF Done:  E(RPBE-PBE) =  -215.253267156     A.U. after   13 cycles
 SCF Done:  E(RPBE-PBE) =  -215.253457948     A.U. after   12 cycles
 SCF Done:  E(RPBE-PBE) =  -215.253626597     A.U. after   12 cycles
 SCF Done:  E(RPBE-PBE) =  -215.253653947     A.U. after   12 cycles
 SCF Done:  E(RPBE-PBE) =  -215.253659701     A.U. after   11 cycles
 SCF Done:  E(RPBE-PBE) =  -215.253661616     A.U. after    9 cycles
 SCF Done:  E(RPBE-PBE) =  -215.253662473     A.U. after    8 cycles
 SCF Done:  E(RPBE-PBE) =  -215.253662692     A.U. after    8 cycles
 SCF Done:  E(RPBE-PBE) =  -215.253662963     A.U. after    8 cycles
 SCF Done:  E(RPBE-PBE) =  -215.253663108     A.U. after    8 cycles
 Optimization completed.
    -- Stationary point found.

                         Standard orientation:
 ---------------------------------------------------------------------
 Center     Atomic      Atomic             Coordinates (Angstroms)
 Number     Number       Type             X           Y           Z
 ---------------------------------------------------------------------
      1          9           0        1.666770   -0.419031   -0.014169
      2          6           0        0.552340    0.488761    0.015403
      3          1           0        0.725487    1.236975   -0.794410
      4          1           0       -0.560112    0.018517   -0.095859
      5          1           0        0.625166    1.050811    0.977362
      6          8           0       -2.118033   -0.143764   -0.113475
      7          1           0       -2.161248   -0.317476    0.855807
 ---------------------------------------------------------------------

 The electronic state is 1-A.
 Alpha  occ. eigenvalues --  -24.02616 -18.38554  -9.71500  -0.84614  -0.49921
 Alpha  occ. eigenvalues --   -0.39040  -0.20061  -0.18795  -0.16378  -0.06666
 Alpha  occ. eigenvalues --   -0.06177  -0.02656   0.11799   0.12328
 Alpha virt. eigenvalues --    0.27502   0.28904   0.32431   0.33785   0.48119
 Alpha virt. eigenvalues --    0.68724   0.72872   0.76248   0.98836   1.00379
 Alpha virt. eigenvalues --    1.05264   1.08117   1.13151   1.20540   1.29890

 Mulliken charges:
               1
     1  F   -0.381072
     2  C   -0.244782
     3  H    0.052611
     4  H    0.245918
     5  H    0.048896
     6  O   -0.949336
     7  H    0.227766
 Sum of Mulliken charges =  -1.00000

 Dipole moment (field-independent basis, Debye):
    X=              4.9031    Y=              0.7665    Z=              1.2854  Tot=              5.1264
 Quadrupole moment (field-independent basis, Debye-Ang):
   XX=            -40.7029   YY=            -21.1107   ZZ=            -19.3729
   XY=             -0.1030   XZ=             -2.8894   YZ=             -0.5184

 Normal termination of Gaussian 16 at Wed Oct  7 13:01:30 2020.
