 Gaussian 16, Revision A.03,
 Gaussian 16:  ES64L-G16RevA.03 25-Dec-2016

 ----------------------------------------------------------------------
 #P Opt(MaxCyc=100) PBEPBE/6-31G* 5D 7F Integral=UltraFineGrid SCF=(NoS
 ymm,XQC,MaxCyc=120) EmpiricalDispersion=GD3BJ IOp(1/33=1)
 ----------------------------------------------------------------------

 TstMul:  Mul=     3
 TstMul:  ICh=     0
 TstMul:  Mul=     3
 Symbolic Z-matrix:
 Charge =  0 Multiplicity = 3

 SCF Done:  E(UPBE-PBE) =  -55.1439845941     A.U. after   11 cycles
 SCF Done:  E(UPBE-PBE) =  -55.1442682124     A.U. after    8 cycles
 SCF Done:  E(UPBE-PBE) =  -55.1442709816     A.U. after    7 cycles
 Optimization completed.
    -- Stationary point found.

                         Standard orientation:
 ---------------------------------------------------------------------
 Center     Atomic      Atomic             Coordinates (Angstroms)
 Number     Number       Type             X           Y           Z
 ---------------------------------------------------------------------
      1          7           0        0.000000    0.000000    0.132203
      2          1           0        0.000000    0.000000   -0.925418
 ---------------------------------------------------------------------

 The electronic state is 3-SG.
 Alpha  occ. eigenvalues --  -14.06717  -0.75361  -0.34210  -0.27344  -0.27344
 Alpha virt. eigenvalues --    0.06287   0.59688   0.59688   0.67323   0.69185
 Alpha virt. eigenvalues --    0.91049   1.57989   1.57989   1.58251   1.58251
 Alpha virt. eigenvalues --    2.11773
  Beta  occ. eigenvalues --  -14.03120  -0.65947  -0.30117
  Beta virt. eigenvalues --   -0.13412  -0.13412   0.08173   0.69633   0.69633
  Beta virt. eigenvalues --    0.70706   0.71145   0.98515   1.66127   1.66127
  Beta virt. eigenvalues --    1.74143   1.74143   2.17999

 Mulliken charges and spin densities:
               1          2
     1  N   -0.289281   2.067183
     2  H    0.289281  -0.067183
 Sum of Mulliken charges =  -0.00000   2.00000

 Dipole moment (field-independent basis, Debye):
    X=              0.0000    Y=              0.0000    Z=             -1.5499  Tot=              1.5499
 Quadrupole moment (field-independent basis, Debye-Ang):
   XX=             -6.1790   YY=             -6.1790   ZZ=             -5.7701
   XY=             -0.0000   XZ=              0.0000   YZ=              0.0000

 Normal termination of Gaussian 16 at Wed Oct  7 12:54:45 2020.
