 Gaussian 16, Revision A.03,
 Gaussian 16:  ES64L-G16RevA.03 25-Dec-2016

 ----------------------------------------------------------------------
 #P Opt(MaxCyc=100) PBEPBE/6-31G* 5D 7F Integral=UltraFineGrid SCF=(NoS
 ymm,XQC,MaxCyc=120) EmpiricalDispersion=GD3BJ IOp(1/33=1)
 ----------------------------------------------------------------------

 TstMul:  Mul=     1
 TstMul:  ICh=    -1
 TstMul:  Mul=     1
 Symbolic Z-matrix:
 Charge = -1 Multiplicity = 1

 SCF Done:  E(RPBE-PBE) =  -215.313911237     A.U. after   14 cycles
 SCF Done:  E(RPBE-PBE) =  -215.315964376     A.U. after   12 cycles
 SCF Done:  E(RPBE-PBE) =  -215.313897650     A.U. after   13 cycles
 SCF Done:  E(RPBE-PBE) =  -215.319774145     A.U. after   11 cycles
 SCF Done:  E(RPBE-PBE) =  -215.318652345     A.U. after   12 cycles
 SCF Done:  E(RPBE-PBE) =  -215.321663204     A.U. after   12 cycles
 SCF Done:  E(RPBE-PBE) =  -215.322214803     A.U. after   11 cycles
 SCF Done:  E(RPBE-PBE) =  -215.322381227     A.U. after   11 cycles
 SCF Done:  E(RPBE-PBE) =  -215.322412892     A.U. after   11 cycles
 SCF Done:  E(RPBE-PBE) =  -215.322419960     A.U. after    9 cycles
 SCF Done:  E(RPBE-PBE) =  -215.322575797     A.U. after   11 cycles
 SCF Done:  E(RPBE-PBE) =  -215.322609402     A.U. after    7 cycles
 SCF Done:  E(RPBE-PBE) =  -215.322635598     A.U. after   11 cycles
 SCF Done:  E(RPBE-PBE) =  -215.322738633     A.U. after   11 cycles
 SCF Done:  E(RPBE-PBE) =  -215.322785093     A.U. after   11 cycles
 SCF Done:  E(RPBE-PBE) =  -215.322769313     A.U. after   12 cycles
 SCF Done:  E(RPBE-PBE) =  -215.322912418     A.U. after   11 cycles
 SCF Done:  E(RPBE-PBE) =  -215.322962788     A.U. after    9 cycles
 SCF Done:  E(RPBE-PBE) =  -215.322967152     A.U. after    9 cycles
 SCF Done:  E(RPBE-PBE) =  -215.322967293     A.U. after    7 cycles
 Optimization completed.
    -- Stationary point found.

                         Standard orientation:
 ---------------------------------------------------------------------
 Center     Atomic      Atomic             Coordinates (Angstroms)
 Number     Number       Type             X           Y           Z
 ---------------------------------------------------------------------
      1          6           0       -1.233900   -0.390602    0.000029
      2          8           0       -0.502662    0.759092   -0.000022
      3          1           0       -1.934605   -0.519855   -0.891543
      4          1           0       -0.597917   -1.319416   -0.000799
      5          1           0       -1.933538   -0.520431    0.892251
      6          1           0        0.690074    0.327577    0.000094
      7          9           0        1.688965   -0.188556    0.000000
 ---------------------------------------------------------------------

 The electronic state is 1-A.
 Alpha  occ. eigenvalues --  -23.88833 -18.46238  -9.70846  -0.70103  -0.62326
 Alpha  occ. eigenvalues --   -0.35455  -0.17983  -0.14666  -0.12656  -0.06603
 Alpha  occ. eigenvalues --    0.01580   0.01590   0.04853   0.06119
 Alpha virt. eigenvalues --    0.27989   0.33776   0.34197   0.37879   0.50937
 Alpha virt. eigenvalues --    0.74404   0.76195   0.76997   0.90088   0.97718
 Alpha virt. eigenvalues --    0.99051   1.04178   1.16551   1.17936   1.20275

 Mulliken charges:
               1
     1  C   -0.152554
     2  O   -0.684279
     3  H    0.003534
     4  H    0.057464
     5  H    0.003574
     6  H    0.443459
     7  F   -0.671198
 Sum of Mulliken charges =  -1.00000

 Dipole moment (field-independent basis, Debye):
    X=             -1.3354    Y=             -0.9212    Z=              0.0002  Tot=              1.6223
 Quadrupole moment (field-independent basis, Debye-Ang):
   XX=            -30.8499   YY=            -22.6816   ZZ=            -20.9124
   XY=              1.6540   XZ=             -0.0002   YZ=              0.0004

 Normal termination of Gaussian 16 at Wed Oct  7 13:02:52 2020.
