 Gaussian 16, Revision A.03,
 Gaussian 16:  ES64L-G16RevA.03 25-Dec-2016

 ----------------------------------------------------------------------
 #P Opt(MaxCyc=100) PBEPBE/6-31G* 5D 7F Integral=UltraFineGrid SCF=(NoS
 ymm,XQC,MaxCyc=120) EmpiricalDispersion=GD3BJ IOp(1/33=1)
 ----------------------------------------------------------------------

 TstMul:  Mul=     1
 TstMul:  ICh=     0
 TstMul:  Mul=     1
 Symbolic Z-matrix:
 Charge =  0 Multiplicity = 1

 SCF Done:  E(RPBE-PBE) =  -93.2768407312     A.U. after   11 cycles
 SCF Done:  E(RPBE-PBE) =  -93.2776664302     A.U. after   10 cycles
 SCF Done:  E(RPBE-PBE) =  -93.2776705367     A.U. after    7 cycles
 Optimization completed.
    -- Stationary point found.

                         Standard orientation:
 ---------------------------------------------------------------------
 Center     Atomic      Atomic             Coordinates (Angstroms)
 Number     Number       Type             X           Y           Z
 ---------------------------------------------------------------------
      1          6           0        0.000000    0.000000   -0.750789
      2          7           0        0.000000    0.000000    0.437014
      3          1           0        0.000000    0.000000    1.445634
 ---------------------------------------------------------------------

 The electronic state is 1-SG.
 Alpha  occ. eigenvalues --  -14.03703  -9.93975  -0.85342  -0.60113  -0.32497
 Alpha  occ. eigenvalues --   -0.32497  -0.26162
 Alpha virt. eigenvalues --   -0.01234  -0.01234   0.03881   0.32519   0.46344
 Alpha virt. eigenvalues --    0.51843   0.51843   0.61219   0.68372   0.68372
 Alpha virt. eigenvalues --    0.86358   1.11972   1.37110   1.43025   1.43025

 Mulliken charges:
               1
     1  C    0.019101
     2  N   -0.377567
     3  H    0.358466
 Sum of Mulliken charges =  -0.00000

 Dipole moment (field-independent basis, Debye):
    X=              0.0000    Y=             -0.0000    Z=              2.9622  Tot=              2.9622
 Quadrupole moment (field-independent basis, Debye-Ang):
   XX=            -11.5448   YY=            -11.5448   ZZ=             -9.8951
   XY=              0.0000   XZ=              0.0000   YZ=             -0.0000

 1\1\GINC-NODE42\FOpt\RPBEPBE\6-31G(d)\C1H1N1\RPEVERATI\07-Oct-2020\0\\
 #P Opt(MaxCyc=100) PBEPBE/6-31G* 5D 7F Integral=UltraFineGrid SCF=(NoS
 ymm,XQC,MaxCyc=120) EmpiricalDispersion=GD3BJ IOp(1/33=1)\\TS search o
 n BH76.\\0,1\C,0.,0.,-0.7561491618\N,0.,0.,0.4316545102\H,0.,0.,1.4402
 743258\\Version=ES64L-G16RevA.03\State=1-SG\HF=-93.2776705\RMSD=5.100e
 -09\RMSF=4.236e-05\Dipole=0.,0.,1.1654233\Quadrupole=-0.4088218,-0.408
 8218,0.8176436,0.,0.,0.\PG=C*V [C*(C1N1H1)]\\@

 Normal termination of Gaussian 16 at Wed Oct  7 12:53:55 2020.
