 Gaussian 16, Revision A.03,

 ----------------------------------------------------------------------
 #P Opt(TS,MaxCyc=50,NoEigenTest,MaxStep=10,AddRedundant) PBEPBE/6-31G*
  5D 7F Integral=UltraFineGrid SCF=(NoSymm,XQC,MaxCyc=120) EmpiricalDis
 persion=GD3BJ IOp(1/33=1)
 ----------------------------------------------------------------------

 TstMul:  Mul=     1
 TstMul:  ICh=    -1
 TstMul:  Mul=     1
 Symbolic Z-matrix:
 Charge = -1 Multiplicity = 1

 SCF Done:  E(RPBE-PBE) =  -215.239239355     A.U. after   15 cycles
 SCF Done:  E(RPBE-PBE) =  -215.240769869     A.U. after   13 cycles
 SCF Done:  E(RPBE-PBE) =  -215.240918934     A.U. after   11 cycles
 SCF Done:  E(RPBE-PBE) =  -215.241004345     A.U. after   12 cycles
 SCF Done:  E(RPBE-PBE) =  -215.241016396     A.U. after    9 cycles
 SCF Done:  E(RPBE-PBE) =  -215.241026729     A.U. after    9 cycles
 SCF Done:  E(RPBE-PBE) =  -215.241036712     A.U. after   11 cycles
 SCF Done:  E(RPBE-PBE) =  -215.241008496     A.U. after   12 cycles
 SCF Done:  E(RPBE-PBE) =  -215.241009928     A.U. after    9 cycles
 Optimization completed.
    -- Stationary point found.
 Normal termination of Gaussian 16 at Wed Oct  7 12:55:42 2020.
 Gaussian 16:  ES64L-G16RevA.03 25-Dec-2016

 ----------------------------------------------------------------------
 #P Freq PBEPBE/6-31G* 5D 7F Integral=UltraFineGrid SCF=(NoSymm,XQC,Max
 Cyc=120) EmpiricalDispersion=GD3BJ IOp(1/33=1) Geom=Check Guess=Read
 ----------------------------------------------------------------------

 TstMul:  Mul=     1
 TstMul:  ICh=    -1
 TstMul:  Mul=     1
 Structure from the checkpoint file:  "MN_63_hoch3fts_BH76_PBEDBJ_631Gs.chk"
 Charge = -1 Multiplicity = 1

                         Standard orientation:
 ---------------------------------------------------------------------
 Center     Atomic      Atomic             Coordinates (Angstroms)
 Number     Number       Type             X           Y           Z
 ---------------------------------------------------------------------
      1          9           0        1.860021   -0.021523   -0.000076
      2          6           0        0.075216    0.031047    0.000097
      3          1           0        0.029560    1.117512    0.002581
      4          1           0        0.016694   -0.499508   -0.947483
      5          1           0        0.017098   -0.503631    0.945428
      6          8           0       -1.901122    0.096197   -0.000054
      7          1           0       -2.045864   -0.876526    0.000006
 ---------------------------------------------------------------------

 SCF Done:  E(RPBE-PBE) =  -215.241009928     A.U. after    1 cycles

 The electronic state is 1-A.
 Alpha  occ. eigenvalues --  -23.88070 -18.43923  -9.70643  -0.67275  -0.55359
 Alpha  occ. eigenvalues --   -0.36891  -0.15692  -0.15611  -0.07983  -0.04296
 Alpha  occ. eigenvalues --    0.03398   0.03521   0.06742   0.08250
 Alpha virt. eigenvalues --    0.26517   0.28227   0.33890   0.35080   0.35329
 Alpha virt. eigenvalues --    0.74948   0.75634   0.85769   0.96799   1.02771
 Alpha virt. eigenvalues --    1.05300   1.07116   1.14354   1.17505   1.29111

 Mulliken charges:
               1
     1  F   -0.577770
     2  C   -0.189819
     3  H    0.128667
     4  H    0.116028
     5  H    0.115894
     6  O   -0.853983
     7  H    0.260983
 Sum of Mulliken charges =  -1.00000

 Dipole moment (field-independent basis, Debye):
    X=              0.3830    Y=             -1.1758    Z=              0.0004  Tot=              1.2366
 Quadrupole moment (field-independent basis, Debye-Ang):
   XX=            -40.0167   YY=            -18.2636   ZZ=            -19.7369
   XY=              2.8904   XZ=              0.0003   YZ=              0.0002

  Exact polarizability:  40.885   2.226  20.657   0.002  -0.001  16.290
 Approx polarizability:  90.948   0.291  31.449   0.003  -0.001  22.610

 ******    1 imaginary frequencies (negative Signs) ******

                      1                      2                      3
                      A                      A                      A
 Frequencies --   -426.4935               208.7817               287.6521
 Red. masses --      9.3450                 1.0520                 3.3363
 Frc consts  --      1.0015                 0.0270                 0.1627
 IR Inten    --    654.5721                43.3859                11.7933

                      4                      5                      6
                      A                      A                      A
 Frequencies --    307.5841               333.7796               777.5241
 Red. masses --      4.4443                13.0235                 1.1238
 Frc consts  --      0.2477                 0.8549                 0.4003
 IR Inten    --     18.9113                 6.1477                27.0219

                      7                      8                      9
                      A                      A                      A
 Frequencies --    936.9416               980.5062              1062.8672
 Red. masses --      1.0209                 1.0654                 1.0590
 Frc consts  --      0.5280                 0.6035                 0.7048
 IR Inten    --      0.0268                 5.5491                 0.4829

                     10                     11                     12
                      A                      A                      A
 Frequencies --   1326.4915              1331.7380              3048.5684
 Red. masses --      1.1276                 1.1164                 1.0086
 Frc consts  --      1.1690                 1.1666                 5.5227
 IR Inten    --      1.1875                 1.9777                 0.2052

                     13                     14                     15
                      A                      A                      A
 Frequencies --   3229.2095              3234.7430              3529.5671
 Red. masses --      1.1283                 1.1257                 1.0676
 Frc consts  --      6.9320                 6.9398                 7.8364
 IR Inten    --     54.6220                46.3503                71.1185

 - Thermochemistry -
 -------------------
 Temperature   298.150 Kelvin.  Pressure   1.00000 Atm.
 Atom     1 has atomic number  9 and mass  18.99840

 Molecular mass:    51.02462 amu.
 Principal axes and moments of inertia in atomic units:
                           1         2         3
     Eigenvalues --    15.97986 461.99586 465.08000
           X            0.99989   0.01513   0.00000
           Y           -0.01513   0.99989   0.00001
           Z           -0.00000  -0.00001   1.00000
 This molecule is an asymmetric top.
 Rotational symmetry number  1.
 Rotational temperatures (Kelvin)      5.42019     0.18748     0.18623
 Rotational constants (GHZ):         112.93849     3.90640     3.88050
    1 imaginary frequencies ignored.
 Zero-point vibrational energy     123191.2 (Joules/Mol)
                                   29.44339 (Kcal/Mol)
 Warning -- explicit consideration of   4 degrees of freedom as
           vibrations may cause significant error
 Vibrational temperatures:    300.39   413.87   442.54   480.23  1118.68
          (Kelvin)           1348.05  1410.73  1529.23  1908.53  1916.07
                             4386.21  4646.11  4654.07  5078.26

 Zero-point correction=                           0.046921 (Hartree/Particle)
 Thermal correction to Energy=                    0.051747
 Thermal correction to Enthalpy=                  0.052692
 Thermal correction to Gibbs Free Energy=         0.020765
 Sum of electronic and zero-point Energies=           -215.194089
 Sum of electronic and thermal Energies=              -215.189263
 Sum of electronic and thermal Enthalpies=            -215.188318
 Sum of electronic and thermal Free Energies=         -215.220245

                     E (Thermal)             CV                S
                      KCal/Mol        Cal/Mol-Kelvin    Cal/Mol-Kelvin
 Total                   32.472             14.874             67.196
 Electronic               0.000              0.000              0.000
 Translational            0.889              2.981             37.712
 Rotational               0.889              2.981             22.756
 Vibrational             30.695              8.913              6.728
 Vibration     1          0.642              1.827              2.054
 Vibration     2          0.685              1.697              1.488
 Vibration     3          0.697              1.659              1.375
 Vibration     4          0.715              1.608              1.242

                           ! Non-Optimized Parameters !
 Normal termination of Gaussian 16 at Wed Oct  7 12:56:14 2020.
