 Gaussian 16, Revision A.03,

 ----------------------------------------------------------------------
 #P Opt(TS,MaxCyc=50,NoEigenTest,MaxStep=10,AddRedundant) PBEPBE/6-31G*
  5D 7F Integral=UltraFineGrid SCF=(NoSymm,XQC,MaxCyc=120) EmpiricalDis
 persion=GD3BJ IOp(1/33=1)
 ----------------------------------------------------------------------

 TstMul:  Mul=     2
 TstMul:  ICh=     0
 TstMul:  Mul=     2
 Symbolic Z-matrix:
 Charge =  0 Multiplicity = 2

 SCF Done:  E(UPBE-PBE) =  -184.964127016     A.U. after   17 cycles
 SCF Done:  E(UPBE-PBE) =  -184.966799743     A.U. after   16 cycles
 SCF Done:  E(UPBE-PBE) =  -184.968480167     A.U. after   16 cycles
 SCF Done:  E(UPBE-PBE) =  -184.966919555     A.U. after   16 cycles
 SCF Done:  E(UPBE-PBE) =  -184.966460413     A.U. after   16 cycles
 SCF Done:  E(UPBE-PBE) =  -184.966452000     A.U. after   12 cycles
 Optimization completed.
    -- Stationary point found.
 Normal termination of Gaussian 16 at Wed Oct  7 12:55:19 2020.
 Gaussian 16:  ES64L-G16RevA.03 25-Dec-2016

 ----------------------------------------------------------------------
 #P Freq PBEPBE/6-31G* 5D 7F Integral=UltraFineGrid SCF=(NoSymm,XQC,Max
 Cyc=120) EmpiricalDispersion=GD3BJ IOp(1/33=1) Geom=Check Guess=Read
 ----------------------------------------------------------------------

 TstMul:  Mul=     2
 TstMul:  ICh=     0
 TstMul:  Mul=     2
 Structure from the checkpoint file:  "MN_68_n2ohts_BH76_PBEDBJ_631Gs.chk"
 Charge =  0 Multiplicity = 2

                         Standard orientation:
 ---------------------------------------------------------------------
 Center     Atomic      Atomic             Coordinates (Angstroms)
 Number     Number       Type             X           Y           Z
 ---------------------------------------------------------------------
      1          1           0       -0.385679   -2.017250    0.000000
      2          8           0       -0.874199   -0.620975    0.000000
      3          7           0       -0.000000    0.255366   -0.000000
      4          7           0        1.054181    0.742498   -0.000000
 ---------------------------------------------------------------------

 SCF Done:  E(UPBE-PBE) =  -184.966452000     A.U. after    1 cycles

 The electronic state is 2-A'.
 Alpha  occ. eigenvalues --  -18.88863 -14.19403 -14.09002  -1.12250  -0.97192
 Alpha  occ. eigenvalues --   -0.58293  -0.48805  -0.48279  -0.42057  -0.33441
 Alpha  occ. eigenvalues --   -0.30215  -0.19137
 Alpha virt. eigenvalues --   -0.07763  -0.06489   0.09807   0.41376   0.54201
 Alpha virt. eigenvalues --    0.56293   0.56751   0.64559   0.66998   0.69311
 Alpha virt. eigenvalues --    0.70126   0.72541   0.87743   0.88177   1.05359

  Beta  occ. eigenvalues --  -18.88799 -14.19213 -14.08490  -1.11786  -0.96599
  Beta  occ. eigenvalues --   -0.57370  -0.47974  -0.47910  -0.40968  -0.31425
  Beta  occ. eigenvalues --   -0.29905
  Beta virt. eigenvalues --   -0.12167  -0.05966  -0.02898   0.10381   0.41944
  Beta virt. eigenvalues --    0.56479   0.57018   0.57657   0.67572   0.68925
  Beta virt. eigenvalues --    0.70497   0.72255   0.75078   0.87873   0.88777

 Mulliken charges and spin densities:
               1          2
     1  H    0.057563   0.708129
     2  O   -0.360718  -0.073574
     3  N    0.404833   0.091746
     4  N   -0.101679   0.273699
 Sum of Mulliken charges =  -0.00000   1.00000

 Dipole moment (field-independent basis, Debye):
    X=             -0.2767    Y=             -0.2832    Z=             -0.0000  Tot=              0.3959
 Quadrupole moment (field-independent basis, Debye-Ang):
   XX=            -18.8110   YY=            -17.2391   ZZ=            -16.3881
   XY=             -1.4408   XZ=              0.0000   YZ=              0.0000

  Exact polarizability:  22.549  12.138  38.030   0.000  -0.000   7.663
 Approx polarizability:  75.674  54.696 107.406   0.000  -0.000  11.835

 ******    1 imaginary frequencies (negative Signs) ******

                      1                      2                      3
                     A'                     A'                     A"
 Frequencies --  -1156.9853               468.0674               561.1168
 Red. masses --      1.4859                 1.3410                 4.6341
 Frc consts  --      1.1719                 0.1731                 0.8597
 IR Inten    --    394.0736                11.3249                 5.4083

                      4                      5                      6
                     A'                     A'                     A'
 Frequencies --    801.6123              1204.5137              2118.1880
 Red. masses --      2.5001                 5.8234                13.9178
 Frc consts  --      0.9465                 4.9780                36.7917
 IR Inten    --      0.4551                30.1860               212.5929

 - Thermochemistry -
 -------------------
 Temperature   298.150 Kelvin.  Pressure   1.00000 Atm.
 Atom     1 has atomic number  1 and mass   1.00783

 Molecular mass:    45.00889 amu.
 Principal axes and moments of inertia in atomic units:
                           1         2         3
     Eigenvalues --     8.78063 158.14625 166.92689
           X            0.78039  -0.62529   0.00000
           Y            0.62529   0.78039   0.00000
           Z            0.00000  -0.00000   1.00000
 This molecule is an asymmetric top.
 Rotational symmetry number  1.
 Rotational temperatures (Kelvin)      9.86420     0.54768     0.51887
 Rotational constants (GHZ):         205.53657    11.41185    10.81157
    1 imaginary frequencies ignored.
 Zero-point vibrational energy      30824.8 (Joules/Mol)
                                    7.36730 (Kcal/Mol)
 Warning -- explicit consideration of   2 degrees of freedom as
           vibrations may cause significant error
 Vibrational temperatures:    673.44   807.32  1153.34  1733.03  3047.60
          (Kelvin)

 Zero-point correction=                           0.011741 (Hartree/Particle)
 Thermal correction to Energy=                    0.015099
 Thermal correction to Enthalpy=                  0.016044
 Thermal correction to Gibbs Free Energy=        -0.012609
 Sum of electronic and zero-point Energies=           -184.954711
 Sum of electronic and thermal Energies=              -184.951353
 Sum of electronic and thermal Enthalpies=            -184.950408
 Sum of electronic and thermal Free Energies=         -184.979061

                     E (Thermal)             CV                S
                      KCal/Mol        Cal/Mol-Kelvin    Cal/Mol-Kelvin
 Total                    9.475              9.256             60.305
 Electronic               0.000              0.000              1.377
 Translational            0.889              2.981             37.338
 Rotational               0.889              2.981             20.077
 Vibrational              7.698              3.294              1.512
 Vibration     1          0.825              1.321              0.743
 Vibration     2          0.917              1.115              0.522

 Optimization completed.
    -- Stationary point found.
 Normal termination of Gaussian 16 at Wed Oct  7 12:55:49 2020.
