 Gaussian 16, Revision A.03,
 Gaussian 16:  ES64L-G16RevA.03 25-Dec-2016

 ----------------------------------------------------------------------
 #P Opt(MaxCyc=100) PBEPBE/6-31G* 5D 7F Integral=UltraFineGrid SCF=(NoS
 ymm,XQC,MaxCyc=120) EmpiricalDispersion=GD3BJ IOp(1/33=1)
 ----------------------------------------------------------------------

 TstMul:  Mul=     2
 TstMul:  ICh=     0
 TstMul:  Mul=     2
 Symbolic Z-matrix:
 Charge =  0 Multiplicity = 2

 SCF Done:  E(UPBE-PBE) =  -342.313237519     A.U. after   12 cycles
 SCF Done:  E(UPBE-PBE) =  -342.313745188     A.U. after   11 cycles
 SCF Done:  E(UPBE-PBE) =  -342.313746197     A.U. after    6 cycles
 Optimization completed.
    -- Stationary point found.

                         Standard orientation:
 ---------------------------------------------------------------------
 Center     Atomic      Atomic             Coordinates (Angstroms)
 Number     Number       Type             X           Y           Z
 ---------------------------------------------------------------------
      1         15           0       -0.000000    0.000000    0.119074
      2          1           0        0.000000    1.027578   -0.893055
      3          1           0       -0.000000   -1.027578   -0.893055
 ---------------------------------------------------------------------

 The electronic state is 2-B1.
 Alpha  occ. eigenvalues --  -76.31356  -6.31859  -4.53930  -4.53453  -4.53114
 Alpha  occ. eigenvalues --   -0.57811  -0.34765  -0.27497  -0.21765
 Alpha virt. eigenvalues --   -0.00270   0.04695   0.21551   0.25221   0.26850
 Alpha virt. eigenvalues --    0.27445   0.58702   0.59416   0.60302   0.63441
 Alpha virt. eigenvalues --    0.68356   0.89906   1.05578
  Beta  occ. eigenvalues --  -76.31007  -6.31464  -4.53202  -4.52882  -4.52879
  Beta  occ. eigenvalues --   -0.55297  -0.34116  -0.26104
  Beta virt. eigenvalues --   -0.14876   0.00497   0.06787   0.24311   0.26074
  Beta virt. eigenvalues --    0.28463   0.31047   0.61132   0.63643   0.64099
  Beta virt. eigenvalues --    0.64623   0.73490   0.91368   1.06046

 Mulliken charges and spin densities:
               1          2
     1  P   -0.043835   1.078841
     2  H    0.021918  -0.039420
     3  H    0.021918  -0.039420
 Sum of Mulliken charges =  -0.00000   1.00000

 Dipole moment (field-independent basis, Debye):
    X=             -0.0000    Y=             -0.0000    Z=             -0.9312  Tot=              0.9312
 Quadrupole moment (field-independent basis, Debye-Ang):
   XX=            -14.9862   YY=            -13.9500   ZZ=            -15.3653
   XY=              0.0000   XZ=              0.0000   YZ=              0.0000

 Normal termination of Gaussian 16 at Wed Oct  7 12:54:52 2020.
