 Gaussian 16, Revision A.03,
 Gaussian 16:  ES64L-G16RevA.03 25-Dec-2016

 ----------------------------------------------------------------------
 #P Opt(MaxCyc=100) PBEPBE/6-31G* 5D 7F Integral=UltraFineGrid SCF=(NoS
 ymm,XQC,MaxCyc=120) EmpiricalDispersion=GD3BJ IOp(1/33=1)
 ----------------------------------------------------------------------

 TstMul:  Mul=     1
 TstMul:  ICh=     0
 TstMul:  Mul=     1
 Symbolic Z-matrix:
 Charge =  0 Multiplicity = 1

 SCF Done:  E(RPBE-PBE) =  -342.945394037     A.U. after    9 cycles
 SCF Done:  E(RPBE-PBE) =  -342.946089910     A.U. after    9 cycles
 SCF Done:  E(RPBE-PBE) =  -342.946104502     A.U. after    7 cycles
 Optimization completed.
    -- Stationary point found.

                         Standard orientation:
 ---------------------------------------------------------------------
 Center     Atomic      Atomic             Coordinates (Angstroms)
 Number     Number       Type             X           Y           Z
 ---------------------------------------------------------------------
      1         15           0        0.000000    0.000000    0.132034
      2          1           0        0.000000    1.198094   -0.660171
      3          1           0        1.037580   -0.599047   -0.660171
      4          1           0       -1.037580   -0.599047   -0.660171
 ---------------------------------------------------------------------

 The electronic state is 1-A1.
 Alpha  occ. eigenvalues --  -76.29561  -6.30330  -4.52042  -4.52042  -4.51565
 Alpha  occ. eigenvalues --   -0.58632  -0.34385  -0.34385  -0.24221
 Alpha virt. eigenvalues --    0.00339   0.00339   0.08580   0.25677   0.25677
 Alpha virt. eigenvalues --    0.27815   0.36686   0.60863   0.60863   0.62716
 Alpha virt. eigenvalues --    0.63969   0.63969   0.88364   1.07207   1.07207

 Mulliken charges:
               1
     1  P   -0.164398
     2  H    0.054799
     3  H    0.054799
     4  H    0.054799
 Sum of Mulliken charges =  -0.00000

 Dipole moment (field-independent basis, Debye):
    X=              0.0000    Y=             -0.0000    Z=             -1.0563  Tot=              1.0563
 Quadrupole moment (field-independent basis, Debye-Ang):
   XX=            -14.6391   YY=            -14.6391   ZZ=            -16.9376
   XY=             -0.0000   XZ=              0.0000   YZ=              0.0000

 Normal termination of Gaussian 16 at Wed Oct  7 12:55:02 2020.
