 Gaussian 16, Revision A.03,
 Gaussian 16:  ES64L-G16RevA.03 25-Dec-2016

 ----------------------------------------------------------------------
 #P Opt(MaxCyc=100) PBEPBE/6-31G* 5D 7F Integral=UltraFineGrid SCF=(NoS
 ymm,XQC,MaxCyc=120) EmpiricalDispersion=GD3BJ IOp(1/33=1)
 ----------------------------------------------------------------------

 TstMul:  Mul=     2
 TstMul:  ICh=     0
 TstMul:  Mul=     2
 Symbolic Z-matrix:
 Charge =  0 Multiplicity = 2

 SCF Done:  E(UPBE-PBE) =  -75.6344870212     A.U. after   11 cycles
 SCF Done:  E(UPBE-PBE) =  -75.6349334153     A.U. after    8 cycles
 SCF Done:  E(UPBE-PBE) =  -75.6349376175     A.U. after    7 cycles
 Optimization completed.
    -- Stationary point found.

                         Standard orientation:
 ---------------------------------------------------------------------
 Center     Atomic      Atomic             Coordinates (Angstroms)
 Number     Number       Type             X           Y           Z
 ---------------------------------------------------------------------
      1          8           0        0.000000    0.000000    0.110228
      2          1           0        0.000000    0.000000   -0.881823
 ---------------------------------------------------------------------

 Unable to determine electronic state:  partially filled degenerate orbitals.
 Alpha  occ. eigenvalues --  -18.82231  -0.90759  -0.40381  -0.33734  -0.25989
 Alpha virt. eigenvalues --    0.04525   0.71581   0.76930   0.81982   0.87388
 Alpha virt. eigenvalues --    1.17329   1.62172   1.67292   1.68448   1.68500
 Alpha virt. eigenvalues --    2.30383
  Beta  occ. eigenvalues --  -18.79947  -0.85032  -0.38059  -0.23555
  Beta virt. eigenvalues --   -0.20557   0.05443   0.72403   0.83640   0.86185
  Beta virt. eigenvalues --    0.89385   1.21541   1.68322   1.68994   1.74911
  Beta virt. eigenvalues --    1.76378   2.33125

 Mulliken charges and spin densities:
               1          2
     1  O   -0.403143   1.031287
     2  H    0.403143  -0.031287
 Sum of Mulliken charges =   0.00000   1.00000

 Dipole moment (field-independent basis, Debye):
    X=              0.0000    Y=              0.0000    Z=             -1.7194  Tot=              1.7194
 Quadrupole moment (field-independent basis, Debye-Ang):
   XX=             -5.3094   YY=             -6.4492   ZZ=             -4.4402
   XY=              0.0000   XZ=              0.0000   YZ=             -0.0000

 Normal termination of Gaussian 16 at Wed Oct  7 12:54:45 2020.
