 Gaussian 16, Revision A.03,

 ----------------------------------------------------------------------
 #P Opt(TS,MaxCyc=50,NoEigenTest,MaxStep=10,AddRedundant) PBEPBE/6-31G*
  5D 7F Integral=UltraFineGrid SCF=(NoSymm,XQC,MaxCyc=120) EmpiricalDis
 persion=GD3BJ IOp(1/33=1)
 ----------------------------------------------------------------------

 TstMul:  Mul=     2
 TstMul:  ICh=     0
 TstMul:  Mul=     2
 Symbolic Z-matrix:
 Charge =  0 Multiplicity = 2

 SCF Done:  E(UPBE-PBE) =  -461.082775599     A.U. after   11 cycles
 SCF Done:  E(UPBE-PBE) =  -461.085185252     A.U. after   12 cycles
 SCF Done:  E(UPBE-PBE) =  -461.086646628     A.U. after   11 cycles
 SCF Done:  E(UPBE-PBE) =  -461.087481794     A.U. after   11 cycles
 SCF Done:  E(UPBE-PBE) =  -461.087960145     A.U. after   11 cycles
 SCF Done:  E(UPBE-PBE) =  -461.088269795     A.U. after   11 cycles
 SCF Done:  E(UPBE-PBE) =  -461.088492646     A.U. after   11 cycles
 SCF Done:  E(UPBE-PBE) =  -461.088650519     A.U. after   11 cycles
 SCF Done:  E(UPBE-PBE) =  -461.088755591     A.U. after   11 cycles
 SCF Done:  E(UPBE-PBE) =  -461.088821927     A.U. after   11 cycles
 SCF Done:  E(UPBE-PBE) =  -461.088853236     A.U. after   11 cycles
 SCF Done:  E(UPBE-PBE) =  -461.088857468     A.U. after    8 cycles
 SCF Done:  E(UPBE-PBE) =  -461.088857613     A.U. after    8 cycles
 Optimization completed.
    -- Stationary point found.
 Normal termination of Gaussian 16 at Wed Oct  7 12:56:48 2020.
 Gaussian 16:  ES64L-G16RevA.03 25-Dec-2016

 ----------------------------------------------------------------------
 #P Freq PBEPBE/6-31G* 5D 7F Integral=UltraFineGrid SCF=(NoSymm,XQC,Max
 Cyc=120) EmpiricalDispersion=GD3BJ IOp(1/33=1) Geom=Check Guess=Read
 ----------------------------------------------------------------------

 TstMul:  Mul=     2
 TstMul:  ICh=     0
 TstMul:  Mul=     2
 Structure from the checkpoint file:  "MN_78_RKT01_BH76_PBEDBJ_631Gs.chk"
 Charge =  0 Multiplicity = 2

                         Standard orientation:
 ---------------------------------------------------------------------
 Center     Atomic      Atomic             Coordinates (Angstroms)
 Number     Number       Type             X           Y           Z
 ---------------------------------------------------------------------
      1          1           0        0.000000    0.000000   -1.669111
      2         17           0        0.000000    0.000000    0.242383
      3          1           0        0.000000    0.000000   -2.451395
 ---------------------------------------------------------------------

 SCF Done:  E(UPBE-PBE) =  -461.088857613     A.U. after    1 cycles

 The electronic state is 2-SG.
 Alpha  occ. eigenvalues -- -100.68607  -9.19815  -7.03128  -7.01015  -7.01015
 Alpha  occ. eigenvalues --   -0.75188  -0.45356  -0.31751  -0.29197  -0.29197
 Alpha virt. eigenvalues --    0.07497   0.33310   0.40445   0.40445   0.42534
 Alpha virt. eigenvalues --    0.59905   0.75078   0.75078   0.79555   0.79555
 Alpha virt. eigenvalues --    0.88456   1.06908
  Beta  occ. eigenvalues -- -100.68115  -9.19332  -7.01761  -7.00708  -7.00708
  Beta  occ. eigenvalues --   -0.71742  -0.42926  -0.27886  -0.27886
  Beta virt. eigenvalues --   -0.25875   0.09269   0.35365   0.41138   0.41138
  Beta virt. eigenvalues --    0.45772   0.63193   0.80010   0.80010   0.80332
  Beta virt. eigenvalues --    0.80332   0.93392   1.08558

 Mulliken charges and spin densities:
               1          2
     1  H   -0.039928  -0.038125
     2  Cl  -0.077152   0.823156
     3  H    0.117080   0.214969
 Sum of Mulliken charges =  -0.00000   1.00000

 Dipole moment (field-independent basis, Debye):
    X=              0.0000    Y=             -0.0000    Z=             -1.1739  Tot=              1.1739
 Quadrupole moment (field-independent basis, Debye-Ang):
   XX=            -15.0583   YY=            -15.0583   ZZ=            -10.1976
   XY=              0.0000   XZ=              0.0000   YZ=             -0.0000

  Exact polarizability:   5.877  -0.000   5.877  -0.000  -0.000  30.308
 Approx polarizability:   7.592   0.000   7.592   0.000  -0.000  52.052

                      1                      2                      3
                     SG                     PI                     PI
 Frequencies --    306.1180               320.4115               320.4115
 Red. masses --      1.0640                 1.0094                 1.0094
 Frc consts  --      0.0587                 0.0611                 0.0611
 IR Inten    --     47.2055                 2.6132                 2.6132

                      4
                     SG
 Frequencies --   3630.7027
 Red. masses --      1.0080
 Frc consts  --      7.8284
 IR Inten    --    379.5461

 - Thermochemistry -
 -------------------
 Temperature   298.150 Kelvin.  Pressure   1.00000 Atm.
 Atom     1 has atomic number  1 and mass   1.00783

 Molecular mass:    36.98450 amu.
 Principal axes and moments of inertia in atomic units:
                           1         2         3
     Eigenvalues --     0.00000  37.18610  37.18610
           X            0.00000   0.00000   1.00000
           Y            0.00000   1.00000   0.00000
           Z            1.00000   0.00000   0.00000
 This molecule is a prolate symmetric top.
 Rotational symmetry number  1.
 Rotational temperature (Kelvin)      2.32920
 Rotational constant (GHZ):          48.532685
 Zero-point vibrational energy      27380.4 (Joules/Mol)
                                    6.54407 (Kcal/Mol)
 Warning -- explicit consideration of   3 degrees of freedom as
           vibrations may cause significant error
 Vibrational temperatures:    440.44   461.00   461.00  5223.77
          (Kelvin)

 Zero-point correction=                           0.010429 (Hartree/Particle)
 Thermal correction to Energy=                    0.013992
 Thermal correction to Enthalpy=                  0.014936
 Thermal correction to Gibbs Free Energy=        -0.010606
 Sum of electronic and zero-point Energies=           -461.078429
 Sum of electronic and thermal Energies=              -461.074865
 Sum of electronic and thermal Enthalpies=            -461.073921
 Sum of electronic and thermal Free Energies=         -461.099464

                     E (Thermal)             CV                S
                      KCal/Mol        Cal/Mol-Kelvin    Cal/Mol-Kelvin
 Total                    8.780              9.899             53.759
 Electronic               0.000              0.000              1.377
 Translational            0.889              2.981             36.753
 Rotational               0.592              1.987             11.629
 Vibrational              7.299              4.931              3.999
 Vibration     1          0.697              1.662              1.383
 Vibration     2          0.706              1.634              1.308
 Vibration     3          0.706              1.634              1.308

 Optimization completed.
    -- Stationary point found.
 Normal termination of Gaussian 16 at Wed Oct  7 12:57:09 2020.
