 Gaussian 16, Revision A.03,

 ----------------------------------------------------------------------
 #P Opt(TS,MaxCyc=50,NoEigenTest,MaxStep=10,AddRedundant) PBEPBE/6-31G*
  5D 7F Integral=UltraFineGrid SCF=(NoSymm,XQC,MaxCyc=120) EmpiricalDis
 persion=GD3BJ IOp(1/33=1)
 ----------------------------------------------------------------------

 TstMul:  Mul=     2
 TstMul:  ICh=     0
 TstMul:  Mul=     2
 Symbolic Z-matrix:
 Charge =  0 Multiplicity = 2

 SCF Done:  E(UPBE-PBE) =  -343.445503558     A.U. after   13 cycles
 SCF Done:  E(UPBE-PBE) =  -343.446335312     A.U. after   12 cycles
 SCF Done:  E(UPBE-PBE) =  -343.446754552     A.U. after   12 cycles
 SCF Done:  E(UPBE-PBE) =  -343.446301962     A.U. after   12 cycles
 SCF Done:  E(UPBE-PBE) =  -343.445772255     A.U. after   12 cycles
 SCF Done:  E(UPBE-PBE) =  -343.445231941     A.U. after   12 cycles
 SCF Done:  E(UPBE-PBE) =  -343.444729770     A.U. after   12 cycles
 SCF Done:  E(UPBE-PBE) =  -343.444307673     A.U. after   12 cycles
 SCF Done:  E(UPBE-PBE) =  -343.443989645     A.U. after   12 cycles
 SCF Done:  E(UPBE-PBE) =  -343.443782228     A.U. after   12 cycles
 SCF Done:  E(UPBE-PBE) =  -343.443703757     A.U. after   10 cycles
 SCF Done:  E(UPBE-PBE) =  -343.443697760     A.U. after   11 cycles
 SCF Done:  E(UPBE-PBE) =  -343.443754902     A.U. after   11 cycles
 SCF Done:  E(UPBE-PBE) =  -343.443806197     A.U. after   11 cycles
 SCF Done:  E(UPBE-PBE) =  -343.443837622     A.U. after   11 cycles
 SCF Done:  E(UPBE-PBE) =  -343.443846726     A.U. after   11 cycles
 SCF Done:  E(UPBE-PBE) =  -343.443847863     A.U. after    8 cycles
 SCF Done:  E(UPBE-PBE) =  -343.443848283     A.U. after    8 cycles
 SCF Done:  E(UPBE-PBE) =  -343.443848432     A.U. after    7 cycles
 Optimization completed.
    -- Stationary point found.

 1\1\GINC-NODE56\FTS\UPBEPBE\6-31G(d)\H4P1(2)\RPEVERATI\07-Oct-2020\0\\
 #P Opt(TS,MaxCyc=50,NoEigenTest,MaxStep=10,AddRedundant) PBEPBE/6-31G*
  5D 7F Integral=UltraFineGrid SCF=(NoSymm,XQC,MaxCyc=120) EmpiricalDis
 persion=GD3BJ IOp(1/33=1)\\TS search on BH76.\\0,2\P,0.3015649452,-0.0
 114779365,-0.1148263181\H,0.3173685768,1.0429718097,0.8609923049\H,0.3
 081038471,-1.0311017652,0.897428389\H,-1.153864699,-0.0061143373,-0.17
 78390061\H,-2.8171772609,0.0044970772,0.0917327558\\Version=ES64L-G16R
 evA.03\State=2-A\HF=-343.4438484\S2=0.751779\S2-1=0.\S2A=0.75\RMSD=8.1

 Normal termination of Gaussian 16 at Wed Oct  7 13:02:18 2020.
 Gaussian 16:  ES64L-G16RevA.03 25-Dec-2016

 ----------------------------------------------------------------------
 #P Freq PBEPBE/6-31G* 5D 7F Integral=UltraFineGrid SCF=(NoSymm,XQC,Max
 Cyc=120) EmpiricalDispersion=GD3BJ IOp(1/33=1) Geom=Check Guess=Read
 ----------------------------------------------------------------------

 TstMul:  Mul=     2
 TstMul:  ICh=     0
 TstMul:  Mul=     2
 Structure from the checkpoint file:  "MN_88_RKT12_BH76_PBEDBJ_631Gs.chk"
 Charge =  0 Multiplicity = 2

                         Standard orientation:
 ---------------------------------------------------------------------
 Center     Atomic      Atomic             Coordinates (Angstroms)
 Number     Number       Type             X           Y           Z
 ---------------------------------------------------------------------
      1         15           0        0.239826   -0.000003   -0.111681
      2          1           0        0.249294    1.036838    0.882909
      3          1           0        0.248185   -1.037576    0.882154
      4          1           0       -1.215471    0.000769   -0.177895
      5          1           0       -2.879402    0.000008    0.088042
 ---------------------------------------------------------------------

 SCF Done:  E(UPBE-PBE) =  -343.443848432     A.U. after    1 cycles

 The electronic state is 2-A.
 Alpha  occ. eigenvalues --  -76.29787  -6.30540  -4.52276  -4.52238  -4.51803
 Alpha  occ. eigenvalues --   -0.58893  -0.36039  -0.34545  -0.27045  -0.23269
 Alpha virt. eigenvalues --    0.00177   0.00680   0.09395   0.25500   0.26519
 Alpha virt. eigenvalues --    0.28221   0.35761   0.60387   0.60659   0.62184
 Alpha virt. eigenvalues --    0.63827   0.67902   0.71955   0.91295   1.06976

  Beta  occ. eigenvalues --  -76.29735  -6.30484  -4.52203  -4.52163  -4.51726
  Beta  occ. eigenvalues --   -0.58564  -0.34805  -0.34468  -0.24591
  Beta virt. eigenvalues --   -0.09909   0.00235   0.01867   0.10364   0.25584
  Beta virt. eigenvalues --    0.26754   0.29283   0.36233   0.60921   0.61101
  Beta virt. eigenvalues --    0.62695   0.63837   0.68815   0.88656   0.93417

 Mulliken charges and spin densities:
               1          2
     1  P   -0.121668   0.118108
     2  H    0.057590  -0.003755
     3  H    0.057593  -0.003756
     4  H    0.005959  -0.040530
     5  H    0.000527   0.929932
 Sum of Mulliken charges =  -0.00000   1.00000

 Dipole moment (field-independent basis, Debye):
    X=             -0.4587    Y=             -0.0000    Z=              0.8493  Tot=              0.9653
 Quadrupole moment (field-independent basis, Debye-Ang):
   XX=            -17.2702   YY=            -15.9068   ZZ=            -17.4061
   XY=              0.0002   XZ=              1.1600   YZ=              0.0000

  Exact polarizability:  38.864   0.002  21.936  -0.203  -0.000  20.363
 Approx polarizability:  58.037   0.002  38.344   1.770  -0.001  33.118

 ******    1 imaginary frequencies (negative Signs) ******

                      1                      2                      3
                      A                      A                      A
 Frequencies --   -316.8658               217.5646               223.3418
 Red. masses --      1.0317                 1.0203                 1.0079
 Frc consts  --      0.0610                 0.0285                 0.0296
 IR Inten    --     41.2021                 4.0563                 3.0101

                      4                      5                      6
                      A                      A                      A
 Frequencies --   1002.7318              1118.3397              1123.7429
 Red. masses --      1.0757                 1.0245                 1.0255
 Frc consts  --      0.6373                 0.7549                 0.7630
 IR Inten    --     12.9099                12.5702                 6.0493

                      7                      8                      9
                      A                      A                      A
 Frequencies --   2061.9754              2344.2922              2358.4270
 Red. masses --      1.0422                 1.0355                 1.0404
 Frc consts  --      2.6107                 3.3531                 3.4096
 IR Inten    --    119.9067                69.6291                99.8453

 - Thermochemistry -
 -------------------
 Temperature   298.150 Kelvin.  Pressure   1.00000 Atm.
 Atom     1 has atomic number 15 and mass  30.97376

 Molecular mass:    35.00506 amu.
 Principal axes and moments of inertia in atomic units:
                           1         2         3
     Eigenvalues --    14.53092  47.29598  48.25230
           X            0.99970   0.00000   0.02461
           Y           -0.00000   1.00000  -0.00001
           Z           -0.02461   0.00001   0.99970
 This molecule is an asymmetric top.
 Rotational symmetry number  1.
 Rotational temperatures (Kelvin)      5.96066     1.83132     1.79502
 Rotational constants (GHZ):         124.20010    38.15845    37.40218
    1 imaginary frequencies ignored.
 Zero-point vibrational energy      62507.4 (Joules/Mol)
                                   14.93962 (Kcal/Mol)
 Warning -- explicit consideration of   2 degrees of freedom as
           vibrations may cause significant error
 Vibrational temperatures:    313.03   321.34  1442.71  1609.04  1616.82
          (Kelvin)           2966.72  3372.91  3393.25

 Zero-point correction=                           0.023808 (Hartree/Particle)
 Thermal correction to Energy=                    0.027782
 Thermal correction to Enthalpy=                  0.028726
 Thermal correction to Gibbs Free Energy=         0.000108
 Sum of electronic and zero-point Energies=           -343.420041
 Sum of electronic and thermal Energies=              -343.416066
 Sum of electronic and thermal Enthalpies=            -343.415122
 Sum of electronic and thermal Free Energies=         -343.443740

                     E (Thermal)             CV                S
                      KCal/Mol        Cal/Mol-Kelvin    Cal/Mol-Kelvin
 Total                   17.434             10.496             60.232
 Electronic               0.000              0.000              1.377
 Translational            0.889              2.981             36.589
 Rotational               0.889              2.981             18.145
 Vibrational             15.656              4.534              4.120
 Vibration     1          0.646              1.814              1.979
 Vibration     2          0.649              1.806              1.932

 Optimization completed.
    -- Stationary point found.
 Normal termination of Gaussian 16 at Wed Oct  7 13:03:06 2020.
