 Gaussian 16, Revision A.03,

 ----------------------------------------------------------------------
 #P Opt(TS,MaxCyc=50,NoEigenTest,MaxStep=10,AddRedundant) PBEPBE/6-31G*
  5D 7F Integral=UltraFineGrid SCF=(NoSymm,XQC,MaxCyc=120) EmpiricalDis
 persion=GD3BJ IOp(1/33=1)
 ----------------------------------------------------------------------

 TstMul:  Mul=     2
 TstMul:  ICh=     0
 TstMul:  Mul=     2
 Symbolic Z-matrix:
 Charge =  0 Multiplicity = 2

 SCF Done:  E(UPBE-PBE) =  -116.084683481     A.U. after   13 cycles
 SCF Done:  E(UPBE-PBE) =  -116.085083754     A.U. after   13 cycles
 SCF Done:  E(UPBE-PBE) =  -116.085624320     A.U. after   12 cycles
 SCF Done:  E(UPBE-PBE) =  -116.085638754     A.U. after   10 cycles
 SCF Done:  E(UPBE-PBE) =  -116.085622109     A.U. after   12 cycles
 SCF Done:  E(UPBE-PBE) =  -116.085637160     A.U. after   10 cycles
 SCF Done:  E(UPBE-PBE) =  -116.085566337     A.U. after   13 cycles
 SCF Done:  E(UPBE-PBE) =  -116.085559831     A.U. after   13 cycles
 SCF Done:  E(UPBE-PBE) =  -116.085569437     A.U. after   10 cycles
 SCF Done:  E(UPBE-PBE) =  -116.085571388     A.U. after   12 cycles
 SCF Done:  E(UPBE-PBE) =  -116.085571968     A.U. after    9 cycles
 SCF Done:  E(UPBE-PBE) =  -116.085573233     A.U. after   12 cycles
 SCF Done:  E(UPBE-PBE) =  -116.085574547     A.U. after   12 cycles
 SCF Done:  E(UPBE-PBE) =  -116.085575530     A.U. after   12 cycles
 SCF Done:  E(UPBE-PBE) =  -116.085576493     A.U. after   12 cycles
 SCF Done:  E(UPBE-PBE) =  -116.085578720     A.U. after   12 cycles
 SCF Done:  E(UPBE-PBE) =  -116.085579095     A.U. after   11 cycles
 SCF Done:  E(UPBE-PBE) =  -116.085579133     A.U. after    9 cycles
 Optimization completed.
    -- Stationary point found.
 Normal termination of Gaussian 16 at Wed Oct  7 12:58:41 2020.
 Gaussian 16:  ES64L-G16RevA.03 25-Dec-2016

 ----------------------------------------------------------------------
 #P Freq PBEPBE/6-31G* 5D 7F Integral=UltraFineGrid SCF=(NoSymm,XQC,Max
 Cyc=120) EmpiricalDispersion=GD3BJ IOp(1/33=1) Geom=Check Guess=Read
 ----------------------------------------------------------------------

 TstMul:  Mul=     2
 TstMul:  ICh=     0
 TstMul:  Mul=     2
 Structure from the checkpoint file:  "MN_81_RKT04_BH76_PBEDBJ_631Gs.chk"
 Charge =  0 Multiplicity = 2

                         Standard orientation:
 ---------------------------------------------------------------------
 Center     Atomic      Atomic             Coordinates (Angstroms)
 Number     Number       Type             X           Y           Z
 ---------------------------------------------------------------------
      1          6           0       -1.222889    0.008245   -0.000006
      2          8           0        1.314022   -0.110683   -0.000002
      3          1           0       -0.017872   -0.176817   -0.000039
      4          1           0       -1.591320   -0.477060    0.914229
      5          1           0       -1.400646    1.092341    0.002774
      6          1           0       -1.590833   -0.472332   -0.916926
      7          1           0        1.425831    0.869862    0.000012
 ---------------------------------------------------------------------

 SCF Done:  E(UPBE-PBE) =  -116.085579133     A.U. after    1 cycles

 The electronic state is 2-A.
 Alpha  occ. eigenvalues --  -18.77535  -9.89975  -0.88216  -0.64116  -0.42278
 Alpha  occ. eigenvalues --   -0.36994  -0.36745  -0.35443  -0.23257  -0.23039
 Alpha virt. eigenvalues --    0.05833   0.09931   0.13241   0.13494   0.24306
 Alpha virt. eigenvalues --    0.48240   0.48304   0.50482   0.73483   0.76351
 Alpha virt. eigenvalues --    0.82563   0.82655   0.84404   0.86651   0.92714

  Beta  occ. eigenvalues --  -18.75983  -9.89349  -0.84683  -0.62609  -0.40063
  Beta  occ. eigenvalues --   -0.36273  -0.36245  -0.32924  -0.21475
  Beta virt. eigenvalues --   -0.16711   0.06415   0.10511   0.13709   0.13975
  Beta virt. eigenvalues --    0.25858   0.48723   0.48730   0.53145   0.74551
  Beta virt. eigenvalues --    0.77297   0.83058   0.83200   0.85267   0.87673

 Mulliken charges and spin densities:
               1          2
     1  C   -0.703498   0.423693
     2  O   -0.591156   0.659272
     3  H    0.336109  -0.040960
     4  H    0.197512  -0.006767
     5  H    0.184239  -0.012272
     6  H    0.197492  -0.006786
     7  H    0.379302  -0.016180
 Sum of Mulliken charges =   0.00000   1.00000

 Dipole moment (field-independent basis, Debye):
    X=             -1.2730    Y=              1.4930    Z=              0.0000  Tot=              1.9620
 Quadrupole moment (field-independent basis, Debye-Ang):
   XX=            -14.4620   YY=            -12.5839   ZZ=            -14.4377
   XY=              2.5336   XZ=             -0.0000   YZ=             -0.0001

  Exact polarizability:  35.158   1.314  18.463   0.000  -0.000  14.770
 Approx polarizability:  60.748  -0.163  27.007   0.000   0.000  19.981

 ******    1 imaginary frequencies (negative Signs) ******

                      1                      2                      3
                      A                      A                      A
 Frequencies --   -415.3933                29.4249               236.7119
 Red. masses --      1.7602                 1.0547                 1.0544
 Frc consts  --      0.1790                 0.0005                 0.0348
 IR Inten    --     94.1178                81.5304                 4.4491

                      4                      5                      6
                      A                      A                      A
 Frequencies --    349.3114               840.6420              1019.3581
 Red. masses --      1.1113                 1.1235                 1.9459
 Frc consts  --      0.0799                 0.4678                 1.1913
 IR Inten    --      7.2952                40.7765               283.3976

                      7                      8                      9
                      A                      A                      A
 Frequencies --   1098.5919              1295.2750              1397.2604
 Red. masses --      1.1101                 1.0427                 1.1165
 Frc consts  --      0.7894                 1.0307                 1.2842
 IR Inten    --     44.3565                84.3106                27.0957

                     10                     11                     12
                      A                      A                      A
 Frequencies --   1431.4940              1452.7822              3024.9297
 Red. masses --      1.0556                 1.0173                 1.0238
 Frc consts  --      1.2745                 1.2650                 5.5193
 IR Inten    --      2.0527                 4.4434                 1.7690

                     13                     14                     15
                      A                      A                      A
 Frequencies --   3148.1565              3151.4052              3575.0308
 Red. masses --      1.1067                 1.1074                 1.0665
 Frc consts  --      6.4624                 6.4796                 8.0309
 IR Inten    --     10.1482                 7.7549                 8.4689

 - Thermochemistry -
 -------------------
 Temperature   298.150 Kelvin.  Pressure   1.00000 Atm.
 Atom     1 has atomic number  6 and mass  12.00000

 Molecular mass:    33.03404 amu.
 Principal axes and moments of inertia in atomic units:
                           1         2         3
     Eigenvalues --    15.32572 200.36412 203.62183
           X            0.99976   0.02191  -0.00000
           Y           -0.02191   0.99976  -0.00000
           Z            0.00000   0.00000   1.00000
 This molecule is an asymmetric top.
 Rotational symmetry number  1.
 Rotational temperatures (Kelvin)      5.65154     0.43228     0.42537
 Rotational constants (GHZ):         117.75895     9.00731     8.86320
    1 imaginary frequencies ignored.
 Zero-point vibrational energy     131890.5 (Joules/Mol)
                                   31.52259 (Kcal/Mol)
 Warning -- explicit consideration of   3 degrees of freedom as
           vibrations may cause significant error
 Vibrational temperatures:     42.34   340.58   502.58  1209.50  1466.63
          (Kelvin)           1580.63  1863.61  2010.35  2059.60  2090.23
                             4352.20  4529.49  4534.17  5143.67

 Zero-point correction=                           0.050234 (Hartree/Particle)
 Thermal correction to Energy=                    0.054971
 Thermal correction to Enthalpy=                  0.055916
 Thermal correction to Gibbs Free Energy=         0.023548
 Sum of electronic and zero-point Energies=           -116.035345
 Sum of electronic and thermal Energies=              -116.030608
 Sum of electronic and thermal Enthalpies=            -116.029664
 Sum of electronic and thermal Free Energies=         -116.062031

                     E (Thermal)             CV                S
                      KCal/Mol        Cal/Mol-Kelvin    Cal/Mol-Kelvin
 Total                   34.495             12.971             68.124
 Electronic               0.000              0.000              1.377
 Translational            0.889              2.981             36.416
 Rotational               0.889              2.981             21.063
 Vibrational             32.718              7.010              9.267
 Vibration     1          0.593              1.984              5.868
 Vibration     2          0.656              1.785              1.827
 Vibration     3          0.727              1.577              1.169

                           ! Non-Optimized Parameters !
 Normal termination of Gaussian 16 at Wed Oct  7 12:59:14 2020.
