 Gaussian 16, Revision A.03,

 ----------------------------------------------------------------------
 #P Opt(TS,MaxCyc=50,NoEigenTest,MaxStep=10,AddRedundant) PBEPBE/6-31G*
  5D 7F Integral=UltraFineGrid SCF=(NoSymm,XQC,MaxCyc=120) EmpiricalDis
 persion=GD3BJ IOp(1/33=1)
 ----------------------------------------------------------------------

 TstMul:  Mul=     3
 TstMul:  ICh=     0
 TstMul:  Mul=     3
 Symbolic Z-matrix:
 Charge =  0 Multiplicity = 3

 SCF Done:  E(UPBE-PBE) =  -115.411851678     A.U. after   13 cycles
 SCF Done:  E(UPBE-PBE) =  -115.411850588     A.U. after   10 cycles
 SCF Done:  E(UPBE-PBE) =  -115.411893982     A.U. after    9 cycles
 SCF Done:  E(UPBE-PBE) =  -115.411460382     A.U. after   12 cycles
 SCF Done:  E(UPBE-PBE) =  -115.411249261     A.U. after   12 cycles
 SCF Done:  E(UPBE-PBE) =  -115.411310246     A.U. after   11 cycles
 SCF Done:  E(UPBE-PBE) =  -115.411275980     A.U. after   12 cycles
 SCF Done:  E(UPBE-PBE) =  -115.411278366     A.U. after   10 cycles
 Optimization completed.
    -- Stationary point found.
 Normal termination of Gaussian 16 at Sun Oct 11 11:25:49 2020.
 Gaussian 16:  ES64L-G16RevA.03 25-Dec-2016

 ----------------------------------------------------------------------
 #P Freq PBEPBE/6-31G* 5D 7F Integral=UltraFineGrid SCF=(NoSymm,XQC,Max
 Cyc=120) EmpiricalDispersion=GD3BJ IOp(1/33=1) Geom=Check Guess=Read
 ----------------------------------------------------------------------

 TstMul:  Mul=     3
 TstMul:  ICh=     0
 TstMul:  Mul=     3
 Structure from the checkpoint file:  "MN_87_RKT11_BH76_PBEDBJ_631Gs.chk"
 Charge =  0 Multiplicity = 3

                         Standard orientation:
 ---------------------------------------------------------------------
 Center     Atomic      Atomic             Coordinates (Angstroms)
 Number     Number       Type             X           Y           Z
 ---------------------------------------------------------------------
      1          6           0        0.000435   -1.187343    0.000000
      2          1           0       -1.077724   -1.384588    0.000000
      3          1           0        0.529422   -1.420639    0.930364
      4          1           0        0.529422   -1.420639   -0.930364
      5          1           0        0.012795    0.272016   -0.000000
      6          8           0        0.000435    1.384738   -0.000000
 ---------------------------------------------------------------------

 SCF Done:  E(UPBE-PBE) =  -115.411278366     A.U. after    1 cycles

 The electronic state is 3-A'.
 Alpha  occ. eigenvalues --  -18.81385  -9.92213  -0.87691  -0.64599  -0.40918
 Alpha  occ. eigenvalues --   -0.38769  -0.38730  -0.32309  -0.24659  -0.22332
 Alpha virt. eigenvalues --    0.07191   0.12667   0.12766   0.20509   0.46981
 Alpha virt. eigenvalues --    0.47391   0.49216   0.66601   0.80174   0.81591
 Alpha virt. eigenvalues --    0.82200   0.82332   0.85147   0.89767   1.09179

  Beta  occ. eigenvalues --  -18.78294  -9.91148  -0.79942  -0.61900  -0.37911
  Beta  occ. eigenvalues --   -0.37898  -0.36287  -0.21510
  Beta virt. eigenvalues --   -0.18391  -0.15011   0.08232   0.13380   0.13457
  Beta virt. eigenvalues --    0.23650   0.48192   0.48254   0.54221   0.67807
  Beta virt. eigenvalues --    0.82862   0.82982   0.83513   0.87235   0.89711

 Mulliken charges and spin densities:
               1          2
     1  C   -0.652827   0.771955
     2  H    0.207260  -0.023617
     3  H    0.207665  -0.024839
     4  H    0.207665  -0.024839
     5  H    0.407143  -0.040403
     6  O   -0.376906   1.341743
 Sum of Mulliken charges =   0.00000   2.00000

 Dipole moment (field-independent basis, Debye):
    X=              0.0011    Y=             -2.1922    Z=             -0.0000  Tot=              2.1922
 Quadrupole moment (field-independent basis, Debye-Ang):
   XX=            -12.3173   YY=            -15.5244   ZZ=            -13.4415
   XY=             -0.0027   XZ=             -0.0000   YZ=              0.0000

  Exact polarizability:  14.569  -0.085  29.862  -0.000  -0.000  14.331
 Approx polarizability:  20.138  -0.133  49.800  -0.000   0.000  19.278

 ******    1 imaginary frequencies (negative Signs) ******

                      1                      2                      3
                     A'                     A"                     A'
 Frequencies --   -489.1571               238.5304               375.4369
 Red. masses --      2.2429                 1.0508                 1.0673
 Frc consts  --      0.3162                 0.0352                 0.0886
 IR Inten    --     49.6481                15.7252                 3.5493

                      4                      5                      6
                     A'                     A"                     A'
 Frequencies --    743.5476               765.6357              1026.3413
 Red. masses --      1.3678                 1.0638                 1.0527
 Frc consts  --      0.4455                 0.3674                 0.6533
 IR Inten    --      0.3453                41.9750                52.8445

                      7                      8                      9
                     A'                     A'                     A"
 Frequencies --   1348.8736              1398.9320              1409.1770
 Red. masses --      1.2914                 1.0863                 1.0894
 Frc consts  --      1.3844                 1.2525                 1.2746
 IR Inten    --     35.1359                 5.2865                 5.2466

                     10                     11                     12
                     A'                     A'                     A"
 Frequencies --   3042.3975              3194.5978              3202.9198
 Red. masses --      1.0152                 1.1127                 1.1140
 Frc consts  --      5.5364                 6.6902                 6.7335
 IR Inten    --      0.3715                 3.3244                 3.1846

 - Thermochemistry -
 -------------------
 Temperature   298.150 Kelvin.  Pressure   1.00000 Atm.
 Atom     1 has atomic number  6 and mass  12.00000

 Molecular mass:    32.02621 amu.
 Principal axes and moments of inertia in atomic units:
                           1         2         3
     Eigenvalues --    12.42876 196.12014 196.15225
           X           -0.00012   0.00000   1.00000
           Y            1.00000   0.00000   0.00012
           Z            0.00000   1.00000   0.00000
 This molecule is an asymmetric top.
 Rotational symmetry number  1.
 Rotational temperatures (Kelvin)      6.96883     0.44164     0.44156
 Rotational constants (GHZ):         145.20685     9.20222     9.20072
    1 imaginary frequencies ignored.
 Zero-point vibrational energy     100165.7 (Joules/Mol)
                                   23.94017 (Kcal/Mol)
 Warning -- explicit consideration of   2 degrees of freedom as
           vibrations may cause significant error
 Vibrational temperatures:    343.19   540.17  1069.80  1101.58  1476.68
          (Kelvin)           1940.73  2012.75  2027.49  4377.33  4596.31
                             4608.29

 Zero-point correction=                           0.038151 (Hartree/Particle)
 Thermal correction to Energy=                    0.042063
 Thermal correction to Enthalpy=                  0.043007
 Thermal correction to Gibbs Free Energy=         0.013163
 Sum of electronic and zero-point Energies=           -115.373127
 Sum of electronic and thermal Energies=              -115.369216
 Sum of electronic and thermal Enthalpies=            -115.368271
 Sum of electronic and thermal Free Energies=         -115.398116

                     E (Thermal)             CV                S
                      KCal/Mol        Cal/Mol-Kelvin    Cal/Mol-Kelvin
 Total                   26.395             11.407             62.813
 Electronic               0.000              0.000              2.183
 Translational            0.889              2.981             36.324
 Rotational               0.889              2.981             20.797
 Vibrational             24.617              5.445              3.509
 Vibration     1          0.657              1.782              1.814
 Vibration     2          0.746              1.522              1.057

                           ! Non-Optimized Parameters !
 Normal termination of Gaussian 16 at Sun Oct 11 11:25:58 2020.
