 Gaussian 16, Revision A.03,

 ----------------------------------------------------------------------
 #P Opt(TS,MaxCyc=50,NoEigenTest,MaxStep=10,AddRedundant) PBEPBE/6-31G*
  5D 7F Integral=UltraFineGrid SCF=(NoSymm,XQC,MaxCyc=120) EmpiricalDis
 persion=GD3BJ IOp(1/33=1)
 ----------------------------------------------------------------------

 TstMul:  Mul=     2
 TstMul:  ICh=     0
 TstMul:  Mul=     2
 Symbolic Z-matrix:
 Charge =  0 Multiplicity = 2

 SCF Done:  E(UPBE-PBE) =  -132.125848205     A.U. after   16 cycles
 SCF Done:  E(UPBE-PBE) =  -132.126319365     A.U. after   13 cycles
 SCF Done:  E(UPBE-PBE) =  -132.125822477     A.U. after   14 cycles
 SCF Done:  E(UPBE-PBE) =  -132.125552860     A.U. after   13 cycles
 SCF Done:  E(UPBE-PBE) =  -132.125187973     A.U. after   15 cycles
 SCF Done:  E(UPBE-PBE) =  -132.125232762     A.U. after   13 cycles
 SCF Done:  E(UPBE-PBE) =  -132.125272662     A.U. after   13 cycles
 SCF Done:  E(UPBE-PBE) =  -132.125307476     A.U. after   14 cycles
 SCF Done:  E(UPBE-PBE) =  -132.125391516     A.U. after   14 cycles
 SCF Done:  E(UPBE-PBE) =  -132.125476179     A.U. after   14 cycles
 SCF Done:  E(UPBE-PBE) =  -132.126229434     A.U. after   14 cycles
 SCF Done:  E(UPBE-PBE) =  -132.126242372     A.U. after   13 cycles
 SCF Done:  E(UPBE-PBE) =  -132.126271180     A.U. after   13 cycles
 SCF Done:  E(UPBE-PBE) =  -132.126267829     A.U. after   13 cycles
 SCF Done:  E(UPBE-PBE) =  -132.126267662     A.U. after   13 cycles
 SCF Done:  E(UPBE-PBE) =  -132.126271786     A.U. after   11 cycles
 SCF Done:  E(UPBE-PBE) =  -132.126272204     A.U. after   10 cycles
 SCF Done:  E(UPBE-PBE) =  -132.126272177     A.U. after   10 cycles
 SCF Done:  E(UPBE-PBE) =  -132.126272175     A.U. after   10 cycles
 Optimization completed.
    -- Stationary point found.
 Normal termination of Gaussian 16 at Wed Oct  7 13:00:30 2020.
 Gaussian 16:  ES64L-G16RevA.03 25-Dec-2016

 ----------------------------------------------------------------------
 #P Freq PBEPBE/6-31G* 5D 7F Integral=UltraFineGrid SCF=(NoSymm,XQC,Max
 Cyc=120) EmpiricalDispersion=GD3BJ IOp(1/33=1) Geom=Check Guess=Read
 ----------------------------------------------------------------------

 TstMul:  Mul=     2
 TstMul:  ICh=     0
 TstMul:  Mul=     2
 Structure from the checkpoint file:  "MN_83_RKT07_BH76_PBEDBJ_631Gs.chk"
 Charge =  0 Multiplicity = 2

                         Standard orientation:
 ---------------------------------------------------------------------
 Center     Atomic      Atomic             Coordinates (Angstroms)
 Number     Number       Type             X           Y           Z
 ---------------------------------------------------------------------
      1          7           0       -1.209598   -0.094894    0.000964
      2          8           0        1.246177   -0.084891    0.000387
      3          1           0       -1.279947    0.510747    0.826225
      4          1           0       -1.280578    0.494859   -0.835682
      5          1           0       -0.261703   -0.559143    0.004947
      6          1           0        1.320000    0.896919   -0.005327
 ---------------------------------------------------------------------

 SCF Done:  E(UPBE-PBE) =  -132.126272175     A.U. after    1 cycles

 The electronic state is 2-A.
 Alpha  occ. eigenvalues --  -18.76273 -14.01227  -0.86549  -0.79558  -0.44778
 Alpha  occ. eigenvalues --   -0.44093  -0.36006  -0.28800  -0.23035  -0.21810
 Alpha virt. eigenvalues --    0.03522   0.09029   0.11461   0.20452   0.58763
 Alpha virt. eigenvalues --    0.61413   0.63036   0.74091   0.78098   0.82357
 Alpha virt. eigenvalues --    0.86618   0.87031   0.93248   1.04364   1.17950

  Beta  occ. eigenvalues --  -18.74677 -14.00584  -0.83080  -0.77951  -0.43747
  Beta  occ. eigenvalues --   -0.43655  -0.34457  -0.24447  -0.20159
  Beta virt. eigenvalues --   -0.16723   0.04060   0.09570   0.11656   0.21131
  Beta virt. eigenvalues --    0.60157   0.61663   0.64948   0.74701   0.80261
  Beta virt. eigenvalues --    0.82717   0.87197   0.88128   0.95412   1.07091

 Mulliken charges and spin densities:
               1          2
     1  N   -0.825641   0.347601
     2  O   -0.600278   0.710809
     3  H    0.325385  -0.010861
     4  H    0.325453  -0.010861
     5  H    0.403648  -0.016181
     6  H    0.371434  -0.020507
 Sum of Mulliken charges =   0.00000   1.00000

 Dipole moment (field-independent basis, Debye):
    X=             -1.0059    Y=              2.6172    Z=             -0.0196  Tot=              2.8039
 Quadrupole moment (field-independent basis, Debye-Ang):
   XX=            -15.4282   YY=            -11.6679   ZZ=            -12.3544
   XY=             -0.2532   XZ=              0.0127   YZ=              0.0012

  Exact polarizability:  42.083   1.575  13.880  -0.010  -0.006  11.652
 Approx polarizability: 127.717   3.628  20.590  -0.051  -0.018  15.923

 ******    1 imaginary frequencies (negative Signs) ******

                      1                      2                      3
                      A                      A                      A
 Frequencies --   -301.4386               292.1715               325.0458
 Red. masses --      1.0814                 1.4701                 1.8790
 Frc consts  --      0.0579                 0.0739                 0.1170
 IR Inten    --     67.3863                18.9741                53.9891

                      4                      5                      6
                      A                      A                      A
 Frequencies --    402.2686               592.2045              1008.2920
 Red. masses --      1.0128                 1.1669                 1.1908
 Frc consts  --      0.0966                 0.2411                 0.7133
 IR Inten    --     20.3562               139.0406               299.0308

                      7                      8                      9
                      A                      A                      A
 Frequencies --   1537.9336              1652.5395              2942.6200
 Red. masses --      1.0700                 1.0705                 1.0610
 Frc consts  --      1.4911                 1.7224                 5.4128
 IR Inten    --     34.3992                19.5311                54.5068

                     10                     11                     12
                      A                      A                      A
 Frequencies --   3434.4192              3528.2884              3596.3950
 Red. masses --      1.0564                 1.0916                 1.0670
 Frc consts  --      7.3418                 8.0063                 8.1309
 IR Inten    --      6.3738                 4.4256                 8.8809

 - Thermochemistry -
 -------------------
 Temperature   298.150 Kelvin.  Pressure   1.00000 Atm.
 Atom     1 has atomic number  7 and mass  14.00307

 Molecular mass:    34.02929 amu.
 Principal axes and moments of inertia in atomic units:
                           1         2         3
     Eigenvalues --    11.48667 184.92423 186.46989
           X            1.00000  -0.00034   0.00010
           Y            0.00034   1.00000   0.00118
           Z           -0.00010  -0.00118   1.00000
 This molecule is an asymmetric top.
 Rotational symmetry number  1.
 Rotational temperatures (Kelvin)      7.54039     0.46838     0.46449
 Rotational constants (GHZ):         157.11615     9.75935     9.67846
    1 imaginary frequencies ignored.
 Zero-point vibrational energy     115512.5 (Joules/Mol)
                                   27.60814 (Kcal/Mol)
 Warning -- explicit consideration of   4 degrees of freedom as
           vibrations may cause significant error
 Vibrational temperatures:    420.37   467.67   578.77   852.05  1450.71
          (Kelvin)           2212.74  2377.64  4233.77  4941.36  5076.42
                             5174.41

 Zero-point correction=                           0.043996 (Hartree/Particle)
 Thermal correction to Energy=                    0.048163
 Thermal correction to Enthalpy=                  0.049107
 Thermal correction to Gibbs Free Energy=         0.019286
 Sum of electronic and zero-point Energies=           -132.082276
 Sum of electronic and thermal Energies=              -132.078110
 Sum of electronic and thermal Enthalpies=            -132.077165
 Sum of electronic and thermal Free Energies=         -132.106986

                     E (Thermal)             CV                S
                      KCal/Mol        Cal/Mol-Kelvin    Cal/Mol-Kelvin
 Total                   30.223             12.267             62.762
 Electronic               0.000              0.000              1.377
 Translational            0.889              2.981             36.505
 Rotational               0.889              2.981             20.610
 Vibrational             28.445              6.305              4.270
 Vibration     1          0.688              1.688              1.461
 Vibration     2          0.709              1.625              1.285
 Vibration     3          0.768              1.465              0.954
 Vibration     4          0.950              1.048              0.463

                           ! Non-Optimized Parameters !
 Normal termination of Gaussian 16 at Wed Oct  7 13:01:00 2020.
