 Gaussian 16, Revision A.03,

 ----------------------------------------------------------------------
 #P Opt(TS,MaxCyc=50,NoEigenTest,MaxStep=10,AddRedundant) PBEPBE/6-31G*
  5D 7F Integral=UltraFineGrid SCF=(NoSymm,XQC,MaxCyc=120) EmpiricalDis
 persion=GD3BJ IOp(1/33=1)
 ----------------------------------------------------------------------

 TstMul:  Mul=     2
 TstMul:  ICh=     0
 TstMul:  Mul=     2
 Symbolic Z-matrix:
 Charge =  0 Multiplicity = 2

 SCF Done:  E(UPBE-PBE) =  -40.9263226568     A.U. after   12 cycles
 SCF Done:  E(UPBE-PBE) =  -40.9268870687     A.U. after   11 cycles
 SCF Done:  E(UPBE-PBE) =  -40.9272675424     A.U. after   11 cycles
 SCF Done:  E(UPBE-PBE) =  -40.9267490710     A.U. after   11 cycles
 SCF Done:  E(UPBE-PBE) =  -40.9263225546     A.U. after   11 cycles
 SCF Done:  E(UPBE-PBE) =  -40.9261195360     A.U. after   11 cycles
 SCF Done:  E(UPBE-PBE) =  -40.9261026722     A.U. after   11 cycles
 SCF Done:  E(UPBE-PBE) =  -40.9261037612     A.U. after    8 cycles
 Optimization completed.
    -- Stationary point found.

 1\1\GINC-NODE23\FTS\UPBEPBE\6-31G(d)\C1H5(2)\RPEVERATI\07-Oct-2020\0\\
 #P Opt(TS,MaxCyc=50,NoEigenTest,MaxStep=10,AddRedundant) PBEPBE/6-31G*
  5D 7F Integral=UltraFineGrid SCF=(NoSymm,XQC,MaxCyc=120) EmpiricalDis
 persion=GD3BJ IOp(1/33=1)\\TS search on BH76.\\0,2\C,0.0010113879,0.31
 76482947,0.\H,1.073270721,0.5394310561,0.\H,-0.5350616558,0.5404374452
 ,0.928448001\H,-0.5350616558,0.5404374452,-0.928448001\H,-0.0020560531
 ,-1.1888776601,0.\H,-0.0026274451,-2.0560619528,0.\\Version=ES64L-G16R
 evA.03\State=2-A'\HF=-40.9261038\S2=0.755638\S2-1=0.\S2A=0.750016\RMSD

 Normal termination of Gaussian 16 at Wed Oct  7 12:55:59 2020.
 Gaussian 16:  ES64L-G16RevA.03 25-Dec-2016

 ----------------------------------------------------------------------
 #P Freq PBEPBE/6-31G* 5D 7F Integral=UltraFineGrid SCF=(NoSymm,XQC,Max
 Cyc=120) EmpiricalDispersion=GD3BJ IOp(1/33=1) Geom=Check Guess=Read
 ----------------------------------------------------------------------

 TstMul:  Mul=     2
 TstMul:  ICh=     0
 TstMul:  Mul=     2
 Structure from the checkpoint file:  "MN_80_RKT03_BH76_PBEDBJ_631Gs.chk"
 Charge =  0 Multiplicity = 2

                         Standard orientation:
 ---------------------------------------------------------------------
 Center     Atomic      Atomic             Coordinates (Angstroms)
 Number     Number       Type             X           Y           Z
 ---------------------------------------------------------------------
      1          6           0        0.000000    0.292080    0.000000
      2          1           0        1.071802    0.516063    0.000000
      3          1           0       -0.536529    0.513769    0.928448
      4          1           0       -0.536529    0.513769   -0.928448
      5          1           0        0.000024   -1.214449    0.000000
      6          1           0        0.001232   -2.081633    0.000000
 ---------------------------------------------------------------------

 SCF Done:  E(UPBE-PBE) =  -40.9261037612     A.U. after    1 cycles

 The electronic state is 2-A'.
 Alpha  occ. eigenvalues --   -9.90075  -0.62602  -0.38889  -0.36636  -0.36632
 Alpha  occ. eigenvalues --   -0.17394
 Alpha virt. eigenvalues --    0.08837   0.14314   0.14316   0.16213   0.49593
 Alpha virt. eigenvalues --    0.49595   0.51851   0.64502   0.84127   0.84133
 Alpha virt. eigenvalues --    0.86469   0.98451   1.14144   1.56664   1.56664

  Beta  occ. eigenvalues --   -9.88976  -0.60124  -0.36056  -0.35827  -0.35823
  Beta virt. eigenvalues --   -0.10335   0.09860   0.15020   0.15021   0.19194
  Beta virt. eigenvalues --    0.50335   0.50337   0.56957   0.67548   0.84814
  Beta virt. eigenvalues --    0.84820   0.88648   0.99455   1.17095   1.61603

 Mulliken charges and spin densities:
               1          2
     1  C   -0.562463   0.788134
     2  H    0.189995  -0.026499
     3  H    0.190008  -0.026477
     4  H    0.190008  -0.026477
     5  H    0.000406  -0.114255
     6  H   -0.007954   0.405576
 Sum of Mulliken charges =  -0.00000   1.00000

 Dipole moment (field-independent basis, Debye):
    X=             -0.0008    Y=              0.6995    Z=             -0.0000  Tot=              0.6995
 Quadrupole moment (field-independent basis, Debye-Ang):
   XX=             -9.1880   YY=            -11.1443   ZZ=             -9.1889
   XY=              0.0026   XZ=              0.0000   YZ=              0.0000

  Exact polarizability:  12.473  -0.006  28.531   0.000  -0.000  12.473
 Approx polarizability:  16.807  -0.008  42.550   0.000  -0.000  16.807

 ******    1 imaginary frequencies (negative Signs) ******

                      1                      2                      3
                     A'                     A'                     A"
 Frequencies --   -759.4007               525.7567               526.2516
 Red. masses --      1.2149                 1.0450                 1.0450
 Frc consts  --      0.4128                 0.1702                 0.1705
 IR Inten    --      5.2678                 1.5445                 1.5492

                      4                      5                      6
                     A'                     A'                     A"
 Frequencies --    977.2591              1076.0543              1076.0890
 Red. masses --      1.0837                 1.0362                 1.0363
 Frc consts  --      0.6098                 0.7069                 0.7071
 IR Inten    --     14.3601                 0.9812                 0.9920

                      7                      8                      9
                     A"                     A'                     A'
 Frequencies --   1403.8575              1404.0397              2258.3100
 Red. masses --      1.0837                 1.0837                 1.0319
 Frc consts  --      1.2583                 1.2587                 3.1007
 IR Inten    --      4.3327                 4.3248                54.9011

                     10                     11                     12
                     A'                     A"                     A'
 Frequencies --   3047.7790              3201.8414              3202.2512
 Red. masses --      1.0150                 1.1134                 1.1134
 Frc consts  --      5.5551                 6.7252                 6.7272
 IR Inten    --      0.0093                 8.2310                 8.2093

 - Thermochemistry -
 -------------------
 Temperature   298.150 Kelvin.  Pressure   1.00000 Atm.
 Atom     1 has atomic number  6 and mass  12.00000

 Molecular mass:    17.03913 amu.
 Principal axes and moments of inertia in atomic units:
                           1         2         3
     Eigenvalues --    12.41125  32.98878  32.99042
           X           -0.00014   1.00000   0.00000
           Y            1.00000   0.00014   0.00000
           Z            0.00000   0.00000   1.00000
 This molecule is an asymmetric top.
 Rotational symmetry number  1.
 Rotational temperatures (Kelvin)      6.97866     2.62556     2.62543
 Rotational constants (GHZ):         145.41172    54.70773    54.70500
    1 imaginary frequencies ignored.
 Zero-point vibrational energy     111847.8 (Joules/Mol)
                                   26.73226 (Kcal/Mol)
 Warning -- explicit consideration of   2 degrees of freedom as
           vibrations may cause significant error
 Vibrational temperatures:    756.45   757.16  1406.06  1548.20  1548.25
          (Kelvin)           2019.84  2020.10  3249.20  4385.07  4606.74
                             4607.33

 Zero-point correction=                           0.042601 (Hartree/Particle)
 Thermal correction to Energy=                    0.045954
 Thermal correction to Enthalpy=                  0.046898
 Thermal correction to Gibbs Free Energy=         0.020984
 Sum of electronic and zero-point Energies=            -40.883503
 Sum of electronic and thermal Energies=               -40.880150
 Sum of electronic and thermal Enthalpies=             -40.879205
 Sum of electronic and thermal Free Energies=          -40.905120

                     E (Thermal)             CV                S
                      KCal/Mol        Cal/Mol-Kelvin    Cal/Mol-Kelvin
 Total                   28.837              9.565             54.542
 Electronic               0.000              0.000              1.377
 Translational            0.889              2.981             34.443
 Rotational               0.889              2.981             17.253
 Vibrational             27.059              3.603              1.468
 Vibration     1          0.881              1.193              0.597
 Vibration     2          0.881              1.192              0.596

                           ! Non-Optimized Parameters !
 Normal termination of Gaussian 16 at Wed Oct  7 12:56:23 2020.
