 Gaussian 16, Revision A.03,

 ----------------------------------------------------------------------
 #P Opt(TS,MaxCyc=50,NoEigenTest,MaxStep=10,AddRedundant) PBEPBE/6-31G*
  5D 7F Integral=UltraFineGrid SCF=(NoSymm,XQC,MaxCyc=120) EmpiricalDis
 persion=GD3BJ IOp(1/33=1)
 ----------------------------------------------------------------------

 TstMul:  Mul=     3
 TstMul:  ICh=     0
 TstMul:  Mul=     3
 Symbolic Z-matrix:
 Charge =  0 Multiplicity = 3

 SCF Done:  E(UPBE-PBE) =  -76.1297418828     A.U. after   11 cycles
 SCF Done:  E(UPBE-PBE) =  -76.1299161973     A.U. after   10 cycles
 SCF Done:  E(UPBE-PBE) =  -76.1299299642     A.U. after    9 cycles
 SCF Done:  E(UPBE-PBE) =  -76.1299402397     A.U. after    9 cycles
 SCF Done:  E(UPBE-PBE) =  -76.1298751652     A.U. after   12 cycles
 SCF Done:  E(UPBE-PBE) =  -76.1298958038     A.U. after    9 cycles
 SCF Done:  E(UPBE-PBE) =  -76.1299047559     A.U. after   11 cycles
 SCF Done:  E(UPBE-PBE) =  -76.1298940909     A.U. after    9 cycles
 Optimization completed.
    -- Stationary point found.

 1\1\GINC-NODE55\FTS\UPBEPBE\6-31G(d)\H2O1(3)\RPEVERATI\07-Oct-2020\0\\
 #P Opt(TS,MaxCyc=50,NoEigenTest,MaxStep=10,AddRedundant) PBEPBE/6-31G*
  5D 7F Integral=UltraFineGrid SCF=(NoSymm,XQC,MaxCyc=120) EmpiricalDis
 persion=GD3BJ IOp(1/33=1)\\TS search on BH76.\\0,3\H,0.,0.,-0.84390300
 44\O,0.,0.,0.3365592709\H,0.,0.,-1.7958286376\\Version=ES64L-G16RevA.0
 3\HF=-76.1298941\S2=2.007001\S2-1=0.\S2A=2.00001\RMSD=4.852e-09\RMSF=2
 .443e-05\Dipole=0.,0.,-0.4533218\Quadrupole=-0.6704914,0.1728618,0.497
 6296,0.,0.,0.\PG=C*V [C*(H1H1O1)]\\@

 Normal termination of Gaussian 16 at Wed Oct  7 12:56:27 2020.
 Gaussian 16:  ES64L-G16RevA.03 25-Dec-2016

 ----------------------------------------------------------------------
 #P Freq PBEPBE/6-31G* 5D 7F Integral=UltraFineGrid SCF=(NoSymm,XQC,Max
 Cyc=120) EmpiricalDispersion=GD3BJ IOp(1/33=1) Geom=Check Guess=Read
 ----------------------------------------------------------------------

 TstMul:  Mul=     3
 TstMul:  ICh=     0
 TstMul:  Mul=     3
 Structure from the checkpoint file:  "MN_89_RKT14_BH76_PBEDBJ_631Gs.chk"
 Charge =  0 Multiplicity = 3

                         Standard orientation:
 ---------------------------------------------------------------------
 Center     Atomic      Atomic             Coordinates (Angstroms)
 Number     Number       Type             X           Y           Z
 ---------------------------------------------------------------------
      1          1           0        0.000000    0.000000   -0.849177
      2          8           0        0.000000    0.000000    0.331285
      3          1           0        0.000000    0.000000   -1.801103
 ---------------------------------------------------------------------

 SCF Done:  E(UPBE-PBE) =  -76.1298940909     A.U. after    1 cycles

 Unable to determine electronic state:  partially filled degenerate orbitals.
 Alpha  occ. eigenvalues --  -18.85191  -0.89958  -0.46706  -0.35260  -0.28068
 Alpha  occ. eigenvalues --   -0.27463
 Alpha virt. eigenvalues --    0.14219   0.58948   0.72702   0.75676   0.80686
 Alpha virt. eigenvalues --    0.88220   1.30512   1.61447   1.66557   1.67414
 Alpha virt. eigenvalues --    1.67444   2.08755
  Beta  occ. eigenvalues --  -18.81725  -0.81091  -0.40946  -0.23957
  Beta virt. eigenvalues --   -0.20700  -0.18446   0.18770   0.62215   0.79993
  Beta virt. eigenvalues --    0.82994   0.85710   0.93370   1.37296   1.70319
  Beta virt. eigenvalues --    1.71777   1.74278   1.75830   2.14743

 Mulliken charges and spin densities:
               1          2
     1  H    0.219092  -0.082071
     2  O   -0.250697   1.497135
     3  H    0.031606   0.584936
 Sum of Mulliken charges =   0.00000   2.00000

 Dipole moment (field-independent basis, Debye):
    X=              0.0000    Y=              0.0000    Z=             -1.1522  Tot=              1.1522
 Quadrupole moment (field-independent basis, Debye-Ang):
   XX=             -7.7134   YY=             -6.5791   ZZ=             -6.1423
   XY=             -0.0000   XZ=              0.0000   YZ=              0.0000

  Exact polarizability:   2.319  -0.000   2.660   0.000  -0.000  20.245
 Approx polarizability:   2.618  -0.000   3.600  -0.000  -0.000  35.963

 ******    1 imaginary frequencies (negative Signs) ******

                      1                      2                      3
                     SG                     PI                     PI
 Frequencies --   -924.8728               319.7357               890.1736
 Red. masses --      1.0475                 1.0169                 1.0169
 Frc consts  --      0.5279                 0.0613                 0.4748
 IR Inten    --    152.7157                20.1982                14.3210

                      4
                     SG
 Frequencies --   1545.1462
 Red. masses --      1.0802
 Frc consts  --      1.5194
 IR Inten    --     42.0529

 - Thermochemistry -
 -------------------
 Temperature   298.150 Kelvin.  Pressure   1.00000 Atm.
 Atom     1 has atomic number  1 and mass   1.00783

 Molecular mass:    18.01056 amu.
 Principal axes and moments of inertia in atomic units:
                           1         2         3
     Eigenvalues --     0.00000  19.16990  19.16990
           X            0.00000   0.00000   1.00000
           Y            0.00000   1.00000   0.00000
           Z            1.00000   0.00000   0.00000
 This molecule is a prolate symmetric top.
 Rotational symmetry number  1.
 Rotational temperature (Kelvin)      4.51823
 Rotational constant (GHZ):          94.144552
    1 imaginary frequencies ignored.
 Zero-point vibrational energy      16478.9 (Joules/Mol)
                                    3.93855 (Kcal/Mol)
 Warning -- explicit consideration of   1 degrees of freedom as
           vibrations may cause significant error
 Vibrational temperatures:    460.03  1280.76  2223.12
          (Kelvin)

 Zero-point correction=                           0.006276 (Hartree/Particle)
 Thermal correction to Energy=                    0.009093
 Thermal correction to Enthalpy=                  0.010037
 Thermal correction to Gibbs Free Energy=        -0.013040
 Sum of electronic and zero-point Energies=            -76.123618
 Sum of electronic and thermal Energies=               -76.120801
 Sum of electronic and thermal Enthalpies=             -76.119857
 Sum of electronic and thermal Free Energies=          -76.142934

                     E (Thermal)             CV                S
                      KCal/Mol        Cal/Mol-Kelvin    Cal/Mol-Kelvin
 Total                    5.706              7.181             48.570
 Electronic               0.000              0.000              2.183
 Translational            0.889              2.981             34.608
 Rotational               0.592              1.987             10.313
 Vibrational              4.225              2.213              1.466
 Vibration     1          0.706              1.636              1.311

 Optimization completed.
    -- Stationary point found.
 Normal termination of Gaussian 16 at Wed Oct  7 12:56:50 2020.
