 Gaussian 16, Revision A.03,

 ----------------------------------------------------------------------
 #P Opt(TS,MaxCyc=50,NoEigenTest,MaxStep=10,AddRedundant) PBEPBE/6-31G*
  5D 7F Integral=UltraFineGrid SCF=(NoSymm,XQC,MaxCyc=120) EmpiricalDis
 persion=GD3BJ IOp(1/33=1)
 ----------------------------------------------------------------------

 TstMul:  Mul=     2
 TstMul:  ICh=     0
 TstMul:  Mul=     2
 Symbolic Z-matrix:
 Charge =  0 Multiplicity = 2

 SCF Done:  E(UPBE-PBE) =  -100.787816196     A.U. after   15 cycles
 SCF Done:  E(UPBE-PBE) =  -100.787732790     A.U. after   12 cycles
 SCF Done:  E(UPBE-PBE) =  -100.787632293     A.U. after   10 cycles
 SCF Done:  E(UPBE-PBE) =  -100.787814153     A.U. after   12 cycles
 SCF Done:  E(UPBE-PBE) =  -100.788460960     A.U. after   12 cycles
 SCF Done:  E(UPBE-PBE) =  -100.787843723     A.U. after   12 cycles
 SCF Done:  E(UPBE-PBE) =  -100.787395553     A.U. after   12 cycles
 SCF Done:  E(UPBE-PBE) =  -100.786969535     A.U. after   12 cycles
 SCF Done:  E(UPBE-PBE) =  -100.786581981     A.U. after   12 cycles
 SCF Done:  E(UPBE-PBE) =  -100.786241427     A.U. after   12 cycles
 SCF Done:  E(UPBE-PBE) =  -100.785390197     A.U. after   12 cycles
 SCF Done:  E(UPBE-PBE) =  -100.785298671     A.U. after   12 cycles
 SCF Done:  E(UPBE-PBE) =  -100.785249066     A.U. after   12 cycles
 SCF Done:  E(UPBE-PBE) =  -100.785236459     A.U. after   12 cycles
 SCF Done:  E(UPBE-PBE) =  -100.785255911     A.U. after   12 cycles
 SCF Done:  E(UPBE-PBE) =  -100.785293937     A.U. after   11 cycles
 SCF Done:  E(UPBE-PBE) =  -100.785294443     A.U. after   11 cycles
 SCF Done:  E(UPBE-PBE) =  -100.785294760     A.U. after   11 cycles
 SCF Done:  E(UPBE-PBE) =  -100.785293316     A.U. after    8 cycles
 Optimization completed.
    -- Stationary point found.

 1\1\GINC-NODE62\FTS\UPBEPBE\6-31G(d)\F1H2(2)\RPEVERATI\07-Oct-2020\0\\
 #P Opt(TS,MaxCyc=50,NoEigenTest,MaxStep=10,AddRedundant) PBEPBE/6-31G*
  5D 7F Integral=UltraFineGrid SCF=(NoSymm,XQC,MaxCyc=120) EmpiricalDis
 persion=GD3BJ IOp(1/33=1)\\TS search on BH76.\\0,2\H,0.4710338938,-1.3
 637586175,0.\F,-0.1630308609,0.200481638,0.\H,-0.308003033,-1.48010236
 2,0.\\Version=ES64L-G16RevA.03\State=2-A'\HF=-100.7852933\S2=0.75086\S
 2-1=0.\S2A=0.750001\RMSD=6.543e-09\RMSF=2.840e-05\Dipole=0.0731399,-0.
 4860772,0.\Quadrupole=-0.2666243,0.8819819,-0.6153576,-0.1771657,0.,0.

 Normal termination of Gaussian 16 at Wed Oct  7 13:01:46 2020.
 Gaussian 16:  ES64L-G16RevA.03 25-Dec-2016

 ----------------------------------------------------------------------
 #P Freq PBEPBE/6-31G* 5D 7F Integral=UltraFineGrid SCF=(NoSymm,XQC,Max
 Cyc=120) EmpiricalDispersion=GD3BJ IOp(1/33=1) Geom=Check Guess=Read
 ----------------------------------------------------------------------

 TstMul:  Mul=     2
 TstMul:  ICh=     0
 TstMul:  Mul=     2
 Structure from the checkpoint file:  "MN_86_RKT10_BH76_PBEDBJ_631Gs.chk"
 Charge =  0 Multiplicity = 2

                         Standard orientation:
 ---------------------------------------------------------------------
 Center     Atomic      Atomic             Coordinates (Angstroms)
 Number     Number       Type             X           Y           Z
 ---------------------------------------------------------------------
      1          1           0        0.393838   -1.342957   -0.000000
      2          9           0        0.000000    0.298316    0.000000
      3          1           0       -0.393838   -1.341888   -0.000000
 ---------------------------------------------------------------------

 SCF Done:  E(UPBE-PBE) =  -100.785293316     A.U. after    1 cycles

 The electronic state is 2-A'.
 Alpha  occ. eigenvalues --  -24.27352  -1.03564  -0.48101  -0.32248  -0.32014
 Alpha  occ. eigenvalues --   -0.31520
 Alpha virt. eigenvalues --    0.04262   0.52766   0.94942   1.11691   1.13432
 Alpha virt. eigenvalues --    1.16867   1.34827   1.75940   1.77201   1.78677
 Alpha virt. eigenvalues --    1.80327   1.80354
  Beta  occ. eigenvalues --  -24.25064  -0.98068  -0.43406  -0.29992  -0.29247
  Beta virt. eigenvalues --   -0.22757   0.05890   0.54651   0.97583   1.13141
  Beta virt. eigenvalues --    1.18380   1.20741   1.38518   1.80184   1.80935
  Beta virt. eigenvalues --    1.80956   1.82881   1.83073

 Mulliken charges and spin densities:
               1          2
     1  H    0.085248   0.110940
     2  F   -0.170740   0.778690
     3  H    0.085492   0.110370
 Sum of Mulliken charges =  -0.00000   1.00000

 Dipole moment (field-independent basis, Debye):
    X=             -0.0003    Y=             -1.2494    Z=             -0.0000  Tot=              1.2494
 Quadrupole moment (field-independent basis, Debye-Ang):
   XX=             -6.2488   YY=             -4.6320   ZZ=             -6.6819
   XY=             -0.0000   XZ=             -0.0000   YZ=              0.0000

  Exact polarizability:   7.331  -0.006  12.835  -0.000   0.000   1.607
 Approx polarizability:  10.340  -0.011  22.979  -0.000   0.000   1.916

 ******    1 imaginary frequencies (negative Signs) ******

                      1                      2                      3
                     A'                     A'                     A'
 Frequencies --   -583.0099               581.0070              3773.9503
 Red. masses --      1.0133                 1.1082                 1.0081
 Frc consts  --      0.2029                 0.2204                 8.4597
 IR Inten    --      3.6628                18.7496                96.7783

 - Thermochemistry -
 -------------------
 Temperature   298.150 Kelvin.  Pressure   1.00000 Atm.
 Atom     1 has atomic number  1 and mass   1.00783

 Molecular mass:    21.01405 amu.
 Principal axes and moments of inertia in atomic units:
                           1         2         3
     Eigenvalues --     1.11647  17.51859  18.63506
           X           -0.00009   1.00000   0.00000
           Y            1.00000   0.00009   0.00000
           Z           -0.00000   0.00000   1.00000
 This molecule is an asymmetric top.
 Rotational symmetry number  1.
 Rotational temperatures (Kelvin)     77.57822     4.94412     4.64790
 Rotational constants (GHZ):        1616.46772   103.01864    96.84654
    1 imaginary frequencies ignored.
 Zero-point vibrational energy      26048.4 (Joules/Mol)
                                    6.22572 (Kcal/Mol)
 Warning -- explicit consideration of   1 degrees of freedom as
           vibrations may cause significant error
 Vibrational temperatures:    835.94  5429.87
          (Kelvin)

 Zero-point correction=                           0.009921 (Hartree/Particle)
 Thermal correction to Energy=                    0.012925
 Thermal correction to Enthalpy=                  0.013869
 Thermal correction to Gibbs Free Energy=        -0.010169
 Sum of electronic and zero-point Energies=           -100.775372
 Sum of electronic and thermal Energies=              -100.772369
 Sum of electronic and thermal Enthalpies=            -100.771425
 Sum of electronic and thermal Free Energies=         -100.795463

                     E (Thermal)             CV                S
                      KCal/Mol        Cal/Mol-Kelvin    Cal/Mol-Kelvin
 Total                    8.110              7.034             50.593
 Electronic               0.000              0.000              1.377
 Translational            0.889              2.981             35.068
 Rotational               0.889              2.981             13.664
 Vibrational              6.333              1.072              0.483
 Vibration     1          0.938              1.072              0.483

 Optimization completed.
    -- Stationary point found.
 Normal termination of Gaussian 16 at Wed Oct  7 13:02:22 2020.
