 Gaussian 16, Revision A.03,

 ----------------------------------------------------------------------
 #P Opt(TS,MaxCyc=50,NoEigenTest,MaxStep=10,AddRedundant) PBEPBE/6-31G*
  5D 7F Integral=UltraFineGrid SCF=(NoSymm,XQC,MaxCyc=120) EmpiricalDis
 persion=GD3BJ IOp(1/33=1)
 ----------------------------------------------------------------------

 TstMul:  Mul=     2
 TstMul:  ICh=     0
 TstMul:  Mul=     2
 Symbolic Z-matrix:
 Charge =  0 Multiplicity = 2

 SCF Done:  E(UPBE-PBE) =  -1.65351037129     A.U. after    9 cycles
 SCF Done:  E(UPBE-PBE) =  -1.65358179944     A.U. after    7 cycles
 SCF Done:  E(UPBE-PBE) =  -1.65358605352     A.U. after    7 cycles
 Optimization completed.
    -- Stationary point found.
 Normal termination of Gaussian 16 at Wed Oct  7 12:55:04 2020.
 Gaussian 16:  ES64L-G16RevA.03 25-Dec-2016

 ----------------------------------------------------------------------
 #P Freq PBEPBE/6-31G* 5D 7F Integral=UltraFineGrid SCF=(NoSymm,XQC,Max
 Cyc=120) EmpiricalDispersion=GD3BJ IOp(1/33=1) Geom=Check Guess=Read
 ----------------------------------------------------------------------

 TstMul:  Mul=     2
 TstMul:  ICh=     0
 TstMul:  Mul=     2
 Structure from the checkpoint file:  "MN_82_RKT06_BH76_PBEDBJ_631Gs.chk"
 Charge =  0 Multiplicity = 2

                         Standard orientation:
 ---------------------------------------------------------------------
 Center     Atomic      Atomic             Coordinates (Angstroms)
 Number     Number       Type             X           Y           Z
 ---------------------------------------------------------------------
      1          1           0        0.000000    0.000000    0.000000
      2          1           0        0.000000    0.000000    0.940738
      3          1           0        0.000000    0.000000   -0.940738
 ---------------------------------------------------------------------

 SCF Done:  E(UPBE-PBE) =  -1.65358605352     A.U. after    1 cycles

 The electronic state is 2-SGU.
 Alpha  occ. eigenvalues --   -0.45098  -0.21512
 Alpha virt. eigenvalues --    0.12317   0.63493   0.71208   0.96201
  Beta  occ. eigenvalues --   -0.41051
  Beta virt. eigenvalues --   -0.11898   0.17344   0.68341   0.80183   1.00242

 Mulliken charges and spin densities:
               1          2
     1  H   -0.109514  -0.166813
     2  H    0.054757   0.583407
     3  H    0.054757   0.583407
 Sum of Mulliken charges =  -0.00000   1.00000

 Dipole moment (field-independent basis, Debye):
    X=              0.0000    Y=              0.0000    Z=              0.0000  Tot=              0.0000
 Quadrupole moment (field-independent basis, Debye-Ang):
   XX=             -3.3100   YY=             -3.3100   ZZ=             -3.2865
   XY=              0.0000   XZ=             -0.0000   YZ=              0.0000

  Exact polarizability:   0.000   0.000   0.000  -0.000   0.000  18.745
 Approx polarizability:   0.000  -0.000  -0.000  -0.000  -0.000  28.508

 ******    1 imaginary frequencies (negative Signs) ******

                      1                      2                      3
                     SGU                    PIU                    PIU
 Frequencies --   -456.4231              1072.8749              1072.8749
 Red. masses --      1.0078                 1.0078                 1.0078
 Frc consts  --      0.1237                 0.6835                 0.6835
 IR Inten    --     69.6133                 9.6766                 9.6766

                      4
                     SGG
 Frequencies --   2055.9483
 Red. masses --      1.0078
 Frc consts  --      2.5099
 IR Inten    --      0.0000

 - Thermochemistry -
 -------------------
 Temperature   298.150 Kelvin.  Pressure   1.00000 Atm.
 Atom     1 has atomic number  1 and mass   1.00783

 Molecular mass:     3.02348 amu.
 Principal axes and moments of inertia in atomic units:
                           1         2         3
     Eigenvalues --     0.00000   6.37016   6.37016
           X           -0.00000   1.00000   0.00000
           Y            0.00000   0.00000   1.00000
           Z            1.00000   0.00000   0.00000
 This molecule is a prolate symmetric top.
 Rotational symmetry number  2.
 Rotational temperature (Kelvin)     13.59681
 Rotational constant (GHZ):         283.311601
    1 imaginary frequencies ignored.
 Zero-point vibrational energy      25131.7 (Joules/Mol)
                                    6.00663 (Kcal/Mol)
 Vibrational temperatures:   1543.63  1543.63  2958.05
          (Kelvin)

 Zero-point correction=                           0.009572 (Hartree/Particle)
 Thermal correction to Energy=                    0.011989
 Thermal correction to Enthalpy=                  0.012933
 Thermal correction to Gibbs Free Energy=        -0.004910
 Sum of electronic and zero-point Energies=             -1.644014
 Sum of electronic and thermal Energies=                -1.641597
 Sum of electronic and thermal Enthalpies=              -1.640653
 Sum of electronic and thermal Free Energies=           -1.658496

                     E (Thermal)             CV                S
                      KCal/Mol        Cal/Mol-Kelvin    Cal/Mol-Kelvin
 Total                    7.523              5.586             37.552
 Electronic               0.000              0.000              1.377
 Translational            0.889              2.981             29.289
 Rotational               0.592              1.987              6.746
 Vibrational              6.042              0.618              0.140

 Optimization completed.
    -- Stationary point found.
 Normal termination of Gaussian 16 at Wed Oct  7 12:55:24 2020.
