 Gaussian 16, Revision A.03,

 ----------------------------------------------------------------------
 #P Opt(TS,MaxCyc=50,NoEigenTest,MaxStep=10,AddRedundant) PBEPBE/6-31G*
  5D 7F Integral=UltraFineGrid SCF=(NoSymm,XQC,MaxCyc=120) EmpiricalDis
 persion=GD3BJ IOp(1/33=1)
 ----------------------------------------------------------------------

 TstMul:  Mul=     2
 TstMul:  ICh=     0
 TstMul:  Mul=     2
 Symbolic Z-matrix:
 Charge =  0 Multiplicity = 2

 SCF Done:  E(UPBE-PBE) =  -135.492987138     A.U. after   14 cycles
 SCF Done:  E(UPBE-PBE) =  -135.493836440     A.U. after   12 cycles
 SCF Done:  E(UPBE-PBE) =  -135.494055472     A.U. after   12 cycles
 SCF Done:  E(UPBE-PBE) =  -135.494325936     A.U. after   12 cycles
 SCF Done:  E(UPBE-PBE) =  -135.494397974     A.U. after   12 cycles
 SCF Done:  E(UPBE-PBE) =  -135.494405971     A.U. after   10 cycles
 SCF Done:  E(UPBE-PBE) =  -135.494375046     A.U. after   12 cycles
 SCF Done:  E(UPBE-PBE) =  -135.494381812     A.U. after   10 cycles
 SCF Done:  E(UPBE-PBE) =  -135.494382642     A.U. after    8 cycles
 SCF Done:  E(UPBE-PBE) =  -135.494382634     A.U. after    9 cycles
 Optimization completed.
    -- Stationary point found.
 Normal termination of Gaussian 16 at Wed Oct  7 12:58:57 2020.
 Gaussian 16:  ES64L-G16RevA.03 25-Dec-2016

 ----------------------------------------------------------------------
 #P Freq PBEPBE/6-31G* 5D 7F Integral=UltraFineGrid SCF=(NoSymm,XQC,Max
 Cyc=120) EmpiricalDispersion=GD3BJ IOp(1/33=1) Geom=Check Guess=Read
 ----------------------------------------------------------------------

 TstMul:  Mul=     2
 TstMul:  ICh=     0
 TstMul:  Mul=     2
 Structure from the checkpoint file:  "MN_94_RKT20_BH76_PBEDBJ_631Gs.chk"
 Charge =  0 Multiplicity = 2

                         Standard orientation:
 ---------------------------------------------------------------------
 Center     Atomic      Atomic             Coordinates (Angstroms)
 Number     Number       Type             X           Y           Z
 ---------------------------------------------------------------------
      1          6           0       -1.531851   -0.424021    0.005709
      2          6           0       -0.493384    0.676708   -0.009513
      3          7           0        1.907818   -0.346240    0.019620
      4          1           0       -1.432881   -1.085505   -0.871964
      5          1           0       -1.442980   -1.050210    0.909856
      6          1           0       -2.559066   -0.008078   -0.008699
      7          1           0       -0.480369    1.283645   -0.928839
      8          1           0       -0.494568    1.321555    0.883879
      9          1           0        0.657956    0.069430    0.020354
     10          1           0        2.241900    0.091784   -0.861398
     11          1           0        2.306691    0.284934    0.742292
 ---------------------------------------------------------------------

 SCF Done:  E(UPBE-PBE) =  -135.494382634     A.U. after    1 cycles

 The electronic state is 2-A.
 Alpha  occ. eigenvalues --  -13.98623  -9.89081  -9.88155  -0.75911  -0.67932
 Alpha  occ. eigenvalues --   -0.54805  -0.40010  -0.39940  -0.38659  -0.33870
 Alpha  occ. eigenvalues --   -0.32528  -0.30173  -0.23878  -0.16967
 Alpha virt. eigenvalues --    0.05923   0.09503   0.11918   0.12506   0.13816
 Alpha virt. eigenvalues --    0.14537   0.16736   0.20573   0.26411   0.46420
 Alpha virt. eigenvalues --    0.49243   0.51837   0.56256   0.57136   0.61589

  Beta  occ. eigenvalues --  -13.97498  -9.88354  -9.88166  -0.73428  -0.67076
  Beta  occ. eigenvalues --   -0.53872  -0.39292  -0.38425  -0.38185  -0.32924
  Beta  occ. eigenvalues --   -0.31880  -0.29933  -0.21989
  Beta virt. eigenvalues --   -0.11465   0.06518   0.09868   0.12249   0.13008
  Beta virt. eigenvalues --    0.14071   0.14852   0.17165   0.21165   0.27865
  Beta virt. eigenvalues --    0.47017   0.49499   0.52384   0.57322   0.58757

 Mulliken charges and spin densities:
               1          2
     1  C   -0.470348  -0.015456
     2  C   -0.489581   0.473697
     3  N   -0.749402   0.608848
     4  H    0.171347   0.004305
     5  H    0.173023   0.004259
     6  H    0.167360   0.032305
     7  H    0.165480  -0.013064
     8  H    0.166708  -0.012455
     9  H    0.284389  -0.049452
    10  H    0.290436  -0.016478
    11  H    0.290587  -0.016508
 Sum of Mulliken charges =  -0.00000   1.00000

 Dipole moment (field-independent basis, Debye):
    X=             -0.2593    Y=              1.6858    Z=             -0.2095  Tot=              1.7184
 Quadrupole moment (field-independent basis, Debye-Ang):
   XX=            -20.5357   YY=            -23.1989   ZZ=            -20.1430
   XY=              3.6591   XZ=             -0.4369   YZ=              0.2947

  Exact polarizability:  59.261  -4.137  31.699   0.041   0.286  31.610
 Approx polarizability:  95.620 -15.072  49.857   0.515   0.353  48.458

 ******    1 imaginary frequencies (negative Signs) ******

                      1                      2                      3
                      A                      A                      A
 Frequencies --  -1223.7114                20.6377               146.0894
 Red. masses --      1.0966                 1.0851                 2.6239
 Frc consts  --      0.9675                 0.0003                 0.0330
 IR Inten    --    262.0278                47.9092                 5.9299

                      4                      5                      6
                      A                      A                      A
 Frequencies --    166.5590               425.7202               475.2760
 Red. masses --      1.0870                 1.0279                 2.2040
 Frc consts  --      0.0178                 0.1098                 0.2933
 IR Inten    --      0.4974                 2.0153                 0.6104

                      7                      8                      9
                      A                      A                      A
 Frequencies --    742.9885               766.6663               869.4794
 Red. masses --      1.1366                 1.3739                 1.0559
 Frc consts  --      0.3697                 0.4758                 0.4703
 IR Inten    --      9.9714                64.8350                 1.7100

                     10                     11                     12
                      A                      A                      A
 Frequencies --    920.8734              1043.4358              1171.1202
 Red. masses --      1.2158                 3.1115                 1.4027
 Frc consts  --      0.6075                 1.9960                 1.1335
 IR Inten    --    118.6419                 4.1892                10.4587

                     13                     14                     15
                      A                      A                      A
 Frequencies --   1205.8746              1346.7347              1381.3580
 Red. masses --      1.3949                 1.0867                 1.1950
 Frc consts  --      1.1951                 1.1613                 1.3435
 IR Inten    --      0.4428                96.5209                 0.5466

                     16                     17                     18
                      A                      A                      A
 Frequencies --   1446.3276              1467.2972              1474.3908
 Red. masses --      1.1354                 1.0322                 1.0501
 Frc consts  --      1.3994                 1.3093                 1.3449
 IR Inten    --      1.4724                 3.1100                 4.7913

                     19                     20                     21
                      A                      A                      A
 Frequencies --   1494.3064              1593.2092              2958.5893
 Red. masses --      1.0441                 1.0691                 1.0451
 Frc consts  --      1.3736                 1.5988                 5.3896
 IR Inten    --     13.0015                13.4764                21.6495

                     22                     23                     24
                      A                      A                      A
 Frequencies --   3020.4852              3033.4384              3059.6195
 Red. masses --      1.0610                 1.0820                 1.1022
 Frc consts  --      5.7033                 5.8661                 6.0792
 IR Inten    --      6.4667                33.8547                 7.9832

                     25                     26                     27
                      A                      A                      A
 Frequencies --   3097.4899              3261.2822              3369.1820
 Red. masses --      1.1087                 1.0499                 1.0877
 Frc consts  --      6.2672                 6.5792                 7.2749
 IR Inten    --     35.9276                10.7688                 6.5287

 - Thermochemistry -
 -------------------
 Temperature   298.150 Kelvin.  Pressure   1.00000 Atm.
 Atom     1 has atomic number  6 and mass  12.00000

 Molecular mass:    46.06567 amu.
 Principal axes and moments of inertia in atomic units:
                           1         2         3
     Eigenvalues --    70.04638 388.44473 425.87805
           X            0.99954   0.03017  -0.00211
           Y           -0.03015   0.99951   0.00871
           Z            0.00237  -0.00865   0.99996
 This molecule is an asymmetric top.
 Rotational symmetry number  1.
 Rotational temperatures (Kelvin)      1.23652     0.22298     0.20338
 Rotational constants (GHZ):          25.76495     4.64607     4.23769
    1 imaginary frequencies ignored.
 Zero-point vibrational energy     239004.5 (Joules/Mol)
                                   57.12344 (Kcal/Mol)
 Warning -- explicit consideration of   5 degrees of freedom as
           vibrations may cause significant error
 Vibrational temperatures:     29.69   210.19   239.64   612.52   683.82
          (Kelvin)           1068.99  1103.06  1250.99  1324.93  1501.27
                             1684.98  1734.98  1937.65  1987.47  2080.94
                             2111.11  2121.32  2149.97  2292.27  4256.75
                             4345.80  4364.44  4402.11  4456.60  4692.26
                             4847.50

 Zero-point correction=                           0.091032 (Hartree/Particle)
 Thermal correction to Energy=                    0.096961
 Thermal correction to Enthalpy=                  0.097905
 Thermal correction to Gibbs Free Energy=         0.061242
 Sum of electronic and zero-point Energies=           -135.403351
 Sum of electronic and thermal Energies=              -135.397422
 Sum of electronic and thermal Enthalpies=            -135.396478
 Sum of electronic and thermal Free Energies=         -135.433141

                     E (Thermal)             CV                S
                      KCal/Mol        Cal/Mol-Kelvin    Cal/Mol-Kelvin
 Total                   60.844             18.313             77.163
 Electronic               0.000              0.000              1.377
 Translational            0.889              2.981             37.408
 Rotational               0.889              2.981             23.964
 Vibrational             59.066             12.351             14.414
 Vibration     1          0.593              1.986              6.572
 Vibration     2          0.617              1.907              2.723
 Vibration     3          0.624              1.884              2.474
 Vibration     4          0.788              1.414              0.873
 Vibration     5          0.832              1.305              0.723

                           ! Non-Optimized Parameters !
 Normal termination of Gaussian 16 at Wed Oct  7 12:59:54 2020.
