 Gaussian 16, Revision A.03,

 ----------------------------------------------------------------------
 #P Opt(TS,MaxCyc=50,NoEigenTest,MaxStep=10,AddRedundant) PBEPBE/6-31G*
  5D 7F Integral=UltraFineGrid SCF=(NoSymm,XQC,MaxCyc=120) EmpiricalDis
 persion=GD3BJ IOp(1/33=1)
 ----------------------------------------------------------------------

 TstMul:  Mul=     3
 TstMul:  ICh=     0
 TstMul:  Mul=     3
 Symbolic Z-matrix:
 Charge =  0 Multiplicity = 3

 SCF Done:  E(UPBE-PBE) =  -535.572708330     A.U. after   18 cycles
 SCF Done:  E(UPBE-PBE) =  -535.572712509     A.U. after   11 cycles
 SCF Done:  E(UPBE-PBE) =  -535.572792392     A.U. after   11 cycles
 SCF Done:  E(UPBE-PBE) =  -535.571980710     A.U. after   14 cycles
 SCF Done:  E(UPBE-PBE) =  -535.570721318     A.U. after   15 cycles
 SCF Done:  E(UPBE-PBE) =  -535.569519977     A.U. after   15 cycles
 SCF Done:  E(UPBE-PBE) =  -535.568414245     A.U. after   14 cycles
 SCF Done:  E(UPBE-PBE) =  -535.567425333     A.U. after   15 cycles
 SCF Done:  E(UPBE-PBE) =  -535.566574480     A.U. after   17 cycles
 SCF Done:  E(UPBE-PBE) =  -535.565876639     A.U. after   18 cycles
 SCF Done:  E(UPBE-PBE) =  -535.564484250     A.U. after   12 cycles
 SCF Done:  E(UPBE-PBE) =  -535.564309912     A.U. after   19 cycles
 SCF Done:  E(UPBE-PBE) =  -535.564439987     A.U. after   19 cycles
 SCF Done:  E(UPBE-PBE) =  -535.564556199     A.U. after   18 cycles
 SCF Done:  E(UPBE-PBE) =  -535.564589995     A.U. after   21 cycles
 SCF Done:  E(UPBE-PBE) =  -535.564545500     A.U. after   18 cycles
 SCF Done:  E(UPBE-PBE) =  -535.564519259     A.U. after   19 cycles
 SCF Done:  E(UPBE-PBE) =  -535.564516346     A.U. after   18 cycles
 SCF Done:  E(UPBE-PBE) =  -535.564515893     A.U. after   13 cycles
 Optimization completed.
    -- Stationary point found.
 Normal termination of Gaussian 16 at Thu Oct  8 20:04:32 2020.
 Gaussian 16:  ES64L-G16RevA.03 25-Dec-2016

 ----------------------------------------------------------------------
 #P Freq PBEPBE/6-31G* 5D 7F Integral=UltraFineGrid SCF=(NoSymm,XQC,Max
 Cyc=120) EmpiricalDispersion=GD3BJ IOp(1/33=1) Geom=Check Guess=Read
 ----------------------------------------------------------------------

 TstMul:  Mul=     3
 TstMul:  ICh=     0
 TstMul:  Mul=     3
 Structure from the checkpoint file:  "MN_91_RKT17_BH76_PBEDBJ_631Gs.chk"
 Charge =  0 Multiplicity = 3

                         Standard orientation:
 ---------------------------------------------------------------------
 Center     Atomic      Atomic             Coordinates (Angstroms)
 Number     Number       Type             X           Y           Z
 ---------------------------------------------------------------------
      1          8           0        0.005207    2.062190    0.000000
      2         17           0        0.005207   -0.990093   -0.000000
      3          1           0       -0.130177    0.334062    0.000000
 ---------------------------------------------------------------------

 SCF Done:  E(UPBE-PBE) =  -535.564515893     A.U. after    1 cycles

 The electronic state is 3-A".
 Alpha  occ. eigenvalues -- -100.65650 -18.93995  -9.17390  -6.99741  -6.98865
 Alpha  occ. eigenvalues --   -6.98842  -0.94612  -0.76213  -0.43499  -0.41382
 Alpha  occ. eigenvalues --   -0.41120  -0.33482  -0.28482  -0.28432
 Alpha virt. eigenvalues --    0.02877   0.35406   0.38925   0.40684   0.40727
 Alpha virt. eigenvalues --    0.69456   0.71587   0.73182   0.77647   0.77757
 Alpha virt. eigenvalues --    0.80329   0.80330   0.81699   1.06709   1.22369

  Beta  occ. eigenvalues -- -100.65596 -18.89559  -9.17339  -6.99717  -6.98766
  Beta  occ. eigenvalues --   -6.98754  -0.82468  -0.75776  -0.42625  -0.29607
  Beta  occ. eigenvalues --   -0.28212  -0.28195
  Beta virt. eigenvalues --   -0.25892  -0.25833   0.03585   0.35557   0.39165
  Beta virt. eigenvalues --    0.41018   0.41032   0.73208   0.77759   0.77765
  Beta virt. eigenvalues --    0.80835   0.80835   0.82032   0.82091   0.85104

 Mulliken charges and spin densities:
               1          2
     1  O    0.015134   1.926167
     2  Cl  -0.230377   0.091257
     3  H    0.215242  -0.017424
 Sum of Mulliken charges =   0.00000   2.00000

 Dipole moment (field-independent basis, Debye):
    X=             -0.1643    Y=              1.7223    Z=              0.0000  Tot=              1.7301
 Quadrupole moment (field-independent basis, Debye-Ang):
   XX=            -18.5178   YY=            -18.5484   ZZ=            -18.5010
   XY=             -0.3666   XZ=              0.0000   YZ=              0.0000

  Exact polarizability:   8.736   0.027  59.055  -0.000  -0.000   8.682
 Approx polarizability:  11.935   0.147 291.173  -0.000  -0.000  11.809

 ******    1 imaginary frequencies (negative Signs) ******

                      1                      2                      3
                     A'                     A'                     A'
 Frequencies --    -99.3972               217.4821              2316.1713
 Red. masses --      2.2901                 1.6580                 1.0434
 Frc consts  --      0.0133                 0.0462                 3.2980
 IR Inten    --     39.2252                32.6372                 1.2538

 - Thermochemistry -
 -------------------
 Temperature   298.150 Kelvin.  Pressure   1.00000 Atm.
 Atom     1 has atomic number  8 and mass  15.99491

 Molecular mass:    51.97159 amu.
 Principal axes and moments of inertia in atomic units:
                           1         2         3
     Eigenvalues --     0.06460 365.60459 365.66919
           X           -0.00048   1.00000   0.00000
           Y            1.00000   0.00048   0.00000
           Z            0.00000   0.00000   1.00000
 This molecule is an asymmetric top.
 Rotational symmetry number  1.
 Rotational temperatures (Kelvin)   1340.72383     0.23691     0.23686
 Rotational constants (GHZ):       27936.15025     4.93632     4.93545
    1 imaginary frequencies ignored.
 Zero-point vibrational energy      15154.6 (Joules/Mol)
                                    3.62204 (Kcal/Mol)
 Warning -- explicit consideration of   1 degrees of freedom as
           vibrations may cause significant error
 Vibrational temperatures:    312.91  3332.45
          (Kelvin)

 Zero-point correction=                           0.005772 (Hartree/Particle)
 Thermal correction to Energy=                    0.009139
 Thermal correction to Enthalpy=                  0.010083
 Thermal correction to Gibbs Free Energy=        -0.017826
 Sum of electronic and zero-point Energies=           -535.558744
 Sum of electronic and thermal Energies=              -535.555377
 Sum of electronic and thermal Enthalpies=            -535.554433
 Sum of electronic and thermal Free Energies=         -535.582342

                     E (Thermal)             CV                S
                      KCal/Mol        Cal/Mol-Kelvin    Cal/Mol-Kelvin
 Total                    5.735              7.780             58.739
 Electronic               0.000              0.000              2.183
 Translational            0.889              2.981             37.767
 Rotational               0.889              2.981             16.809
 Vibrational              3.957              1.818              1.980
 Vibration     1          0.646              1.814              1.980

                           ! Non-Optimized Parameters !
 Normal termination of Gaussian 16 at Thu Oct  8 20:04:39 2020.
