 Gaussian 16, Revision A.03,

 ----------------------------------------------------------------------
 #P Opt(TS,MaxCyc=50,NoEigenTest,MaxStep=10,AddRedundant) PBEPBE/6-31G*
  5D 7F Integral=UltraFineGrid SCF=(NoSymm,XQC,MaxCyc=120) EmpiricalDis
 persion=GD3BJ IOp(1/33=1)
 ----------------------------------------------------------------------

 TstMul:  Mul=     3
 TstMul:  ICh=     0
 TstMul:  Mul=     3
 Symbolic Z-matrix:
 Charge =  0 Multiplicity = 3

 SCF Done:  E(UPBE-PBE) =  -95.5694596495     A.U. after   14 cycles
 SCF Done:  E(UPBE-PBE) =  -95.5697383415     A.U. after   12 cycles
 SCF Done:  E(UPBE-PBE) =  -95.5703859254     A.U. after   12 cycles
 SCF Done:  E(UPBE-PBE) =  -95.5698167744     A.U. after   13 cycles
 SCF Done:  E(UPBE-PBE) =  -95.5699078049     A.U. after   12 cycles
 SCF Done:  E(UPBE-PBE) =  -95.5698352466     A.U. after   14 cycles
 SCF Done:  E(UPBE-PBE) =  -95.5700414233     A.U. after   12 cycles
 SCF Done:  E(UPBE-PBE) =  -95.5696643966     A.U. after   13 cycles
 SCF Done:  E(UPBE-PBE) =  -95.5696698691     A.U. after   14 cycles
 SCF Done:  E(UPBE-PBE) =  -95.5694315993     A.U. after   12 cycles
 SCF Done:  E(UPBE-PBE) =  -95.5692339023     A.U. after   14 cycles
 SCF Done:  E(UPBE-PBE) =  -95.5692430942     A.U. after   12 cycles
 SCF Done:  E(UPBE-PBE) =  -95.5692470669     A.U. after   11 cycles
 SCF Done:  E(UPBE-PBE) =  -95.5692473548     A.U. after   11 cycles
 SCF Done:  E(UPBE-PBE) =  -95.5692585503     A.U. after   14 cycles
 SCF Done:  E(UPBE-PBE) =  -95.5692469648     A.U. after   13 cycles
 SCF Done:  E(UPBE-PBE) =  -95.5692480095     A.U. after   11 cycles
 SCF Done:  E(UPBE-PBE) =  -95.5692480740     A.U. after    9 cycles
 SCF Done:  E(UPBE-PBE) =  -95.5692480888     A.U. after    8 cycles
 Optimization completed.
    -- Stationary point found.
 Normal termination of Gaussian 16 at Wed Oct  7 13:00:24 2020.
 Gaussian 16:  ES64L-G16RevA.03 25-Dec-2016

 ----------------------------------------------------------------------
 #P Freq PBEPBE/6-31G* 5D 7F Integral=UltraFineGrid SCF=(NoSymm,XQC,Max
 Cyc=120) EmpiricalDispersion=GD3BJ IOp(1/33=1) Geom=Check Guess=Read
 ----------------------------------------------------------------------

 TstMul:  Mul=     3
 TstMul:  ICh=     0
 TstMul:  Mul=     3
 Structure from the checkpoint file:  "MN_92_RKT18_BH76_PBEDBJ_631Gs.chk"
 Charge =  0 Multiplicity = 3

                         Standard orientation:
 ---------------------------------------------------------------------
 Center     Atomic      Atomic             Coordinates (Angstroms)
 Number     Number       Type             X           Y           Z
 ---------------------------------------------------------------------
      1          6           0       -1.252153   -0.013240    0.000001
      2          7           0        1.438004    0.127014    0.000007
      3          1           0       -1.428441   -0.566050    0.928843
      4          1           0       -1.428183   -0.566819   -0.928433
      5          1           0       -1.567466    1.035641   -0.000486
      6          1           0        0.300269    0.199722    0.000028
      7          1           0        1.570711   -0.912150   -0.000009
 ---------------------------------------------------------------------

 SCF Done:  E(UPBE-PBE) =  -95.5692480888     A.U. after    1 cycles

 The electronic state is 3-A.
 Alpha  occ. eigenvalues --  -14.02559  -9.90276  -0.76107  -0.62346  -0.40832
 Alpha  occ. eigenvalues --   -0.37049  -0.36929  -0.29237  -0.25563  -0.18654
 Alpha virt. eigenvalues --    0.06763   0.09765   0.13880   0.14033   0.22781
 Alpha virt. eigenvalues --    0.47484   0.47545   0.50974   0.64024   0.65527
 Alpha virt. eigenvalues --    0.66872   0.77235   0.83723   0.83756   0.83940

  Beta  occ. eigenvalues --  -14.00110  -9.89203  -0.70245  -0.59753  -0.38487
  Beta  occ. eigenvalues --   -0.36214  -0.36045  -0.25258
  Beta virt. eigenvalues --   -0.13370  -0.11650   0.07941   0.10971   0.14592
  Beta virt. eigenvalues --    0.14747   0.25425   0.48631   0.49239   0.55765
  Beta virt. eigenvalues --    0.67893   0.68859   0.72120   0.78933   0.84399

 Mulliken charges and spin densities:
               1          2
     1  C   -0.641821   0.790814
     2  N   -0.532430   1.390368
     3  H    0.188265  -0.027243
     4  H    0.188260  -0.027244
     5  H    0.195511  -0.025872
     6  H    0.317474  -0.058574
     7  H    0.284740  -0.042250
 Sum of Mulliken charges =   0.00000   2.00000

 Dipole moment (field-independent basis, Debye):
    X=             -1.2438    Y=             -1.3565    Z=             -0.0000  Tot=              1.8404
 Quadrupole moment (field-independent basis, Debye-Ang):
   XX=            -17.0020   YY=            -13.7183   ZZ=            -14.1462
   XY=             -2.7333   XZ=             -0.0001   YZ=             -0.0000

  Exact polarizability:  40.423  -0.665  20.806  -0.001   0.000  16.275
 Approx polarizability:  68.694   1.376  30.272  -0.001   0.000  22.417

 ******    1 imaginary frequencies (negative Signs) ******

                      1                      2                      3
                      A                      A                      A
 Frequencies --   -412.4483                61.9831               334.4116
 Red. masses --      2.8453                 1.0472                 1.0409
 Frc consts  --      0.2852                 0.0024                 0.0686
 IR Inten    --     65.0777                53.2859                12.5348

                      4                      5                      6
                      A                      A                      A
 Frequencies --    380.7107               634.7220               812.0066
 Red. masses --      1.0772                 1.1077                 1.1836
 Frc consts  --      0.0920                 0.2629                 0.4598
 IR Inten    --      5.7810                32.5276                 2.5450

                      7                      8                      9
                      A                      A                      A
 Frequencies --    996.2237              1338.0423              1400.6776
 Red. masses --      1.0535                 1.2395                 1.0877
 Frc consts  --      0.6161                 1.3075                 1.2573
 IR Inten    --     58.4225                 5.9601                 4.1397

                     10                     11                     12
                      A                      A                      A
 Frequencies --   1401.0311              1657.6564              3044.6872
 Red. masses --      1.0874                 1.0863                 1.0149
 Frc consts  --      1.2576                 1.7587                 5.5432
 IR Inten    --      5.0141               194.1385                 0.0359

                     13                     14                     15
                      A                      A                      A
 Frequencies --   3198.0631              3198.7581              3236.1313
 Red. masses --      1.1132                 1.1131                 1.0719
 Frc consts  --      6.7080                 6.7104                 6.6140
 IR Inten    --      8.3865                 5.0708                20.5545

 - Thermochemistry -
 -------------------
 Temperature   298.150 Kelvin.  Pressure   1.00000 Atm.
 Atom     1 has atomic number  6 and mass  12.00000

 Molecular mass:    31.04220 amu.
 Principal axes and moments of inertia in atomic units:
                           1         2         3
     Eigenvalues --    16.14263 208.90283 212.63077
           X            0.99971  -0.02413  -0.00000
           Y            0.02413   0.99971  -0.00000
           Z            0.00000   0.00000   1.00000
 This molecule is an asymmetric top.
 Rotational symmetry number  1.
 Rotational temperatures (Kelvin)      5.36554     0.41461     0.40734
 Rotational constants (GHZ):         111.79969     8.63914     8.48768
    1 imaginary frequencies ignored.
 Zero-point vibrational energy     129765.5 (Joules/Mol)
                                   31.01471 (Kcal/Mol)
 Warning -- explicit consideration of   3 degrees of freedom as
           vibrations may cause significant error
 Vibrational temperatures:     89.18   481.14   547.76   913.22  1168.30
          (Kelvin)           1433.34  1925.14  2015.26  2015.77  2385.00
                             4380.63  4601.30  4602.30  4656.07

 Zero-point correction=                           0.049425 (Hartree/Particle)
 Thermal correction to Energy=                    0.054056
 Thermal correction to Enthalpy=                  0.055000
 Thermal correction to Gibbs Free Energy=         0.023151
 Sum of electronic and zero-point Energies=            -95.519823
 Sum of electronic and thermal Energies=               -95.515192
 Sum of electronic and thermal Enthalpies=             -95.514248
 Sum of electronic and thermal Free Energies=          -95.546097

                     E (Thermal)             CV                S
                      KCal/Mol        Cal/Mol-Kelvin    Cal/Mol-Kelvin
 Total                   33.921             13.408             67.033
 Electronic               0.000              0.000              2.183
 Translational            0.889              2.981             36.231
 Rotational               0.889              2.981             21.200
 Vibrational             32.143              7.447              7.420
 Vibration     1          0.597              1.972              4.393
 Vibration     2          0.716              1.607              1.239
 Vibration     3          0.750              1.511              1.036

 Optimization completed.
    -- Stationary point found.
 Normal termination of Gaussian 16 at Wed Oct  7 13:00:56 2020.
