 Gaussian 16, Revision A.03,

 ----------------------------------------------------------------------
 #P Opt(TS,MaxCyc=50,NoEigenTest,MaxStep=10,AddRedundant) PBEPBE/6-31G*
  5D 7F Integral=UltraFineGrid SCF=(NoSymm,XQC,MaxCyc=120) EmpiricalDis
 persion=GD3BJ IOp(1/33=1)
 ----------------------------------------------------------------------

 TstMul:  Mul=     3
 TstMul:  ICh=     0
 TstMul:  Mul=     3
 Symbolic Z-matrix:
 Charge =  0 Multiplicity = 3

 SCF Done:  E(UPBE-PBE) =  -134.829501890     A.U. after   15 cycles
 SCF Done:  E(UPBE-PBE) =  -134.829930770     A.U. after   12 cycles
 SCF Done:  E(UPBE-PBE) =  -134.831228688     A.U. after   15 cycles
 SCF Done:  E(UPBE-PBE) =  -134.831841908     A.U. after   15 cycles
 SCF Done:  E(UPBE-PBE) =  -134.832110386     A.U. after   13 cycles
 SCF Done:  E(UPBE-PBE) =  -134.832108766     A.U. after   13 cycles
 SCF Done:  E(UPBE-PBE) =  -134.832110818     A.U. after   15 cycles
 SCF Done:  E(UPBE-PBE) =  -134.832601026     A.U. after   13 cycles
 SCF Done:  E(UPBE-PBE) =  -134.832094972     A.U. after   13 cycles
 SCF Done:  E(UPBE-PBE) =  -134.831924878     A.U. after   15 cycles
 SCF Done:  E(UPBE-PBE) =  -134.831341067     A.U. after   15 cycles
 SCF Done:  E(UPBE-PBE) =  -134.831316535     A.U. after   13 cycles
 SCF Done:  E(UPBE-PBE) =  -134.831325572     A.U. after   13 cycles
 SCF Done:  E(UPBE-PBE) =  -134.831329355     A.U. after   10 cycles
 SCF Done:  E(UPBE-PBE) =  -134.831331884     A.U. after   11 cycles
 SCF Done:  E(UPBE-PBE) =  -134.831331991     A.U. after    9 cycles
 SCF Done:  E(UPBE-PBE) =  -134.831332142     A.U. after   11 cycles
 SCF Done:  E(UPBE-PBE) =  -134.831332169     A.U. after    9 cycles
 SCF Done:  E(UPBE-PBE) =  -134.831332172     A.U. after    8 cycles
 Optimization completed.
    -- Stationary point found.
 Normal termination of Gaussian 16 at Wed Oct  7 13:03:06 2020.
 Gaussian 16:  ES64L-G16RevA.03 25-Dec-2016

 ----------------------------------------------------------------------
 #P Freq PBEPBE/6-31G* 5D 7F Integral=UltraFineGrid SCF=(NoSymm,XQC,Max
 Cyc=120) EmpiricalDispersion=GD3BJ IOp(1/33=1) Geom=Check Guess=Read
 ----------------------------------------------------------------------

 TstMul:  Mul=     3
 TstMul:  ICh=     0
 TstMul:  Mul=     3
 Structure from the checkpoint file:  "MN_93_RKT19_BH76_PBEDBJ_631Gs.chk"
 Charge =  0 Multiplicity = 3

                         Standard orientation:
 ---------------------------------------------------------------------
 Center     Atomic      Atomic             Coordinates (Angstroms)
 Number     Number       Type             X           Y           Z
 ---------------------------------------------------------------------
      1          6           0       -1.429774   -0.435189    0.000009
      2          6           0       -0.444984    0.703696   -0.000007
      3          7           0        1.971633   -0.372573   -0.000014
      4          1           0       -1.313521   -1.073937   -0.892416
      5          1           0       -1.313646   -1.073812    0.892538
      6          1           0       -2.475450   -0.063283   -0.000096
      7          1           0       -0.404527    1.313118   -0.914996
      8          1           0       -0.404480    1.313118    0.914979
      9          1           0        0.848796    0.053131   -0.000023
     10          1           0        2.509949    0.528629    0.000102
 ---------------------------------------------------------------------

 SCF Done:  E(UPBE-PBE) =  -134.831332172     A.U. after    1 cycles

 The electronic state is 3-A.
 Alpha  occ. eigenvalues --  -14.02212  -9.90105  -9.88765  -0.75199  -0.68370
 Alpha  occ. eigenvalues --   -0.55086  -0.41009  -0.39818  -0.35372  -0.33868
 Alpha  occ. eigenvalues --   -0.30968  -0.28703  -0.25016  -0.17030
 Alpha virt. eigenvalues --    0.06966   0.09297   0.11655   0.11979   0.13877
 Alpha virt. eigenvalues --    0.16530   0.20548   0.24729   0.45359   0.48978
 Alpha virt. eigenvalues --    0.51385   0.54576   0.57105   0.61528   0.66258

  Beta  occ. eigenvalues --  -13.99621  -9.89160  -9.88792  -0.69587  -0.66647
  Beta  occ. eigenvalues --   -0.53776  -0.39343  -0.38870  -0.34187  -0.33249
  Beta  occ. eigenvalues --   -0.30642  -0.24870
  Beta virt. eigenvalues --   -0.12706  -0.10701   0.07839   0.10152   0.12254
  Beta virt. eigenvalues --    0.12476   0.14255   0.17066   0.21312   0.27186
  Beta virt. eigenvalues --    0.46052   0.49934   0.51987   0.57781   0.60216

 Mulliken charges and spin densities:
               1          2
     1  C   -0.475465  -0.030372
     2  C   -0.460869   0.651163
     3  N   -0.514157   1.472536
     4  H    0.175966   0.007056
     5  H    0.175963   0.007049
     6  H    0.173113   0.042427
     7  H    0.173076  -0.019575
     8  H    0.173076  -0.019575
     9  H    0.298310  -0.066578
    10  H    0.280989  -0.044133
 Sum of Mulliken charges =  -0.00000   2.00000

 Dipole moment (field-independent basis, Debye):
    X=             -0.8952    Y=              1.5786    Z=              0.0001  Tot=              1.8148
 Quadrupole moment (field-independent basis, Debye-Ang):
   XX=            -21.4526   YY=            -21.7451   ZZ=            -20.5571
   XY=              3.8999   XZ=              0.0004   YZ=             -0.0000

  Exact polarizability:  55.646  -2.897  32.647   0.001   0.000  26.106
 Approx polarizability:  89.113 -12.339  51.418   0.001   0.001  38.939

 ******    1 imaginary frequencies (negative Signs) ******

                      1                      2                      3
                      A                      A                      A
 Frequencies --   -954.0489                51.2800               132.1079
 Red. masses --      1.2059                 1.0797                 2.8102
 Frc consts  --      0.6467                 0.0017                 0.0289
 IR Inten    --    197.5484                65.1143                 4.9496

                      4                      5                      6
                      A                      A                      A
 Frequencies --    155.4858               449.2609               480.8598
 Red. masses --      1.1033                 1.0676                 1.6882
 Frc consts  --      0.0157                 0.1270                 0.2300
 IR Inten    --      1.2094                 3.6047                11.4976

                      7                      8                      9
                      A                      A                      A
 Frequencies --    732.8924               811.5524               893.6795
 Red. masses --      1.4877                 1.0495                 1.1481
 Frc consts  --      0.4708                 0.4072                 0.5403
 IR Inten    --      7.8017                 9.2818                43.1830

                     10                     11                     12
                      A                      A                      A
 Frequencies --   1052.8863              1126.2991              1166.7309
 Red. masses --      2.9484                 1.1024                 1.5167
 Frc consts  --      1.9258                 0.8240                 1.2164
 IR Inten    --      0.5468                26.8295                 4.9066

                     13                     14                     15
                      A                      A                      A
 Frequencies --   1201.5413              1379.6058              1441.8563
 Red. masses --      1.3372                 1.2037                 1.1361
 Frc consts  --      1.1374                 1.3498                 1.3916
 IR Inten    --      5.4410                 3.4802                 1.5135

                     16                     17                     18
                      A                      A                      A
 Frequencies --   1466.6059              1468.4235              1474.3496
 Red. masses --      1.0354                 1.0694                 1.0511
 Frc consts  --      1.3121                 1.3586                 1.3462
 IR Inten    --      6.5786                 9.4768                81.1202

                     19                     20                     21
                      A                      A                      A
 Frequencies --   2944.2644              3022.2456              3038.5700
 Red. masses --      1.0500                 1.0805                 1.0551
 Frc consts  --      5.3630                 5.8149                 5.7396
 IR Inten    --     20.6601                 8.8733                26.2829

                     22                     23                     24
                      A                      A                      A
 Frequencies --   3060.3817              3119.5839              3211.5576
 Red. masses --      1.1022                 1.1117                 1.0724
 Frc consts  --      6.0825                 6.3745                 6.5167
 IR Inten    --     11.8187                27.6342                23.7442

 - Thermochemistry -
 -------------------
 Temperature   298.150 Kelvin.  Pressure   1.00000 Atm.
 Atom     1 has atomic number  6 and mass  12.00000

 Molecular mass:    45.05785 amu.
 Principal axes and moments of inertia in atomic units:
                           1         2         3
     Eigenvalues --    69.25430 363.09125 408.82649
           X            0.99924   0.03902   0.00000
           Y           -0.03902   0.99924   0.00000
           Z           -0.00000  -0.00000   1.00000
 This molecule is an asymmetric top.
 Rotational symmetry number  1.
 Rotational temperatures (Kelvin)      1.25066     0.23855     0.21186
 Rotational constants (GHZ):          26.05963     4.97049     4.41444
    1 imaginary frequencies ignored.
 Zero-point vibrational energy     202659.5 (Joules/Mol)
                                   48.43678 (Kcal/Mol)
 Warning -- explicit consideration of   5 degrees of freedom as
           vibrations may cause significant error
 Vibrational temperatures:     73.78   190.07   223.71   646.39   691.85
          (Kelvin)           1054.47  1167.64  1285.81  1514.87  1620.49
                             1678.67  1728.75  1984.94  2074.51  2110.12
                             2112.73  2121.26  4236.14  4348.34  4371.82
                             4403.21  4488.39  4620.72

 Zero-point correction=                           0.077189 (Hartree/Particle)
 Thermal correction to Energy=                    0.083015
 Thermal correction to Enthalpy=                  0.083960
 Thermal correction to Gibbs Free Energy=         0.047817
 Sum of electronic and zero-point Energies=           -134.754143
 Sum of electronic and thermal Energies=              -134.748317
 Sum of electronic and thermal Enthalpies=            -134.747373
 Sum of electronic and thermal Free Energies=         -134.783515

                     E (Thermal)             CV                S
                      KCal/Mol        Cal/Mol-Kelvin    Cal/Mol-Kelvin
 Total                   52.093             17.788             76.068
 Electronic               0.000              0.000              2.183
 Translational            0.889              2.981             37.342
 Rotational               0.889              2.981             23.845
 Vibrational             50.316             11.826             12.698
 Vibration     1          0.596              1.977              4.767
 Vibration     2          0.612              1.921              2.915
 Vibration     3          0.620              1.897              2.604
 Vibration     4          0.808              1.363              0.798
 Vibration     5          0.837              1.293              0.708

 Optimization completed.
    -- Stationary point found.
 Normal termination of Gaussian 16 at Wed Oct  7 13:03:54 2020.
