 Gaussian 16, Revision A.03,

 ----------------------------------------------------------------------
 #P Opt(TS,MaxCyc=50,NoEigenTest,MaxStep=10,AddRedundant) PBEPBE/6-31G*
  5D 7F Integral=UltraFineGrid SCF=(NoSymm,XQC,MaxCyc=120) EmpiricalDis
 persion=GD3BJ IOp(1/33=1)
 ----------------------------------------------------------------------

 TstMul:  Mul=     1
 TstMul:  ICh=     0
 TstMul:  Mul=     1
 Symbolic Z-matrix:
 Charge =  0 Multiplicity = 1

 SCF Done:  E(RPBE-PBE) =  -194.982500633     A.U. after   14 cycles
 SCF Done:  E(RPBE-PBE) =  -194.983750965     A.U. after   12 cycles
 SCF Done:  E(RPBE-PBE) =  -194.983711746     A.U. after    9 cycles
 SCF Done:  E(RPBE-PBE) =  -194.983597667     A.U. after   11 cycles
 SCF Done:  E(RPBE-PBE) =  -194.983544089     A.U. after    8 cycles
 SCF Done:  E(RPBE-PBE) =  -194.983345812     A.U. after   12 cycles
 SCF Done:  E(RPBE-PBE) =  -194.983162708     A.U. after   12 cycles
 SCF Done:  E(RPBE-PBE) =  -194.983453502     A.U. after   13 cycles
 SCF Done:  E(RPBE-PBE) =  -194.983840834     A.U. after   12 cycles
 SCF Done:  E(RPBE-PBE) =  -194.984018492     A.U. after   12 cycles
 SCF Done:  E(RPBE-PBE) =  -194.984149708     A.U. after   13 cycles
 SCF Done:  E(RPBE-PBE) =  -194.984022667     A.U. after   12 cycles
 SCF Done:  E(RPBE-PBE) =  -194.984022367     A.U. after    9 cycles
 SCF Done:  E(RPBE-PBE) =  -194.984022551     A.U. after    8 cycles
 SCF Done:  E(RPBE-PBE) =  -194.984023035     A.U. after    8 cycles
 SCF Done:  E(RPBE-PBE) =  -194.984023182     A.U. after    8 cycles
 Optimization completed.
    -- Stationary point found.
 Normal termination of Gaussian 16 at Wed Oct  7 13:02:29 2020.
 Gaussian 16:  ES64L-G16RevA.03 25-Dec-2016

 ----------------------------------------------------------------------
 #P Freq PBEPBE/6-31G* 5D 7F Integral=UltraFineGrid SCF=(NoSymm,XQC,Max
 Cyc=120) EmpiricalDispersion=GD3BJ IOp(1/33=1) Geom=Check Guess=Read
 ----------------------------------------------------------------------

 TstMul:  Mul=     1
 TstMul:  ICh=     0
 TstMul:  Mul=     1
 Structure from the checkpoint file:  "MN_96_RKT22_BH76_PBEDBJ_631Gs.chk"
 Charge =  0 Multiplicity = 1

                         Standard orientation:
 ---------------------------------------------------------------------
 Center     Atomic      Atomic             Coordinates (Angstroms)
 Number     Number       Type             X           Y           Z
 ---------------------------------------------------------------------
      1          6           0       -1.312053   -0.910891   -0.023015
      2          6           0       -1.216239    0.509993   -0.012192
      3          6           0        0.000243    1.190456    0.153582
      4          6           0        1.216562    0.509686   -0.012495
      5          6           0        1.311744   -0.911155   -0.022596
      6          1           0        2.185123   -1.341220   -0.534705
      7          1           0        1.074672   -1.462267    0.897710
      8          1           0        2.054755    1.098862   -0.408279
      9          1           0        0.000343    2.284363    0.092396
     10          1           0       -2.054592    1.099624   -0.406965
     11          1           0       -2.185825   -1.339984   -0.535299
     12          1           0       -0.000236   -1.205303   -0.501703
     13          1           0       -1.075775   -1.462607    0.897142
 ---------------------------------------------------------------------

 SCF Done:  E(RPBE-PBE) =  -194.984023182     A.U. after    1 cycles

 The electronic state is 1-A.
 Alpha  occ. eigenvalues --   -9.89610  -9.89609  -9.88924  -9.88734  -9.88734
 Alpha  occ. eigenvalues --   -0.74097  -0.66123  -0.61751  -0.52329  -0.46870
 Alpha  occ. eigenvalues --   -0.43701  -0.37051  -0.35973  -0.35722  -0.33859
 Alpha  occ. eigenvalues --   -0.31328  -0.30182  -0.22453  -0.18905
 Alpha virt. eigenvalues --   -0.04896   0.00098   0.07016   0.10000   0.11629
 Alpha virt. eigenvalues --    0.14513   0.15676   0.16147   0.18738   0.20310
 Alpha virt. eigenvalues --    0.24550   0.25995   0.31826   0.37869   0.47811

 Mulliken charges:
               1
     1  C   -0.512138
     2  C   -0.079814
     3  C   -0.135322
     4  C   -0.079774
     5  C   -0.512103
     6  H    0.153927
     7  H    0.192701
     8  H    0.147581
     9  H    0.132503
    10  H    0.147582
    11  H    0.153911
    12  H    0.198268
    13  H    0.192676
 Sum of Mulliken charges =   0.00000

 Dipole moment (field-independent basis, Debye):
    X=             -0.0001    Y=             -0.0062    Z=             -0.1454  Tot=              0.1456
 Quadrupole moment (field-independent basis, Debye-Ang):
   XX=            -30.1323   YY=            -29.7908   ZZ=            -33.5181
   XY=             -0.0008   XZ=             -0.0020   YZ=             -1.3822

  Exact polarizability:  74.973   0.003  63.919  -0.002  -0.647  30.103
 Approx polarizability: 158.092   0.019 132.970  -0.001   4.789  49.609

 ******    1 imaginary frequencies (negative Signs) ******

                      1                      2                      3
                      A                      A                      A
 Frequencies --  -1385.1324               265.4766               455.7697
 Red. masses --      1.1885                 2.1002                 2.2718
 Frc consts  --      1.3435                 0.0872                 0.2780
 IR Inten    --     14.7611                 0.0837                 0.6768

                      4                      5                      6
                      A                      A                      A
 Frequencies --    493.7606               549.0158               595.9808
 Red. masses --      2.4788                 3.5722                 1.3264
 Frc consts  --      0.3561                 0.6344                 0.2776
 IR Inten    --      3.3857                 3.5025                28.5604

                      7                      8                      9
                      A                      A                      A
 Frequencies --    723.3791               768.2942               788.0968
 Red. masses --      1.9383                 1.2458                 1.2807
 Frc consts  --      0.5976                 0.4333                 0.4687
 IR Inten    --      7.8839                 4.4894                43.3968

                     10                     11                     12
                      A                      A                      A
 Frequencies --    945.4651               946.6074               972.9668
 Red. masses --      1.2716                 1.3200                 1.4978
 Frc consts  --      0.6697                 0.6969                 0.8354
 IR Inten    --      4.5275                 0.7657                21.9753

                     13                     14                     15
                      A                      A                      A
 Frequencies --    989.2095               991.2308              1079.0907
 Red. masses --      1.3325                 2.3585                 1.2978
 Frc consts  --      0.7682                 1.3653                 0.8904
 IR Inten    --      0.5134                 0.4736                 3.1442

                     16                     17                     18
                      A                      A                      A
 Frequencies --   1108.6514              1163.9008              1232.9359
 Red. masses --      1.6264                 1.1953                 1.4723
 Frc consts  --      1.1778                 0.9540                 1.3187
 IR Inten    --      1.0844                 5.5209                 7.1316

                     19                     20                     21
                      A                      A                      A
 Frequencies --   1244.8092              1390.3149              1406.7804
 Red. masses --      1.2184                 1.1145                 1.3763
 Frc consts  --      1.1124                 1.2692                 1.6048
 IR Inten    --      9.8773                11.6435                 2.1716

                     22                     23                     24
                      A                      A                      A
 Frequencies --   1440.3906              1489.6983              1514.5081
 Red. masses --      1.0708                 1.4383                 1.5836
 Frc consts  --      1.3089                 1.8806                 2.1401
 IR Inten    --      5.6052                 0.0390                 0.8132

                     25                     26                     27
                      A                      A                      A
 Frequencies --   1528.9256              1567.3258              3040.4724
 Red. masses --      5.2369                 1.6667                 1.0567
 Frc consts  --      7.2127                 2.4122                 5.7554
 IR Inten    --      7.3951                 3.4013                24.9565

                     28                     29                     30
                      A                      A                      A
 Frequencies --   3041.9095              3080.2749              3083.7526
 Red. masses --      1.0570                 1.0875                 1.0917
 Frc consts  --      5.7626                 6.0792                 6.1169
 IR Inten    --     10.9029                 0.9519                 6.8785

                     31                     32                     33
                      A                      A                      A
 Frequencies --   3103.2617              3107.7241              3122.5559
 Red. masses --      1.1104                 1.1072                 1.0942
 Frc consts  --      6.3003                 6.3000                 6.2857
 IR Inten    --     27.7131                14.5769                24.4360

 - Thermochemistry -
 -------------------
 Temperature   298.150 Kelvin.  Pressure   1.00000 Atm.
 Atom     1 has atomic number  6 and mass  12.00000

 Molecular mass:    68.06260 amu.
 Principal axes and moments of inertia in atomic units:
                           1         2         3
     Eigenvalues --   225.94391 358.35655 562.40299
           X            1.00000  -0.00000  -0.00001
           Y            0.00000   0.99976  -0.02178
           Z            0.00001   0.02178   0.99976
 This molecule is an asymmetric top.
 Rotational symmetry number  1.
 Rotational temperatures (Kelvin)      0.38334     0.24170     0.15401
 Rotational constants (GHZ):           7.98756     5.03616     3.20898
    1 imaginary frequencies ignored.
 Zero-point vibrational energy     282513.3 (Joules/Mol)
                                   67.52230 (Kcal/Mol)
 Warning -- explicit consideration of   5 degrees of freedom as
           vibrations may cause significant error
 Vibrational temperatures:    381.96   655.75   710.41   789.91   857.48
          (Kelvin)           1040.78  1105.40  1133.90  1360.31  1361.96
                             1399.88  1423.25  1426.16  1552.57  1595.10
                             1674.59  1773.92  1791.00  2000.35  2024.04
                             2072.40  2143.34  2179.04  2199.78  2255.03
                             4374.56  4376.63  4431.83  4436.83  4464.90
                             4471.32  4492.66

 Zero-point correction=                           0.107604 (Hartree/Particle)
 Thermal correction to Energy=                    0.112361
 Thermal correction to Enthalpy=                  0.113306
 Thermal correction to Gibbs Free Energy=         0.080246
 Sum of electronic and zero-point Energies=           -194.876420
 Sum of electronic and thermal Energies=              -194.871662
 Sum of electronic and thermal Enthalpies=            -194.870718
 Sum of electronic and thermal Free Energies=         -194.903777

                     E (Thermal)             CV                S
                      KCal/Mol        Cal/Mol-Kelvin    Cal/Mol-Kelvin
 Total                   70.508             18.460             69.579
 Electronic               0.000              0.000              0.000
 Translational            0.889              2.981             38.571
 Rotational               0.889              2.981             25.324
 Vibrational             68.730             12.499              5.684
 Vibration     1          0.671              1.736              1.625
 Vibration     2          0.814              1.348              0.779
 Vibration     3          0.849              1.264              0.674
 Vibration     4          0.904              1.142              0.546
 Vibration     5          0.954              1.040              0.457

 Optimization completed.
    -- Stationary point found.
 Normal termination of Gaussian 16 at Wed Oct  7 13:03:33 2020.
