 Gaussian 16, Revision A.03,

 ----------------------------------------------------------------------
 #P Opt(TS,MaxCyc=50,NoEigenTest,MaxStep=10,AddRedundant) PBEPBE/6-31G*
  5D 7F Integral=UltraFineGrid SCF=(NoSymm,XQC,MaxCyc=120) EmpiricalDis
 persion=GD3BJ IOp(1/33=1)
 ----------------------------------------------------------------------

 TstMul:  Mul=     2
 TstMul:  ICh=     0
 TstMul:  Mul=     2
 Symbolic Z-matrix:
 Charge =  0 Multiplicity = 2

 SCF Done:  E(UPBE-PBE) =  -399.683219519     A.U. after   13 cycles
 SCF Done:  E(UPBE-PBE) =  -399.683706235     A.U. after   11 cycles
 SCF Done:  E(UPBE-PBE) =  -399.684329408     A.U. after   11 cycles
 SCF Done:  E(UPBE-PBE) =  -399.683610242     A.U. after   11 cycles
 SCF Done:  E(UPBE-PBE) =  -399.682938548     A.U. after   12 cycles
 SCF Done:  E(UPBE-PBE) =  -399.682457010     A.U. after   12 cycles
 SCF Done:  E(UPBE-PBE) =  -399.682138008     A.U. after   12 cycles
 SCF Done:  E(UPBE-PBE) =  -399.681943828     A.U. after   12 cycles
 SCF Done:  E(UPBE-PBE) =  -399.681844418     A.U. after   12 cycles
 SCF Done:  E(UPBE-PBE) =  -399.681816109     A.U. after   11 cycles
 SCF Done:  E(UPBE-PBE) =  -399.681815087     A.U. after    9 cycles
 Optimization completed.
    -- Stationary point found.

 1\1\GINC-NODE62\FTS\UPBEPBE\6-31G(d)\H3S1(2)\RPEVERATI\07-Oct-2020\0\\
 #P Opt(TS,MaxCyc=50,NoEigenTest,MaxStep=10,AddRedundant) PBEPBE/6-31G*
  5D 7F Integral=UltraFineGrid SCF=(NoSymm,XQC,MaxCyc=120) EmpiricalDis
 persion=GD3BJ IOp(1/33=1)\\TS search on BH76.\\0,2\H,1.3122705842,-0.1
 515344292,0.\S,0.0225736722,0.2788878725,0.\H,-0.4579927112,-1.0313279
 914,0.\H,-0.8768526034,-2.4433332529,0.\\Version=ES64L-G16RevA.03\Stat
 e=2-A'\HF=-399.6818151\S2=0.752169\S2-1=0.\S2A=0.75\RMSD=4.443e-09\RMS
 F=2.772e-05\Dipole=0.2452228,-0.5537892,0.\Quadrupole=1.2570614,0.6532

 Normal termination of Gaussian 16 at Wed Oct  7 12:57:45 2020.
 Gaussian 16:  ES64L-G16RevA.03 25-Dec-2016

 ----------------------------------------------------------------------
 #P Freq PBEPBE/6-31G* 5D 7F Integral=UltraFineGrid SCF=(NoSymm,XQC,Max
 Cyc=120) EmpiricalDispersion=GD3BJ IOp(1/33=1) Geom=Check Guess=Read
 ----------------------------------------------------------------------

 TstMul:  Mul=     2
 TstMul:  ICh=     0
 TstMul:  Mul=     2
 Structure from the checkpoint file:  "MN_90_RKT16_BH76_PBEDBJ_631Gs.chk"
 Charge =  0 Multiplicity = 2

                         Standard orientation:
 ---------------------------------------------------------------------
 Center     Atomic      Atomic             Coordinates (Angstroms)
 Number     Number       Type             X           Y           Z
 ---------------------------------------------------------------------
      1          1           0        1.298140   -0.169310    0.000000
      2         16           0        0.000000    0.234935    0.000000
      3          1           0       -0.453964   -1.084734    0.000000
      4          1           0       -0.844176   -2.504923    0.000000
 ---------------------------------------------------------------------

 SCF Done:  E(UPBE-PBE) =  -399.681815087     A.U. after    1 cycles

 The electronic state is 2-A'.
 Alpha  occ. eigenvalues --  -88.04653  -7.67774  -5.70122  -5.69784  -5.68823
 Alpha  occ. eigenvalues --   -0.67878  -0.41836  -0.34363  -0.26961  -0.22285
 Alpha virt. eigenvalues --   -0.00507   0.05043   0.29852   0.30596   0.32449
 Alpha virt. eigenvalues --    0.33808   0.65957   0.67463   0.68089   0.70017
 Alpha virt. eigenvalues --    0.70741   0.80907   0.94534   1.10981
  Beta  occ. eigenvalues --  -88.04564  -7.67683  -5.69965  -5.69630  -5.68766
  Beta  occ. eigenvalues --   -0.67352  -0.40694  -0.33071  -0.22063
  Beta virt. eigenvalues --   -0.13412   0.00150   0.07583   0.30061   0.31313
  Beta virt. eigenvalues --    0.33405   0.33923   0.66417   0.68387   0.70504
  Beta virt. eigenvalues --    0.71325   0.79118   0.89172   0.94676   1.11360

 Mulliken charges and spin densities:
               1          2
     1  H    0.130533  -0.003603
     2  S   -0.200134   0.154802
     3  H    0.030910  -0.044310
     4  H    0.038690   0.893111
 Sum of Mulliken charges =  -0.00000   1.00000

 Dipole moment (field-independent basis, Debye):
    X=              0.6516    Y=             -1.3947    Z=              0.0000  Tot=              1.5394
 Quadrupole moment (field-independent basis, Debye-Ang):
   XX=            -13.6957   YY=            -14.4580   ZZ=            -17.9310
   XY=              0.6234   XZ=              0.0000   YZ=              0.0000

  Exact polarizability:  18.678   5.127  30.667  -0.000  -0.000  11.266
 Approx polarizability:  31.313   7.589  47.149  -0.000  -0.000  15.555

 ******    1 imaginary frequencies (negative Signs) ******

                      1                      2                      3
                     A'                     A'                     A"
 Frequencies --   -457.5172               330.6150               364.0505
 Red. masses --      1.0248                 1.0176                 1.0153
 Frc consts  --      0.1264                 0.0655                 0.0793
 IR Inten    --     15.4271                 7.9539                12.3684

                      4                      5                      6
                     A'                     A'                     A'
 Frequencies --   1183.3834              2059.5812              2634.0279
 Red. masses --      1.0389                 1.0475                 1.0381
 Frc consts  --      0.8572                 2.6180                 4.2434
 IR Inten    --      4.5784                 1.8724                12.0936

 - Thermochemistry -
 -------------------
 Temperature   298.150 Kelvin.  Pressure   1.00000 Atm.
 Atom     1 has atomic number  1 and mass   1.00783

 Molecular mass:    34.99555 amu.
 Principal axes and moments of inertia in atomic units:
                           1         2         3
     Eigenvalues --     6.45931  34.71992  41.17923
           X            0.32100   0.94708   0.00000
           Y            0.94708  -0.32100   0.00000
           Z            0.00000   0.00000   1.00000
 This molecule is an asymmetric top.
 Rotational symmetry number  1.
 Rotational temperatures (Kelvin)     13.40916     2.49465     2.10334
 Rotational constants (GHZ):         279.40148    51.98000    43.82649
    1 imaginary frequencies ignored.
 Zero-point vibrational energy      39307.2 (Joules/Mol)
                                    9.39466 (Kcal/Mol)
 Warning -- explicit consideration of   2 degrees of freedom as
           vibrations may cause significant error
 Vibrational temperatures:    475.68   523.79  1702.62  2963.28  3789.78
          (Kelvin)

 Zero-point correction=                           0.014971 (Hartree/Particle)
 Thermal correction to Energy=                    0.018552
 Thermal correction to Enthalpy=                  0.019496
 Thermal correction to Gibbs Free Energy=        -0.007705
 Sum of electronic and zero-point Energies=           -399.666844
 Sum of electronic and thermal Energies=              -399.663264
 Sum of electronic and thermal Enthalpies=            -399.662319
 Sum of electronic and thermal Free Energies=         -399.689520

                     E (Thermal)             CV                S
                      KCal/Mol        Cal/Mol-Kelvin    Cal/Mol-Kelvin
 Total                   11.641              9.349             57.248
 Electronic               0.000              0.000              1.377
 Translational            0.889              2.981             36.588
 Rotational               0.889              2.981             16.875
 Vibrational              9.864              3.387              2.407
 Vibration     1          0.713              1.614              1.257
 Vibration     2          0.738              1.546              1.105

                           ! Non-Optimized Parameters !
 Normal termination of Gaussian 16 at Wed Oct  7 12:58:14 2020.
