 Gaussian 16, Revision A.03,

 ----------------------------------------------------------------------
 #P Opt(TS,MaxCyc=50,NoEigenTest,MaxStep=10,AddRedundant) PBEPBE/6-31G*
  5D 7F Integral=UltraFineGrid SCF=(NoSymm,XQC,MaxCyc=120) EmpiricalDis
 persion=GD3BJ IOp(1/33=1)
 ----------------------------------------------------------------------

 TstMul:  Mul=     2
 TstMul:  ICh=     0
 TstMul:  Mul=     2
 Symbolic Z-matrix:
 Charge =  0 Multiplicity = 2

 SCF Done:  E(UPBE-PBE) =  -96.2329550774     A.U. after   13 cycles
 SCF Done:  E(UPBE-PBE) =  -96.2331353988     A.U. after   10 cycles
 SCF Done:  E(UPBE-PBE) =  -96.2339531988     A.U. after   13 cycles
 SCF Done:  E(UPBE-PBE) =  -96.2341161351     A.U. after   12 cycles
 SCF Done:  E(UPBE-PBE) =  -96.2341808334     A.U. after   12 cycles
 SCF Done:  E(UPBE-PBE) =  -96.2341962977     A.U. after   12 cycles
 SCF Done:  E(UPBE-PBE) =  -96.2342842899     A.U. after   12 cycles
 SCF Done:  E(UPBE-PBE) =  -96.2340957902     A.U. after   13 cycles
 SCF Done:  E(UPBE-PBE) =  -96.2340654048     A.U. after   12 cycles
 SCF Done:  E(UPBE-PBE) =  -96.2340668459     A.U. after    8 cycles
 SCF Done:  E(UPBE-PBE) =  -96.2340669469     A.U. after   10 cycles
 SCF Done:  E(UPBE-PBE) =  -96.2340670256     A.U. after   10 cycles
 SCF Done:  E(UPBE-PBE) =  -96.2340671685     A.U. after    8 cycles
 SCF Done:  E(UPBE-PBE) =  -96.2340681147     A.U. after    9 cycles
 SCF Done:  E(UPBE-PBE) =  -96.2340708963     A.U. after   11 cycles
 SCF Done:  E(UPBE-PBE) =  -96.2340847511     A.U. after   13 cycles
 SCF Done:  E(UPBE-PBE) =  -96.2340891700     A.U. after   11 cycles
 SCF Done:  E(UPBE-PBE) =  -96.2340897816     A.U. after    8 cycles
 SCF Done:  E(UPBE-PBE) =  -96.2340899584     A.U. after    8 cycles
 Optimization completed.
    -- Stationary point found.
 Normal termination of Gaussian 16 at Wed Oct  7 12:59:57 2020.
 Gaussian 16:  ES64L-G16RevA.03 25-Dec-2016

 ----------------------------------------------------------------------
 #P Freq PBEPBE/6-31G* 5D 7F Integral=UltraFineGrid SCF=(NoSymm,XQC,Max
 Cyc=120) EmpiricalDispersion=GD3BJ IOp(1/33=1) Geom=Check Guess=Read
 ----------------------------------------------------------------------

 TstMul:  Mul=     2
 TstMul:  ICh=     0
 TstMul:  Mul=     2
 Structure from the checkpoint file:  "MN_95_RKT21_BH76_PBEDBJ_631Gs.chk"
 Charge =  0 Multiplicity = 2

                         Standard orientation:
 ---------------------------------------------------------------------
 Center     Atomic      Atomic             Coordinates (Angstroms)
 Number     Number       Type             X           Y           Z
 ---------------------------------------------------------------------
      1          6           0       -1.264334   -0.000024    0.014075
      2          7           0        1.319926   -0.000033   -0.140601
      3          1           0       -1.615485    0.922593   -0.467207
      4          1           0       -1.425488   -0.010617    1.099552
      5          1           0       -1.618546   -0.911572   -0.485683
      6          1           0        0.061064   -0.000234   -0.229176
      7          1           0        1.472315    0.809589    0.491010
      8          1           0        1.472662   -0.809388    0.491259
 ---------------------------------------------------------------------

 SCF Done:  E(UPBE-PBE) =  -96.2340899584     A.U. after    1 cycles

 The electronic state is 2-A.
 Alpha  occ. eigenvalues --  -13.99119  -9.88711  -0.76721  -0.61970  -0.40347
 Alpha  occ. eigenvalues --   -0.39141  -0.35637  -0.35500  -0.24488  -0.17822
 Alpha virt. eigenvalues --    0.05866   0.10579   0.12770   0.14200   0.14619
 Alpha virt. eigenvalues --    0.25491   0.47429   0.48528   0.52132   0.66200
 Alpha virt. eigenvalues --    0.68772   0.69088   0.82474   0.83106   0.83957

  Beta  occ. eigenvalues --  -13.98044  -9.87909  -0.74323  -0.60209  -0.39612
  Beta  occ. eigenvalues --   -0.36970  -0.34934  -0.34876  -0.22536
  Beta virt. eigenvalues --   -0.12075   0.06513   0.11268   0.13168   0.14789
  Beta virt. eigenvalues --    0.15193   0.27012   0.47876   0.49317   0.55688
  Beta virt. eigenvalues --    0.68213   0.69041   0.71202   0.83065   0.83782

 Mulliken charges and spin densities:
               1          2
     1  C   -0.688735   0.550029
     2  N   -0.757774   0.571477
     3  H    0.186919  -0.013110
     4  H    0.176456  -0.018420
     5  H    0.187052  -0.013022
     6  H    0.306057  -0.047009
     7  H    0.295012  -0.014974
     8  H    0.295012  -0.014971
 Sum of Mulliken charges =  -0.00000   1.00000

 Dipole moment (field-independent basis, Debye):
    X=             -0.5435    Y=              0.0003    Z=              1.6620  Tot=              1.7486
 Quadrupole moment (field-independent basis, Debye-Ang):
   XX=            -16.2712   YY=            -13.6559   ZZ=            -15.4865
   XY=              0.0005   XZ=              3.0122   YZ=              0.0004

  Exact polarizability:  43.773   0.000  21.946   0.651   0.000  19.625
 Approx polarizability:  75.953   0.001  31.887  -1.697   0.001  28.430

 ******    1 imaginary frequencies (negative Signs) ******

                      1                      2                      3
                      A                      A                      A
 Frequencies --  -1313.6476                34.4474               375.6225
 Red. masses --      1.0749                 1.0258                 1.2453
 Frc consts  --      1.0929                 0.0007                 0.1035
 IR Inten    --    146.8949                33.1104                 8.9442

                      4                      5                      6
                      A                      A                      A
 Frequencies --    396.6999               562.9863               775.9310
 Red. masses --      1.0265                 2.2784                 1.1086
 Frc consts  --      0.0952                 0.4255                 0.3933
 IR Inten    --      2.7221                 3.8094                 6.7147

                      7                      8                      9
                      A                      A                      A
 Frequencies --    850.9512              1132.6512              1384.7066
 Red. masses --      1.2762                 1.1716                 1.1221
 Frc consts  --      0.5445                 0.8856                 1.2676
 IR Inten    --    114.3635                11.9840               130.5855

                     10                     11                     12
                      A                      A                      A
 Frequencies --   1411.5922              1424.1542              1511.8750
 Red. masses --      1.0950                 1.0483                 1.0301
 Frc consts  --      1.2855                 1.2528                 1.3872
 IR Inten    --     10.9836                19.5081                12.0154

                     13                     14                     15
                      A                      A                      A
 Frequencies --   1607.6770              3024.3804              3156.5522
 Red. masses --      1.0607                 1.0207                 1.1090
 Frc consts  --      1.6152                 5.5010                 6.5106
 IR Inten    --     18.2296                 2.1658                10.6739

                     16                     17                     18
                      A                      A                      A
 Frequencies --   3159.8520              3275.2320              3381.2379
 Red. masses --      1.1091                 1.0500                 1.0877
 Frc consts  --      6.5249                 6.6360                 7.3269
 IR Inten    --     12.7522                10.4545                 4.3838

 - Thermochemistry -
 -------------------
 Temperature   298.150 Kelvin.  Pressure   1.00000 Atm.
 Atom     1 has atomic number  6 and mass  12.00000

 Molecular mass:    32.05002 amu.
 Principal axes and moments of inertia in atomic units:
                           1         2         3
     Eigenvalues --    19.46706 205.89480 207.96995
           X            0.99967   0.00000   0.02558
           Y           -0.00000   1.00000  -0.00003
           Z           -0.02558   0.00003   0.99967
 This molecule is an asymmetric top.
 Rotational symmetry number  1.
 Rotational temperatures (Kelvin)      4.44926     0.42067     0.41647
 Rotational constants (GHZ):          92.70744     8.76536     8.67789
    1 imaginary frequencies ignored.
 Zero-point vibrational energy     164286.4 (Joules/Mol)
                                   39.26540 (Kcal/Mol)
 Warning -- explicit consideration of   4 degrees of freedom as
           vibrations may cause significant error
 Vibrational temperatures:     49.56   540.44   570.76   810.01  1116.39
          (Kelvin)           1224.33  1629.63  1992.28  2030.97  2049.04
                             2175.25  2313.09  4351.41  4541.57  4546.32
                             4712.33  4864.85

 Zero-point correction=                           0.062573 (Hartree/Particle)
 Thermal correction to Energy=                    0.067304
 Thermal correction to Enthalpy=                  0.068248
 Thermal correction to Gibbs Free Energy=         0.036091
 Sum of electronic and zero-point Energies=            -96.171517
 Sum of electronic and thermal Energies=               -96.166786
 Sum of electronic and thermal Enthalpies=             -96.165842
 Sum of electronic and thermal Free Energies=          -96.197999

                     E (Thermal)             CV                S
                      KCal/Mol        Cal/Mol-Kelvin    Cal/Mol-Kelvin
 Total                   42.234             14.004             67.681
 Electronic               0.000              0.000              1.377
 Translational            0.889              2.981             36.326
 Rotational               0.889              2.981             21.349
 Vibrational             40.456              8.042              8.628
 Vibration     1          0.594              1.983              5.555
 Vibration     2          0.746              1.522              1.057
 Vibration     3          0.763              1.477              0.975
 Vibration     4          0.919              1.111              0.518

                           ! Non-Optimized Parameters !
 Normal termination of Gaussian 16 at Wed Oct  7 13:00:27 2020.
