 Gaussian 16, Revision A.03,
 Gaussian 16:  ES64L-G16RevA.03 25-Dec-2016

 ----------------------------------------------------------------------
 #P Opt(MaxCyc=100) PBE1PBE/6-31G* 5D 7F Integral=UltraFineGrid SCF=(No
 Symm,XQC,MaxCyc=120) EmpiricalDispersion=GD3BJ IOp(1/33=1)
 ----------------------------------------------------------------------

 TstMul:  Mul=     1
 TstMul:  ICh=     0
 TstMul:  Mul=     1
 Symbolic Z-matrix:
 Charge =  0 Multiplicity = 1

 SCF Done:  E(RPBE1PBE) =  -195.062816493     A.U. after   12 cycles
 SCF Done:  E(RPBE1PBE) =  -195.063063120     A.U. after   10 cycles
 SCF Done:  E(RPBE1PBE) =  -195.063069579     A.U. after    8 cycles
 SCF Done:  E(RPBE1PBE) =  -195.063070004     A.U. after    7 cycles
 Optimization completed.
    -- Stationary point found.

                         Standard orientation:
 ---------------------------------------------------------------------
 Center     Atomic      Atomic             Coordinates (Angstroms)
 Number     Number       Type             X           Y           Z
 ---------------------------------------------------------------------
      1          6           0       -2.057350   -0.608026    0.000001
      2          6           0       -1.231862    0.636897    0.000049
      3          6           0        0.108318    0.730093    0.000034
      4          6           0        1.057222   -0.369410   -0.000035
      5          6           0        2.385614   -0.200333   -0.000044
      6          1           0       -2.713662   -0.638322    0.879650
      7          1           0       -2.713694   -0.638232   -0.879627
      8          1           0       -1.455984   -1.520467   -0.000057
      9          1           0       -1.797660    1.568256    0.000104
     10          1           0        0.550131    1.726603    0.000076
     11          1           0        0.659090   -1.382562   -0.000080
     12          1           0        3.069840   -1.043320   -0.000096
     13          1           0        2.830293    0.792721   -0.000000
 ---------------------------------------------------------------------

 The electronic state is 1-A.
 Alpha  occ. eigenvalues --  -10.23133 -10.22962 -10.22447 -10.22090 -10.21900
 Alpha  occ. eigenvalues --   -0.83037  -0.77500  -0.70134  -0.60654  -0.54388
 Alpha  occ. eigenvalues --   -0.48943  -0.45786  -0.42403  -0.41305  -0.38944
 Alpha  occ. eigenvalues --   -0.37714  -0.33948  -0.32210  -0.22756
 Alpha virt. eigenvalues --   -0.01057   0.09982   0.11665   0.12339   0.14780
 Alpha virt. eigenvalues --    0.17722   0.18650   0.18987   0.21044   0.24582
 Alpha virt. eigenvalues --    0.26633   0.34569   0.39316   0.45255   0.49457

 Mulliken charges:
               1
     1  C   -0.575161
     2  C   -0.148909
     3  C   -0.152877
     4  C   -0.099863
     5  C   -0.411422
     6  H    0.190096
     7  H    0.190096
     8  H    0.184962
     9  H    0.163136
    10  H    0.157811
    11  H    0.160905
    12  H    0.171880
    13  H    0.169346
 Sum of Mulliken charges =   0.00000

 Dipole moment (field-independent basis, Debye):
    X=             -0.5110    Y=             -0.1333    Z=              0.0000  Tot=              0.5281
 Quadrupole moment (field-independent basis, Debye-Ang):
   XX=            -28.4642   YY=            -29.1265   ZZ=            -34.3269
   XY=              0.0741   XZ=             -0.0001   YZ=              0.0003

 Normal termination of Gaussian 16 at Wed Oct  7 14:31:25 2020.
