 Gaussian 16, Revision A.03,
 Gaussian 16:  ES64L-G16RevA.03 25-Dec-2016

 ----------------------------------------------------------------------
 #P Opt(MaxCyc=100) PBE1PBE/6-31G* 5D 7F Integral=UltraFineGrid SCF=(No
 Symm,XQC,MaxCyc=120) EmpiricalDispersion=GD3BJ IOp(1/33=1)
 ----------------------------------------------------------------------

 TstMul:  Mul=     1
 TstMul:  ICh=     0
 TstMul:  Mul=     1
 Symbolic Z-matrix:
 Charge =  0 Multiplicity = 1

 SCF Done:  E(RPBE1PBE) =  -499.886306213     A.U. after   11 cycles
 SCF Done:  E(RPBE1PBE) =  -499.886389292     A.U. after    8 cycles
 SCF Done:  E(RPBE1PBE) =  -499.886391344     A.U. after    7 cycles
 Optimization completed.
    -- Stationary point found.

                         Standard orientation:
 ---------------------------------------------------------------------
 Center     Atomic      Atomic             Coordinates (Angstroms)
 Number     Number       Type             X           Y           Z
 ---------------------------------------------------------------------
      1          6           0        0.000000    0.000000   -1.124312
      2         17           0        0.000000    0.000000    0.657143
      3          1           0        0.000000    1.032572   -1.475185
      4          1           0        0.894234   -0.516286   -1.475185
      5          1           0       -0.894234   -0.516286   -1.475185
 ---------------------------------------------------------------------

 The electronic state is 1-A1.
 Alpha  occ. eigenvalues -- -101.68789 -10.28254  -9.51856  -7.25406  -7.24392
 Alpha  occ. eigenvalues --   -7.24392  -0.87638  -0.69731  -0.46495  -0.46495
 Alpha  occ. eigenvalues --   -0.42821  -0.30781  -0.30781
 Alpha virt. eigenvalues --    0.04235   0.12134   0.15488   0.15488   0.42508
 Alpha virt. eigenvalues --    0.45567   0.47949   0.47949   0.54433   0.54433
 Alpha virt. eigenvalues --    0.58023   0.85543   0.85543   0.90433   0.91163

 Mulliken charges:
               1
     1  C   -0.615032
     2  Cl  -0.071107
     3  H    0.228713
     4  H    0.228713
     5  H    0.228713
 Sum of Mulliken charges =  -0.00000

 Dipole moment (field-independent basis, Debye):
    X=             -0.0000    Y=             -0.0000    Z=             -2.0606  Tot=              2.0606
 Quadrupole moment (field-independent basis, Debye-Ang):
   XX=            -19.7238   YY=            -19.7238   ZZ=            -17.9611
   XY=             -0.0000   XZ=              0.0000   YZ=              0.0000

 Normal termination of Gaussian 16 at Wed Oct  7 14:30:41 2020.
