 Gaussian 16, Revision A.03,
 Gaussian 16:  ES64L-G16RevA.03 25-Dec-2016

 ----------------------------------------------------------------------
 #P Opt(MaxCyc=100) PBE1PBE/6-31G* 5D 7F Integral=UltraFineGrid SCF=(No
 Symm,XQC,MaxCyc=120) EmpiricalDispersion=GD3BJ IOp(1/33=1)
 ----------------------------------------------------------------------

 TstMul:  Mul=     2
 TstMul:  ICh=     0
 TstMul:  Mul=     2
 Symbolic Z-matrix:
 Charge =  0 Multiplicity = 2

 SCF Done:  E(UPBE1PBE) =  -79.0519249665     A.U. after   13 cycles
 SCF Done:  E(UPBE1PBE) =  -79.0520514507     A.U. after   10 cycles
 SCF Done:  E(UPBE1PBE) =  -79.0520555805     A.U. after    9 cycles
 Optimization completed.
    -- Stationary point found.

                         Standard orientation:
 ---------------------------------------------------------------------
 Center     Atomic      Atomic             Coordinates (Angstroms)
 Number     Number       Type             X           Y           Z
 ---------------------------------------------------------------------
      1          6           0        0.792411    0.000002   -0.023097
      2          6           0       -0.692110    0.000168   -0.000509
      3          1           0       -1.105859    0.892993   -0.483807
      4          1           0        1.349979   -0.928170    0.050474
      5          1           0       -1.090502   -0.012299    1.028922
      6          1           0       -1.106290   -0.881120   -0.504572
      7          1           0        1.350867    0.927576    0.050618
 ---------------------------------------------------------------------

 The electronic state is 2-A.
 Alpha  occ. eigenvalues --  -10.22700 -10.21687  -0.77508  -0.62283  -0.45948
 Alpha  occ. eigenvalues --   -0.42228  -0.39885  -0.36308  -0.20978
 Alpha virt. eigenvalues --    0.12910   0.15338   0.16027   0.19021   0.23471
 Alpha virt. eigenvalues --    0.27151   0.52801   0.55775   0.57068   0.63405
 Alpha virt. eigenvalues --    0.63915   0.76231   0.81824   0.89454   0.90042

  Beta  occ. eigenvalues --  -10.21801 -10.21140  -0.75594  -0.59524  -0.45231
  Beta  occ. eigenvalues --   -0.40533  -0.39009  -0.35847
  Beta virt. eigenvalues --   -0.01702   0.13405   0.16269   0.16881   0.19871
  Beta virt. eigenvalues --    0.23971   0.28124   0.53462   0.56087   0.61894
  Beta virt. eigenvalues --    0.65938   0.67731   0.76995   0.83903   0.90102

 Mulliken charges and spin densities:
               1          2
     1  C   -0.346143   1.115629
     2  C   -0.547615  -0.095526
     3  H    0.183947   0.014982
     4  H    0.170139  -0.058034
     5  H    0.185321   0.064874
     6  H    0.184056   0.016147
     7  H    0.170296  -0.058071
 Sum of Mulliken charges =   0.00000   1.00000

 Dipole moment (field-independent basis, Debye):
    X=             -0.2114    Y=             -0.0004    Z=              0.1388  Tot=              0.2529
 Quadrupole moment (field-independent basis, Debye-Ang):
   XX=            -13.8836   YY=            -13.3288   ZZ=            -14.9180
   XY=              0.0012   XZ=              0.1722   YZ=              0.0002

 Normal termination of Gaussian 16 at Wed Oct  7 14:29:52 2020.
