 Gaussian 16, Revision A.03,

 ----------------------------------------------------------------------
 #P Opt(TS,MaxCyc=50,NoEigenTest,MaxStep=10,AddRedundant) PBE1PBE/6-31G
 * 5D 7F Integral=UltraFineGrid SCF=(NoSymm,XQC,MaxCyc=120) EmpiricalDi
 spersion=GD3BJ IOp(1/33=1)
 ----------------------------------------------------------------------

 TstMul:  Mul=     2
 TstMul:  ICh=     0
 TstMul:  Mul=     2
 Symbolic Z-matrix:
 Charge =  0 Multiplicity = 2

 SCF Done:  E(UPBE1PBE) =  -118.259021953     A.U. after   18 cycles
 SCF Done:  E(UPBE1PBE) =  -118.260291219     A.U. after   15 cycles
 SCF Done:  E(UPBE1PBE) =  -118.259108490     A.U. after   16 cycles
 SCF Done:  E(UPBE1PBE) =  -118.258361396     A.U. after   16 cycles
 SCF Done:  E(UPBE1PBE) =  -118.258001995     A.U. after   16 cycles
 SCF Done:  E(UPBE1PBE) =  -118.257933863     A.U. after   15 cycles
 SCF Done:  E(UPBE1PBE) =  -118.257932555     A.U. after   11 cycles
 SCF Done:  E(UPBE1PBE) =  -118.257933352     A.U. after   10 cycles
 SCF Done:  E(UPBE1PBE) =  -118.257938861     A.U. after   11 cycles
 SCF Done:  E(UPBE1PBE) =  -118.257942347     A.U. after   12 cycles
 SCF Done:  E(UPBE1PBE) =  -118.257948818     A.U. after   12 cycles
 SCF Done:  E(UPBE1PBE) =  -118.257951539     A.U. after   11 cycles
 SCF Done:  E(UPBE1PBE) =  -118.257952736     A.U. after   11 cycles
 SCF Done:  E(UPBE1PBE) =  -118.257953057     A.U. after   10 cycles
 SCF Done:  E(UPBE1PBE) =  -118.257953173     A.U. after   10 cycles
 Optimization completed.
    -- Stationary point found.
 Normal termination of Gaussian 16 at Wed Oct  7 14:33:35 2020.
 Gaussian 16:  ES64L-G16RevA.03 25-Dec-2016

 ----------------------------------------------------------------------
 #P Freq PBE1PBE/6-31G* 5D 7F Integral=UltraFineGrid SCF=(NoSymm,XQC,Ma
 xCyc=120) EmpiricalDispersion=GD3BJ IOp(1/33=1) Geom=Check Guess=Read
 ----------------------------------------------------------------------

 TstMul:  Mul=     2
 TstMul:  ICh=     0
 TstMul:  Mul=     2
 Structure from the checkpoint file:  "MN_17_c3h7ts_BH76_PBE0DBJ_631Gs.chk"
 Charge =  0 Multiplicity = 2

                         Standard orientation:
 ---------------------------------------------------------------------
 Center     Atomic      Atomic             Coordinates (Angstroms)
 Number     Number       Type             X           Y           Z
 ---------------------------------------------------------------------
      1          6           0       -0.534118    0.646137    0.000044
      2          6           0       -1.415439   -0.375032   -0.000028
      3          1           0       -0.261840    1.152717   -0.921643
      4          1           0       -0.261540    1.152342    0.921849
      5          1           0       -1.765632   -0.825342    0.924880
      6          1           0       -1.765923   -0.824922   -0.925031
      7          6           0        1.699874   -0.233587   -0.000041
      8          1           0        2.241645    0.706658   -0.011871
      9          1           0        1.652262   -0.802966   -0.920919
     10          1           0        1.659121   -0.783589    0.932884
 ---------------------------------------------------------------------

 SCF Done:  E(UPBE1PBE) =  -118.257953173     A.U. after    1 cycles

 The electronic state is 2-A.
 Alpha  occ. eigenvalues --  -10.22616 -10.22420 -10.21888  -0.77539  -0.69436
 Alpha  occ. eigenvalues --   -0.59121  -0.47443  -0.42782  -0.41553  -0.41132
 Alpha  occ. eigenvalues --   -0.35888  -0.30310  -0.19793
 Alpha virt. eigenvalues --    0.04418   0.11503   0.15315   0.15585   0.18370
 Alpha virt. eigenvalues --    0.19718   0.19792   0.26071   0.34067   0.47633
 Alpha virt. eigenvalues --    0.55039   0.55631   0.57686   0.62061   0.62108

  Beta  occ. eigenvalues --  -10.22925 -10.21298 -10.20982  -0.76986  -0.65678
  Beta  occ. eigenvalues --   -0.58592  -0.47263  -0.42310  -0.40610  -0.40377
  Beta  occ. eigenvalues --   -0.35741  -0.27425
  Beta virt. eigenvalues --   -0.03565   0.06735   0.12207   0.15649   0.16138
  Beta virt. eigenvalues --    0.18669   0.20417   0.20499   0.26170   0.34315
  Beta virt. eigenvalues --    0.48268   0.55567   0.57605   0.60093   0.62526

 Mulliken charges and spin densities:
               1          2
     1  C   -0.336434  -0.244209
     2  C   -0.347170   0.420002
     3  H    0.180899   0.013657
     4  H    0.180920   0.013656
     5  H    0.167518  -0.021740
     6  H    0.167513  -0.021741
     7  C   -0.557041   0.969071
     8  H    0.177030  -0.041213
     9  H    0.183444  -0.043739
    10  H    0.183320  -0.043744
 Sum of Mulliken charges =  -0.00000   1.00000

 Dipole moment (field-independent basis, Debye):
    X=              0.1987    Y=              0.0570    Z=              0.0002  Tot=              0.2067
 Quadrupole moment (field-independent basis, Debye-Ang):
   XX=            -22.0494   YY=            -20.3071   ZZ=            -19.1324
   XY=              1.5755   XZ=              0.0004   YZ=             -0.0002

  Exact polarizability:  48.823   7.661  31.693  -0.000  -0.003  30.740
 Approx polarizability:  61.138  13.557  42.113   0.000  -0.002  38.168

 ******    1 imaginary frequencies (negative Signs) ******

                      1                      2                      3
                      A                      A                      A
 Frequencies --   -336.6940                87.2836               206.1910
 Red. masses --      9.6943                 1.0904                 2.4962
 Frc consts  --      0.6475                 0.0049                 0.0625
 IR Inten    --      0.6726                 0.0060                 0.7152

                      4                      5                      6
                      A                      A                      A
 Frequencies --    334.7197               441.9042               464.2392
 Red. masses --      1.0597                 1.1076                 1.0908
 Frc consts  --      0.0699                 0.1274                 0.1385
 IR Inten    --      0.1556                 1.7947                 0.8728

                      7                      8                      9
                      A                      A                      A
 Frequencies --    734.0244               825.9747               881.1069
 Red. masses --      1.0690                 1.0426                 1.4298
 Frc consts  --      0.3394                 0.4191                 0.6540
 IR Inten    --     11.1581                 1.1029                28.2950

                     10                     11                     12
                      A                      A                      A
 Frequencies --    940.8711              1036.3628              1244.7726
 Red. masses --      1.1511                 1.0179                 1.4977
 Frc consts  --      0.6004                 0.6441                 1.3672
 IR Inten    --     63.3256                 0.0442                 0.0495

                     13                     14                     15
                      A                      A                      A
 Frequencies --   1345.1822              1438.0100              1443.4560
 Red. masses --      1.4637                 1.0961                 1.0954
 Frc consts  --      1.5606                 1.3355                 1.3447
 IR Inten    --      0.4755                 2.5505                 2.2653

                     16                     17                     18
                      A                      A                      A
 Frequencies --   1483.7361              1635.9425              3150.0689
 Red. masses --      1.1130                 2.1728                 1.0115
 Frc consts  --      1.4436                 3.4262                 5.9138
 IR Inten    --      5.6594                 0.1644                 0.0340

                     19                     20                     21
                      A                      A                      A
 Frequencies --   3181.0136              3193.0357              3260.2003
 Red. masses --      1.0482                 1.0670                 1.1156
 Frc consts  --      6.2492                 6.4096                 6.9866
 IR Inten    --     12.9956                 0.5957                 0.4183

                     22                     23                     24
                      A                      A                      A
 Frequencies --   3285.0683              3316.2510              3326.9250
 Red. masses --      1.1181                 1.1163                 1.1165
 Frc consts  --      7.1091                 7.2330                 7.2811
 IR Inten    --     19.9871                 7.2744                 7.5716

 - Thermochemistry -
 -------------------
 Temperature   298.150 Kelvin.  Pressure   1.00000 Atm.
 Atom     1 has atomic number  6 and mass  12.00000

 Molecular mass:    43.05478 amu.
 Principal axes and moments of inertia in atomic units:
                           1         2         3
     Eigenvalues --    65.41555 301.01874 329.51692
           X            0.99982   0.01896   0.00000
           Y           -0.01896   0.99982  -0.00004
           Z           -0.00000   0.00004   1.00000
 This molecule is an asymmetric top.
 Rotational symmetry number  1.
 Rotational temperatures (Kelvin)      1.32406     0.28774     0.26285
 Rotational constants (GHZ):          27.58887     5.99544     5.47693
    1 imaginary frequencies ignored.
 Zero-point vibrational energy     222842.4 (Joules/Mol)
                                   53.26061 (Kcal/Mol)
 Warning -- explicit consideration of   5 degrees of freedom as
           vibrations may cause significant error
 Vibrational temperatures:    125.58   296.66   481.59   635.80   667.94
          (Kelvin)           1056.10  1188.39  1267.72  1353.70  1491.09
                             1790.95  1935.42  2068.98  2076.81  2134.77
                             2353.76  4532.25  4576.77  4594.07  4690.70
                             4726.48  4771.35  4786.70

 Zero-point correction=                           0.084876 (Hartree/Particle)
 Thermal correction to Energy=                    0.090271
 Thermal correction to Enthalpy=                  0.091216
 Thermal correction to Gibbs Free Energy=         0.057247
 Sum of electronic and zero-point Energies=           -118.173077
 Sum of electronic and thermal Energies=              -118.167682
 Sum of electronic and thermal Enthalpies=            -118.166738
 Sum of electronic and thermal Free Energies=         -118.200706

                     E (Thermal)             CV                S
                      KCal/Mol        Cal/Mol-Kelvin    Cal/Mol-Kelvin
 Total                   56.646             17.366             71.492
 Electronic               0.000              0.000              1.377
 Translational            0.889              2.981             37.206
 Rotational               0.889              2.981             23.388
 Vibrational             54.869             11.405              9.521
 Vibration     1          0.601              1.958              3.720
 Vibration     2          0.641              1.831              2.077
 Vibration     3          0.716              1.606              1.237
 Vibration     4          0.802              1.379              0.821
 Vibration     5          0.822              1.329              0.754

                           ! Non-Optimized Parameters !
 Normal termination of Gaussian 16 at Wed Oct  7 14:34:23 2020.
