 Gaussian 16, Revision A.03,
 Gaussian 16:  ES64L-G16RevA.03 25-Dec-2016

 ----------------------------------------------------------------------
 #P Opt(MaxCyc=100) PBE1PBE/6-31G* 5D 7F Integral=UltraFineGrid SCF=(No
 Symm,XQC,MaxCyc=120) EmpiricalDispersion=GD3BJ IOp(1/33=1)
 ----------------------------------------------------------------------

 TstMul:  Mul=     1
 TstMul:  ICh=     0
 TstMul:  Mul=     1
 Symbolic Z-matrix:
 Charge =  0 Multiplicity = 1

 SCF Done:  E(RPBE1PBE) =  -78.4801367839     A.U. after    9 cycles
 SCF Done:  E(RPBE1PBE) =  -78.4802343538     A.U. after    6 cycles
 SCF Done:  E(RPBE1PBE) =  -78.4802363912     A.U. after    6 cycles
 Optimization completed.
    -- Stationary point found.

                         Standard orientation:
 ---------------------------------------------------------------------
 Center     Atomic      Atomic             Coordinates (Angstroms)
 Number     Number       Type             X           Y           Z
 ---------------------------------------------------------------------
      1          6           0        0.000000    0.000000    0.664551
      2          6           0        0.000000    0.000000   -0.664551
      3          1           0        0.000000    0.924617    1.236725
      4          1           0       -0.000000   -0.924617    1.236725
      5          1           0        0.000000    0.924617   -1.236725
      6          1           0       -0.000000   -0.924617   -1.236725
 ---------------------------------------------------------------------

 The electronic state is 1-AG.
 Alpha  occ. eigenvalues --  -10.22394 -10.22307  -0.77749  -0.59300  -0.47796
 Alpha  occ. eigenvalues --   -0.42693  -0.36185  -0.27808
 Alpha virt. eigenvalues --    0.02643   0.13576   0.15264   0.17255   0.26058
 Alpha virt. eigenvalues --    0.34217   0.49550   0.56967   0.58762   0.66166
 Alpha virt. eigenvalues --    0.67724   0.72540   0.87129   0.90049   0.95930

 Mulliken charges:
               1
     1  C   -0.344735
     2  C   -0.344735
     3  H    0.172368
     4  H    0.172368
     5  H    0.172368
     6  H    0.172368
 Sum of Mulliken charges =  -0.00000

 Dipole moment (field-independent basis, Debye):
    X=             -0.0000    Y=              0.0000    Z=              0.0000  Tot=              0.0000
 Quadrupole moment (field-independent basis, Debye-Ang):
   XX=            -15.1371   YY=            -11.9772   ZZ=            -11.8549
   XY=              0.0000   XZ=             -0.0000   YZ=              0.0000

 Normal termination of Gaussian 16 at Wed Oct  7 14:29:38 2020.
