 Gaussian 16, Revision A.03,

 ----------------------------------------------------------------------
 #P Opt(TS,MaxCyc=50,NoEigenTest,MaxStep=10,AddRedundant) PBE1PBE/6-31G
 * 5D 7F Integral=UltraFineGrid SCF=(NoSymm,XQC,MaxCyc=120) EmpiricalDi
 spersion=GD3BJ IOp(1/33=1)
 ----------------------------------------------------------------------

 TstMul:  Mul=     2
 TstMul:  ICh=     0
 TstMul:  Mul=     2
 Symbolic Z-matrix:
 Charge =  0 Multiplicity = 2

 SCF Done:  E(UPBE1PBE) =  -78.9798005506     A.U. after   17 cycles
 SCF Done:  E(UPBE1PBE) =  -78.9804684404     A.U. after   14 cycles
 SCF Done:  E(UPBE1PBE) =  -78.9798760937     A.U. after   15 cycles
 SCF Done:  E(UPBE1PBE) =  -78.9794458711     A.U. after   13 cycles
 SCF Done:  E(UPBE1PBE) =  -78.9791873321     A.U. after   15 cycles
 SCF Done:  E(UPBE1PBE) =  -78.9790607759     A.U. after   15 cycles
 SCF Done:  E(UPBE1PBE) =  -78.9790304309     A.U. after   15 cycles
 SCF Done:  E(UPBE1PBE) =  -78.9790296176     A.U. after   10 cycles
 SCF Done:  E(UPBE1PBE) =  -78.9790304955     A.U. after   10 cycles
 SCF Done:  E(UPBE1PBE) =  -78.9790334964     A.U. after   11 cycles
 SCF Done:  E(UPBE1PBE) =  -78.9790340296     A.U. after   10 cycles
 SCF Done:  E(UPBE1PBE) =  -78.9790341701     A.U. after   10 cycles
 Optimization completed.
    -- Stationary point found.
 Normal termination of Gaussian 16 at Wed Oct  7 14:31:54 2020.
 Gaussian 16:  ES64L-G16RevA.03 25-Dec-2016

 ----------------------------------------------------------------------
 #P Freq PBE1PBE/6-31G* 5D 7F Integral=UltraFineGrid SCF=(NoSymm,XQC,Ma
 xCyc=120) EmpiricalDispersion=GD3BJ IOp(1/33=1) Geom=Check Guess=Read
 ----------------------------------------------------------------------

 TstMul:  Mul=     2
 TstMul:  ICh=     0
 TstMul:  Mul=     2
 Structure from the checkpoint file:  "MN_13_c2h5ts_BH76_PBE0DBJ_631Gs.chk"
 Charge =  0 Multiplicity = 2

                         Standard orientation:
 ---------------------------------------------------------------------
 Center     Atomic      Atomic             Coordinates (Angstroms)
 Number     Number       Type             X           Y           Z
 ---------------------------------------------------------------------
      1          6           0       -0.546591    0.261662    0.002607
      2          6           0        0.749366   -0.065522   -0.000625
      3          1           0       -1.639966   -1.638107   -0.016632
      4          1           0       -1.088482    0.436865    0.928561
      5          1           0       -1.088236    0.456366   -0.919586
      6          1           0        1.300241   -0.205987   -0.926942
      7          1           0        1.299792   -0.225976    0.922707
 ---------------------------------------------------------------------

 SCF Done:  E(UPBE1PBE) =  -78.9790341701     A.U. after    1 cycles

 The electronic state is 2-A.
 Alpha  occ. eigenvalues --  -10.23223 -10.23061  -0.78419  -0.60067  -0.48276
 Alpha  occ. eigenvalues --   -0.43306  -0.36766  -0.33455  -0.25037
 Alpha virt. eigenvalues --    0.02584   0.13218   0.14952   0.16850   0.25663
 Alpha virt. eigenvalues --    0.33479   0.49005   0.57800   0.58048   0.63774
 Alpha virt. eigenvalues --    0.69699   0.74386   0.83488   0.86866   0.89330

  Beta  occ. eigenvalues --  -10.23372 -10.22720  -0.78094  -0.59774  -0.48177
  Beta  occ. eigenvalues --   -0.43098  -0.36685  -0.28694
  Beta virt. eigenvalues --   -0.04075   0.04703   0.13342   0.14988   0.17003
  Beta virt. eigenvalues --    0.25703   0.33582   0.49116   0.58108   0.58957
  Beta virt. eigenvalues --    0.65168   0.70406   0.75978   0.86903   0.89433

 Mulliken charges and spin densities:
               1          2
     1  C   -0.367077  -0.163442
     2  C   -0.329509   0.242771
     3  H   -0.028391   0.928435
     4  H    0.186021   0.008464
     5  H    0.186010   0.008458
     6  H    0.176473  -0.012343
     7  H    0.176474  -0.012342
 Sum of Mulliken charges =  -0.00000   1.00000

 Dipole moment (field-independent basis, Debye):
    X=              0.2575    Y=              0.3276    Z=              0.0034  Tot=              0.4167
 Quadrupole moment (field-independent basis, Debye-Ang):
   XX=            -13.7749   YY=            -16.5997   ZZ=            -13.2049
   XY=             -1.3808   XZ=             -0.0145   YZ=             -0.0363

  Exact polarizability:  35.511   1.594  17.648   0.015  -0.032  20.229
 Approx polarizability:  48.412  -0.974  19.508  -0.010  -0.056  24.271

 ******    1 imaginary frequencies (negative Signs) ******

                      1                      2                      3
                      A                      A                      A
 Frequencies --   -417.2965               266.3882               309.8022
 Red. masses --      1.1035                 1.2076                 1.0396
 Frc consts  --      0.1132                 0.0505                 0.0588
 IR Inten    --     36.6593                 1.8702                 0.0707

                      4                      5                      6
                      A                      A                      A
 Frequencies --    831.6773               949.2456               980.1469
 Red. masses --      1.0420                 1.4378                 1.1435
 Frc consts  --      0.4247                 0.7633                 0.6472
 IR Inten    --      1.3188                16.7626                80.9464

                      7                      8                      9
                      A                      A                      A
 Frequencies --   1064.0094              1245.0725              1382.6815
 Red. masses --      1.0091                 1.5174                 1.2710
 Frc consts  --      0.6731                 1.3860                 1.4317
 IR Inten    --      0.0402                 0.0013                 0.4657

                     10                     11                     12
                      A                      A                      A
 Frequencies --   1486.5295              1692.2641              3179.9954
 Red. masses --      1.1124                 2.8316                 1.0478
 Frc consts  --      1.4484                 4.7777                 6.2427
 IR Inten    --      8.1870                 2.6737                10.7960

                     13                     14                     15
                      A                      A                      A
 Frequencies --   3194.4135              3259.9178              3284.5470
 Red. masses --      1.0716                 1.1157                 1.1180
 Frc consts  --      6.4427                 6.9860                 7.1061
 IR Inten    --      1.4045                 0.0491                18.7861

 - Thermochemistry -
 -------------------
 Temperature   298.150 Kelvin.  Pressure   1.00000 Atm.
 Atom     1 has atomic number  6 and mass  12.00000

 Molecular mass:    29.03913 amu.
 Principal axes and moments of inertia in atomic units:
                           1         2         3
     Eigenvalues --    26.34328  79.70450  81.43915
           X            0.99679   0.08005   0.00030
           Y           -0.08005   0.99677  -0.00597
           Z           -0.00078   0.00592   0.99998
 This molecule is an asymmetric top.
 Rotational symmetry number  1.
 Rotational temperatures (Kelvin)      3.28789     1.08669     1.06354
 Rotational constants (GHZ):          68.50861    22.64290    22.16061
    1 imaginary frequencies ignored.
 Zero-point vibrational energy     138328.3 (Joules/Mol)
                                   33.06126 (Kcal/Mol)
 Warning -- explicit consideration of   2 degrees of freedom as
           vibrations may cause significant error
 Vibrational temperatures:    383.27   445.74  1196.60  1365.75  1410.21
          (Kelvin)           1530.87  1791.38  1989.37  2138.78  2434.79
                             4575.30  4596.05  4690.29  4725.73

 Zero-point correction=                           0.052686 (Hartree/Particle)
 Thermal correction to Energy=                    0.056603
 Thermal correction to Enthalpy=                  0.057548
 Thermal correction to Gibbs Free Energy=         0.028702
 Sum of electronic and zero-point Energies=            -78.926348
 Sum of electronic and thermal Energies=               -78.922431
 Sum of electronic and thermal Enthalpies=             -78.921487
 Sum of electronic and thermal Free Energies=          -78.950332

                     E (Thermal)             CV                S
                      KCal/Mol        Cal/Mol-Kelvin    Cal/Mol-Kelvin
 Total                   35.519             11.505             60.710
 Electronic               0.000              0.000              1.377
 Translational            0.889              2.981             36.032
 Rotational               0.889              2.981             19.775
 Vibrational             33.742              5.544              3.525
 Vibration     1          0.672              1.735              1.620
 Vibration     2          0.699              1.655              1.363

 Optimization completed.
    -- Stationary point found.
 Normal termination of Gaussian 16 at Wed Oct  7 14:32:22 2020.
