 Gaussian 16, Revision A.03,
 Gaussian 16:  ES64L-G16RevA.03 25-Dec-2016

 ----------------------------------------------------------------------
 #P Opt(MaxCyc=100) PBE1PBE/6-31G* 5D 7F Integral=UltraFineGrid SCF=(No
 Symm,XQC,MaxCyc=120) EmpiricalDispersion=GD3BJ IOp(1/33=1)
 ----------------------------------------------------------------------

 TstMul:  Mul=     1
 TstMul:  ICh=     0
 TstMul:  Mul=     1
 Symbolic Z-matrix:
 Charge =  0 Multiplicity = 1

 SCF Done:  E(RPBE1PBE) =  -79.7213369422     A.U. after    9 cycles
 SCF Done:  E(RPBE1PBE) =  -79.7214502180     A.U. after    7 cycles
 Optimization completed.
    -- Stationary point found.

                         Standard orientation:
 ---------------------------------------------------------------------
 Center     Atomic      Atomic             Coordinates (Angstroms)
 Number     Number       Type             X           Y           Z
 ---------------------------------------------------------------------
      1          6           0       -0.761813   -0.000000   -0.000000
      2          6           0        0.761814    0.000000   -0.000000
      3          1           0        1.159551   -0.386661   -0.944854
      4          1           0       -1.159553   -1.011482   -0.138417
      5          1           0        1.159553   -0.624938    0.807284
      6          1           0        1.159553    1.011598    0.137569
      7          1           0       -1.159551    0.385867    0.945179
      8          1           0       -1.159554    0.625616   -0.806759
 ---------------------------------------------------------------------

 The electronic state is 1-A.
 Alpha  occ. eigenvalues --  -10.20959 -10.20941  -0.77082  -0.62883  -0.44296
 Alpha  occ. eigenvalues --   -0.44296  -0.37484  -0.34824  -0.34824
 Alpha virt. eigenvalues --    0.11874   0.17205   0.17609   0.17609   0.20330
 Alpha virt. eigenvalues --    0.20330   0.25394   0.52877   0.56322   0.56322
 Alpha virt. eigenvalues --    0.65622   0.65622   0.69796   0.90870   0.90870

 Mulliken charges:
               1
     1  C   -0.521786
     2  C   -0.521786
     3  H    0.173929
     4  H    0.173929
     5  H    0.173929
     6  H    0.173929
     7  H    0.173929
     8  H    0.173929
 Sum of Mulliken charges =  -0.00000

 Dipole moment (field-independent basis, Debye):
    X=             -0.0000    Y=             -0.0000    Z=              0.0000  Tot=              0.0000
 Quadrupole moment (field-independent basis, Debye-Ang):
   XX=            -15.1787   YY=            -14.6348   ZZ=            -14.6348
   XY=             -0.0000   XZ=              0.0000   YZ=             -0.0000

 Normal termination of Gaussian 16 at Wed Oct  7 14:29:47 2020.
