 Gaussian 16, Revision A.03,
 Gaussian 16:  ES64L-G16RevA.03 25-Dec-2016

 ----------------------------------------------------------------------
 #P Opt(MaxCyc=100) PBE1PBE/6-31G* 5D 7F Integral=UltraFineGrid SCF=(No
 Symm,XQC,MaxCyc=120) EmpiricalDispersion=GD3BJ IOp(1/33=1)
 ----------------------------------------------------------------------

 TstMul:  Mul=     2
 TstMul:  ICh=     0
 TstMul:  Mul=     2
 Symbolic Z-matrix:
 Charge =  0 Multiplicity = 2

 SCF Done:  E(UPBE1PBE) =  -79.0519071996     A.U. after   13 cycles
 SCF Done:  E(UPBE1PBE) =  -79.0520497842     A.U. after   10 cycles
 SCF Done:  E(UPBE1PBE) =  -79.0520556872     A.U. after    9 cycles
 Optimization completed.
    -- Stationary point found.

                         Standard orientation:
 ---------------------------------------------------------------------
 Center     Atomic      Atomic             Coordinates (Angstroms)
 Number     Number       Type             X           Y           Z
 ---------------------------------------------------------------------
      1          6           0       -0.011055   -0.692022   -0.000000
      2          6           0       -0.011055    0.792694    0.000000
      3          1           0        1.012303   -1.106027   -0.000000
      4          1           0       -0.511039   -1.098416    0.887144
      5          1           0       -0.511039   -1.098416   -0.887144
      6          1           0        0.071220    1.349412   -0.927951
      7          1           0        0.071220    1.349412    0.927951
 ---------------------------------------------------------------------

 The electronic state is 2-A'.
 Alpha  occ. eigenvalues --  -10.22701 -10.21687  -0.77508  -0.62282  -0.45948
 Alpha  occ. eigenvalues --   -0.42228  -0.39883  -0.36308  -0.20978
 Alpha virt. eigenvalues --    0.12909   0.15339   0.16025   0.19021   0.23469
 Alpha virt. eigenvalues --    0.27149   0.52801   0.55778   0.57068   0.63406
 Alpha virt. eigenvalues --    0.63913   0.76228   0.81821   0.89453   0.90041

  Beta  occ. eigenvalues --  -10.21802 -10.21140  -0.75593  -0.59523  -0.45231
  Beta  occ. eigenvalues --   -0.40532  -0.39007  -0.35847
  Beta virt. eigenvalues --   -0.01702   0.13404   0.16270   0.16879   0.19871
  Beta virt. eigenvalues --    0.23969   0.28122   0.53462   0.56089   0.61895
  Beta virt. eigenvalues --    0.65936   0.67731   0.76993   0.83900   0.90101

 Mulliken charges and spin densities:
               1          2
     1  C   -0.547604  -0.095524
     2  C   -0.346128   1.115624
     3  H    0.185314   0.064885
     4  H    0.183992   0.015558
     5  H    0.183992   0.015558
     6  H    0.170216  -0.058051
     7  H    0.170216  -0.058051
 Sum of Mulliken charges =  -0.00000   1.00000

 Dipole moment (field-independent basis, Debye):
    X=              0.1357    Y=             -0.2135    Z=              0.0000  Tot=              0.2530
 Quadrupole moment (field-independent basis, Debye-Ang):
   XX=            -14.9125   YY=            -13.8899   ZZ=            -13.3285
   XY=              0.1882   XZ=              0.0000   YZ=             -0.0000

 Normal termination of Gaussian 16 at Wed Oct  7 14:29:44 2020.
