 Gaussian 16, Revision A.03,
 Gaussian 16:  ES64L-G16RevA.03 25-Dec-2016

 ----------------------------------------------------------------------
 #P Opt(MaxCyc=100) PBE1PBE/6-31G* 5D 7F Integral=UltraFineGrid SCF=(No
 Symm,XQC,MaxCyc=120) EmpiricalDispersion=GD3BJ IOp(1/33=1)
 ----------------------------------------------------------------------

 TstMul:  Mul=     2
 TstMul:  ICh=     0
 TstMul:  Mul=     2
 Symbolic Z-matrix:
 Charge =  0 Multiplicity = 2

 SCF Done:  E(UPBE1PBE) =  -118.317987366     A.U. after   13 cycles
 SCF Done:  E(UPBE1PBE) =  -118.318132498     A.U. after    9 cycles
 SCF Done:  E(UPBE1PBE) =  -118.318135851     A.U. after    8 cycles
 Optimization completed.
    -- Stationary point found.

                         Standard orientation:
 ---------------------------------------------------------------------
 Center     Atomic      Atomic             Coordinates (Angstroms)
 Number     Number       Type             X           Y           Z
 ---------------------------------------------------------------------
      1          6           0        1.206763   -0.286687    0.000059
      2          6           0       -0.066939    0.574538   -0.000058
      3          6           0       -1.314620   -0.236267   -0.000013
      4          1           0        1.242180   -0.931683    0.884783
      5          1           0        1.242206   -0.931880   -0.884522
      6          1           0        2.105468    0.341352   -0.000000
      7          1           0       -0.046677    1.231065   -0.880272
      8          1           0       -0.046732    1.231253    0.880013
      9          1           0       -1.724022   -0.624494    0.927905
     10          1           0       -1.723651   -0.625121   -0.927835
 ---------------------------------------------------------------------

 The electronic state is 2-A.
 Alpha  occ. eigenvalues --  -10.22567 -10.22310 -10.21285  -0.80355  -0.69216
 Alpha  occ. eigenvalues --   -0.59513  -0.47519  -0.44012  -0.40257  -0.39084
 Alpha  occ. eigenvalues --   -0.35720  -0.33929  -0.21110
 Alpha virt. eigenvalues --    0.11807   0.15397   0.15504   0.17238   0.19187
 Alpha virt. eigenvalues --    0.19256   0.23670   0.24364   0.28627   0.53371
 Alpha virt. eigenvalues --    0.55650   0.55732   0.57159   0.61078   0.62802

  Beta  occ. eigenvalues --  -10.22418 -10.21120 -10.21013  -0.79189  -0.67080
  Beta  occ. eigenvalues --   -0.57943  -0.47036  -0.43355  -0.39704  -0.37756
  Beta  occ. eigenvalues --   -0.35161  -0.33710
  Beta virt. eigenvalues --   -0.02104   0.12286   0.15725   0.16805   0.17481
  Beta virt. eigenvalues --    0.19390   0.19690   0.24151   0.25011   0.29613
  Beta virt. eigenvalues --    0.53998   0.55941   0.57506   0.59522   0.63183

 Mulliken charges and spin densities:
               1          2
     1  C   -0.516645   0.048820
     2  C   -0.345430  -0.087154
     3  C   -0.344427   1.115128
     4  H    0.174607  -0.001070
     5  H    0.174604  -0.001072
     6  H    0.171689   0.013555
     7  H    0.174732   0.013495
     8  H    0.174728   0.013469
     9  H    0.168074  -0.057587
    10  H    0.168069  -0.057586
 Sum of Mulliken charges =  -0.00000   1.00000

 Dipole moment (field-independent basis, Debye):
    X=              0.2361    Y=             -0.0267    Z=              0.0001  Tot=              0.2376
 Quadrupole moment (field-independent basis, Debye-Ang):
   XX=            -21.4832   YY=            -21.0079   ZZ=            -19.7653
   XY=              0.7962   XZ=             -0.0005   YZ=              0.0005

 Normal termination of Gaussian 16 at Wed Oct  7 14:29:57 2020.
