 Gaussian 16, Revision A.03,

 ----------------------------------------------------------------------
 #P Opt(TS,MaxCyc=50,NoEigenTest,MaxStep=10,AddRedundant) PBE1PBE/6-31G
 * 5D 7F Integral=UltraFineGrid SCF=(NoSymm,XQC,MaxCyc=120) EmpiricalDi
 spersion=GD3BJ IOp(1/33=1)
 ----------------------------------------------------------------------

 TstMul:  Mul=     1
 TstMul:  ICh=    -1
 TstMul:  Mul=     1
 Symbolic Z-matrix:
 Charge = -1 Multiplicity = 1

 SCF Done:  E(RPBE1PBE) =  -959.974701004     A.U. after   11 cycles
 SCF Done:  E(RPBE1PBE) =  -959.974776128     A.U. after    9 cycles
 SCF Done:  E(RPBE1PBE) =  -959.974786201     A.U. after    8 cycles
 SCF Done:  E(RPBE1PBE) =  -959.974784943     A.U. after    8 cycles
 Optimization completed.
    -- Stationary point found.
 Normal termination of Gaussian 16 at Wed Oct  7 14:31:56 2020.
 Gaussian 16:  ES64L-G16RevA.03 25-Dec-2016

 ----------------------------------------------------------------------
 #P Freq PBE1PBE/6-31G* 5D 7F Integral=UltraFineGrid SCF=(NoSymm,XQC,Ma
 xCyc=120) EmpiricalDispersion=GD3BJ IOp(1/33=1) Geom=Check Guess=Read
 ----------------------------------------------------------------------

 TstMul:  Mul=     1
 TstMul:  ICh=    -1
 TstMul:  Mul=     1
 Structure from the checkpoint file:  "MN_28_clch3clts_BH76_PBE0DBJ_631Gs.chk"
 Charge = -1 Multiplicity = 1

                         Standard orientation:
 ---------------------------------------------------------------------
 Center     Atomic      Atomic             Coordinates (Angstroms)
 Number     Number       Type             X           Y           Z
 ---------------------------------------------------------------------
      1         17           0        2.318893   -0.000010    0.000017
      2          6           0       -0.000107    0.000031   -0.000054
      3          1           0        0.000180   -0.733550   -0.786430
      4          1           0       -0.000020   -0.314188    1.028428
      5          1           0        0.000183    1.047850   -0.242178
      6         17           0       -2.318876   -0.000008    0.000012
 ---------------------------------------------------------------------

 SCF Done:  E(RPBE1PBE) =  -959.974784943     A.U. after    1 cycles

 The electronic state is 1-A.
 Alpha  occ. eigenvalues -- -101.45239-101.45233 -10.13196  -9.27972  -9.27966
 Alpha  occ. eigenvalues --   -7.01165  -7.01159  -7.00750  -7.00750  -7.00745
 Alpha  occ. eigenvalues --   -7.00745  -0.61220  -0.57737  -0.52119  -0.29972
 Alpha  occ. eigenvalues --   -0.29971  -0.17560  -0.10456  -0.10456  -0.09630
 Alpha  occ. eigenvalues --   -0.09630  -0.08415
 Alpha virt. eigenvalues --    0.15041   0.26698   0.33411   0.33412   0.59300
 Alpha virt. eigenvalues --    0.59836   0.65628   0.65628   0.66239   0.66239
 Alpha virt. eigenvalues --    0.69876   0.74284   0.74285   0.76736   0.91691

 Mulliken charges:
               1
     1  Cl  -0.634323
     2  C   -0.463620
     3  H    0.244009
     4  H    0.244018
     5  H    0.244005
     6  Cl  -0.634089
 Sum of Mulliken charges =  -1.00000

 Dipole moment (field-independent basis, Debye):
    X=             -0.0022    Y=              0.0001    Z=             -0.0002  Tot=              0.0022
 Quadrupole moment (field-independent basis, Debye-Ang):
   XX=            -71.6177   YY=            -35.4455   ZZ=            -35.4454
   XY=              0.0001   XZ=             -0.0003   YZ=             -0.0000

  Exact polarizability:  95.919   0.000  22.338  -0.000  -0.000  22.338
 Approx polarizability: 134.997   0.000  28.013  -0.001   0.000  28.013

 ******    1 imaginary frequencies (negative Signs) ******

                      1                      2                      3
                      A                      A                      A
 Frequencies --   -375.4295               209.4744               209.6669
 Red. masses --     13.2619                 4.3403                 4.3404
 Frc consts  --      1.1013                 0.1122                 0.1124
 IR Inten    --   1075.3519                14.5197                14.5194

                      4                      5                      6
                      A                      A                      A
 Frequencies --    223.4270               970.6379               970.7495
 Red. masses --     34.9628                 1.0124                 1.0124
 Frc consts  --      1.0283                 0.5620                 0.5621
 IR Inten    --      0.0001                 0.0000                 0.0000

                      7                      8                      9
                      A                      A                      A
 Frequencies --   1048.6424              1413.5717              1413.6235
 Red. masses --      1.0437                 1.1045                 1.1045
 Frc consts  --      0.6762                 1.3003                 1.3004
 IR Inten    --     82.6635                 6.1861                 6.1847

                     10                     11                     12
                      A                      A                      A
 Frequencies --   3239.6892              3442.2462              3442.4015
 Red. masses --      1.0078                 1.1236                 1.1236
 Frc consts  --      6.2322                 7.8442                 7.8449
 IR Inten    --      0.0000                 0.9532                 0.9540

 - Thermochemistry -
 -------------------
 Temperature   298.150 Kelvin.  Pressure   1.00000 Atm.
 Atom     1 has atomic number 17 and mass  34.96885

 Molecular mass:    84.96118 amu.
 Principal axes and moments of inertia in atomic units:
                           1         2         3
     Eigenvalues --    12.487071349.216801349.21684
           X            1.00000   0.00000  -0.00000
           Y           -0.00000   1.00000   0.00129
           Z            0.00000  -0.00129   1.00000
 This molecule is an asymmetric top.
 Rotational symmetry number  1.
 Rotational temperatures (Kelvin)      6.93629     0.06420     0.06420
 Rotational constants (GHZ):         144.52880     1.33762     1.33762
    1 imaginary frequencies ignored.
 Zero-point vibrational energy      99195.1 (Joules/Mol)
                                   23.70820 (Kcal/Mol)
 Warning -- explicit consideration of   3 degrees of freedom as
           vibrations may cause significant error
 Vibrational temperatures:    301.39   301.66   321.46  1396.53  1396.69
          (Kelvin)           1508.76  2033.81  2033.89  4661.19  4952.62
                             4952.85

 Zero-point correction=                           0.037781 (Hartree/Particle)
 Thermal correction to Energy=                    0.042358
 Thermal correction to Enthalpy=                  0.043302
 Thermal correction to Gibbs Free Energy=         0.009941
 Sum of electronic and zero-point Energies=           -959.937004
 Sum of electronic and thermal Energies=              -959.932427
 Sum of electronic and thermal Enthalpies=            -959.931483
 Sum of electronic and thermal Free Energies=         -959.964844

                     E (Thermal)             CV                S
                      KCal/Mol        Cal/Mol-Kelvin    Cal/Mol-Kelvin
 Total                   26.580             12.769             70.213
 Electronic               0.000              0.000              0.000
 Translational            0.889              2.981             39.232
 Rotational               0.889              2.981             24.634
 Vibrational             24.802              6.808              6.347
 Vibration     1          0.642              1.826              2.048
 Vibration     2          0.642              1.826              2.047
 Vibration     3          0.649              1.805              1.931

 Optimization completed.
    -- Stationary point found.
 Normal termination of Gaussian 16 at Wed Oct  7 14:32:21 2020.
