 Gaussian 16, Revision A.03,

 ----------------------------------------------------------------------
 #P Opt(TS,MaxCyc=50,NoEigenTest,MaxStep=10,AddRedundant) PBE1PBE/6-31G
 * 5D 7F Integral=UltraFineGrid SCF=(NoSymm,XQC,MaxCyc=120) EmpiricalDi
 spersion=GD3BJ IOp(1/33=1)
 ----------------------------------------------------------------------

 TstMul:  Mul=     2
 TstMul:  ICh=     0
 TstMul:  Mul=     2
 Symbolic Z-matrix:
 Charge =  0 Multiplicity = 2

 SCF Done:  E(UPBE1PBE) =  -599.463982910     A.U. after   17 cycles
 SCF Done:  E(UPBE1PBE) =  -599.465054756     A.U. after   17 cycles
 SCF Done:  E(UPBE1PBE) =  -599.464084771     A.U. after   17 cycles
 SCF Done:  E(UPBE1PBE) =  -599.463334441     A.U. after   18 cycles
 SCF Done:  E(UPBE1PBE) =  -599.462767796     A.U. after   18 cycles
 SCF Done:  E(UPBE1PBE) =  -599.462358998     A.U. after   17 cycles
 SCF Done:  E(UPBE1PBE) =  -599.462103744     A.U. after   17 cycles
 SCF Done:  E(UPBE1PBE) =  -599.461992408     A.U. after   18 cycles
 SCF Done:  E(UPBE1PBE) =  -599.461989309     A.U. after   17 cycles
 SCF Done:  E(UPBE1PBE) =  -599.461998117     A.U. after   12 cycles
 SCF Done:  E(UPBE1PBE) =  -599.462039568     A.U. after   14 cycles
 SCF Done:  E(UPBE1PBE) =  -599.462060142     A.U. after   15 cycles
 SCF Done:  E(UPBE1PBE) =  -599.462061785     A.U. after   15 cycles
 Optimization completed.
    -- Stationary point found.
 Normal termination of Gaussian 16 at Wed Oct  7 14:33:10 2020.
 Gaussian 16:  ES64L-G16RevA.03 25-Dec-2016

 ----------------------------------------------------------------------
 #P Freq PBE1PBE/6-31G* 5D 7F Integral=UltraFineGrid SCF=(NoSymm,XQC,Ma
 xCyc=120) EmpiricalDispersion=GD3BJ IOp(1/33=1) Geom=Check Guess=Read
 ----------------------------------------------------------------------

 TstMul:  Mul=     2
 TstMul:  ICh=     0
 TstMul:  Mul=     2
 Structure from the checkpoint file:  "MN_21_ch3fclts_BH76_PBE0DBJ_631Gs.chk"
 Charge =  0 Multiplicity = 2

                         Standard orientation:
 ---------------------------------------------------------------------
 Center     Atomic      Atomic             Coordinates (Angstroms)
 Number     Number       Type             X           Y           Z
 ---------------------------------------------------------------------
      1         17           0        1.475918    0.000081    0.000106
      2          9           0       -0.238209   -0.000051   -0.000763
      3          6           0       -2.530141   -0.000054    0.000475
      4          1           0       -2.590496    1.066589    0.172395
      5          1           0       -2.592647   -0.384926   -1.008940
      6          1           0       -2.582744   -0.682244    0.838764
 ---------------------------------------------------------------------

 SCF Done:  E(UPBE1PBE) =  -599.462061785     A.U. after    1 cycles

 The electronic state is 2-A.
 Alpha  occ. eigenvalues -- -101.74686 -24.80318 -10.25851  -9.57151  -7.31332
 Alpha  occ. eigenvalues --   -7.29470  -7.29470  -1.21555  -0.83401  -0.72190
 Alpha  occ. eigenvalues --   -0.51200  -0.46047  -0.46043  -0.44034  -0.44030
 Alpha  occ. eigenvalues --   -0.32087  -0.32087  -0.24515
 Alpha virt. eigenvalues --   -0.09882   0.11720   0.18314   0.18317   0.36482
 Alpha virt. eigenvalues --    0.42040   0.45960   0.45961   0.54877   0.54878
 Alpha virt. eigenvalues --    0.57009   0.70544   0.78127   0.78127   0.86203

  Beta  occ. eigenvalues -- -101.74540 -24.80351 -10.24434  -9.57004  -7.30850
  Beta  occ. eigenvalues --   -7.29384  -7.29384  -1.21520  -0.82459  -0.68085
  Beta  occ. eigenvalues --   -0.50731  -0.45735  -0.45731  -0.43268  -0.43265
  Beta  occ. eigenvalues --   -0.31816  -0.31816
  Beta virt. eigenvalues --   -0.11414  -0.02408   0.13306   0.18891   0.18894
  Beta virt. eigenvalues --    0.36901   0.42910   0.46149   0.46150   0.55793
  Beta virt. eigenvalues --    0.55793   0.63917   0.73672   0.79233   0.79233

 Mulliken charges and spin densities:
               1          2
     1  Cl   0.185148   0.189860
     2  F   -0.293419  -0.044515
     3  C   -0.509013   1.001582
     4  H    0.205725  -0.048981
     5  H    0.205695  -0.048985
     6  H    0.205864  -0.048961
 Sum of Mulliken charges =  -0.00000   1.00000

 Dipole moment (field-independent basis, Debye):
    X=             -1.0737    Y=             -0.0003    Z=              0.0014  Tot=              1.0737
 Quadrupole moment (field-independent basis, Debye-Ang):
   XX=            -19.6099   YY=            -24.0996   ZZ=            -24.0997
   XY=             -0.0030   XZ=              0.0065   YZ=             -0.0003

  Exact polarizability:  86.773  -0.012  18.414   0.021   0.001  18.414
 Approx polarizability: 112.640  -0.017  21.938   0.038   0.000  21.938

 ******    1 imaginary frequencies (negative Signs) ******

                      1                      2                      3
                      A                      A                      A
 Frequencies --   -168.0552                84.4012                84.4310
 Red. masses --      7.7074                 8.2765                 8.2410
 Frc consts  --      0.1283                 0.0347                 0.0346
 IR Inten    --    220.8849                 1.8079                 1.8100

                      4                      5                      6
                      A                      A                      A
 Frequencies --    301.6137               302.7369               487.4980
 Red. masses --      1.0607                 1.0602                 5.3756
 Frc consts  --      0.0569                 0.0572                 0.7527
 IR Inten    --      0.1021                 0.1032               345.5819

                      7                      8                      9
                      A                      A                      A
 Frequencies --    687.7944              1433.8374              1433.8853
 Red. masses --      1.3252                 1.1009                 1.1009
 Frc consts  --      0.3693                 1.3335                 1.3336
 IR Inten    --     35.8682                 3.9920                 4.0026

                     10                     11                     12
                      A                      A                      A
 Frequencies --   3172.6271              3358.4312              3358.6140
 Red. masses --      1.0083                 1.1191                 1.1191
 Frc consts  --      5.9799                 7.4366                 7.4374
 IR Inten    --      0.3002                 1.1884                 1.1735

 - Thermochemistry -
 -------------------
 Temperature   298.150 Kelvin.  Pressure   1.00000 Atm.
 Atom     1 has atomic number 17 and mass  34.96885

 Molecular mass:    68.99073 amu.
 Principal axes and moments of inertia in atomic units:
                           1         2         3
     Eigenvalues --    12.60538 624.75471 624.75478
           X            1.00000  -0.00002   0.00001
           Y            0.00002   0.99971  -0.02417
           Z           -0.00001   0.02417   0.99971
 This molecule is an asymmetric top.
 Rotational symmetry number  1.
 Rotational temperatures (Kelvin)      6.87119     0.13864     0.13864
 Rotational constants (GHZ):         143.17233     2.88872     2.88872
    1 imaginary frequencies ignored.
 Zero-point vibrational energy      87960.6 (Joules/Mol)
                                   21.02310 (Kcal/Mol)
 Warning -- explicit consideration of   5 degrees of freedom as
           vibrations may cause significant error
 Vibrational temperatures:    121.43   121.48   433.95   435.57   701.40
          (Kelvin)            989.58  2062.97  2063.04  4564.70  4832.03
                             4832.30

 Zero-point correction=                           0.033502 (Hartree/Particle)
 Thermal correction to Energy=                    0.039064
 Thermal correction to Enthalpy=                  0.040008
 Thermal correction to Gibbs Free Energy=         0.004599
 Sum of electronic and zero-point Energies=           -599.428559
 Sum of electronic and thermal Energies=              -599.422998
 Sum of electronic and thermal Enthalpies=            -599.422054
 Sum of electronic and thermal Free Energies=         -599.457463

                     E (Thermal)             CV                S
                      KCal/Mol        Cal/Mol-Kelvin    Cal/Mol-Kelvin
 Total                   24.513             15.540             74.525
 Electronic               0.000              0.000              1.377
 Translational            0.889              2.981             38.612
 Rotational               0.889              2.981             23.113
 Vibrational             22.735              9.578             11.423
 Vibration     1          0.601              1.960              3.786
 Vibration     2          0.601              1.960              3.785
 Vibration     3          0.694              1.671              1.408
 Vibration     4          0.694              1.669              1.402
 Vibration     5          0.843              1.278              0.690

                           ! Non-Optimized Parameters !
 Normal termination of Gaussian 16 at Wed Oct  7 14:33:43 2020.
