 Gaussian 16, Revision A.03,
 Gaussian 16:  ES64L-G16RevA.03 25-Dec-2016

 ----------------------------------------------------------------------
 #P Opt(MaxCyc=100) PBE1PBE/6-31G* 5D 7F Integral=UltraFineGrid SCF=(No
 Symm,XQC,MaxCyc=120) EmpiricalDispersion=GD3BJ IOp(1/33=1)
 ----------------------------------------------------------------------

 TstMul:  Mul=     1
 TstMul:  ICh=    -1
 TstMul:  Mul=     1
 Symbolic Z-matrix:
 Charge = -1 Multiplicity = 1

 SCF Done:  E(RPBE1PBE) =  -959.988067458     A.U. after   12 cycles
 SCF Done:  E(RPBE1PBE) =  -959.988280464     A.U. after    9 cycles
 SCF Done:  E(RPBE1PBE) =  -959.988430950     A.U. after    9 cycles
 SCF Done:  E(RPBE1PBE) =  -959.988498876     A.U. after    9 cycles
 SCF Done:  E(RPBE1PBE) =  -959.988514817     A.U. after    8 cycles
 SCF Done:  E(RPBE1PBE) =  -959.988517213     A.U. after    7 cycles
 Optimization completed.
    -- Stationary point found.

                         Standard orientation:
 ---------------------------------------------------------------------
 Center     Atomic      Atomic             Coordinates (Angstroms)
 Number     Number       Type             X           Y           Z
 ---------------------------------------------------------------------
      1         17           0        0.000000    0.000000   -2.339705
      2          6           0        0.000000    0.000000   -0.506613
      3          1           0       -0.000000    1.028188   -0.157951
      4          1           0       -0.890437   -0.514094   -0.157951
      5          1           0        0.890437   -0.514094   -0.157951
      6         17           0        0.000000    0.000000    2.546383
 ---------------------------------------------------------------------

 The electronic state is 1-A1.
 Alpha  occ. eigenvalues -- -101.54858-101.37595 -10.12267  -9.37919  -9.20115
 Alpha  occ. eigenvalues --   -7.11361  -7.10520  -7.10520  -6.93097  -6.93040
 Alpha  occ. eigenvalues --   -6.93040  -0.72317  -0.54421  -0.49208  -0.30245
 Alpha  occ. eigenvalues --   -0.30245  -0.27503  -0.17300  -0.17300  -0.03362
 Alpha  occ. eigenvalues --   -0.03203  -0.03203
 Alpha virt. eigenvalues --    0.18305   0.28285   0.32020   0.32020   0.54637
 Alpha virt. eigenvalues --    0.58049   0.60461   0.60461   0.64336   0.68278
 Alpha virt. eigenvalues --    0.68278   0.73735   0.74489   0.74489   0.96090

 Mulliken charges:
               1
     1  Cl  -0.216951
     2  C   -0.564360
     3  H    0.236635
     4  H    0.236635
     5  H    0.236635
     6  Cl  -0.928594
 Sum of Mulliken charges =  -1.00000

 Dipole moment (field-independent basis, Debye):
    X=              0.0000    Y=             -0.0000    Z=             -7.7344  Tot=              7.7344
 Quadrupole moment (field-independent basis, Debye-Ang):
   XX=            -35.4973   YY=            -35.4973   ZZ=            -73.5860
   XY=             -0.0000   XZ=              0.0000   YZ=              0.0000

 Normal termination of Gaussian 16 at Wed Oct  7 14:31:47 2020.
