 Gaussian 16, Revision A.03,
 Gaussian 16:  ES64L-G16RevA.03 25-Dec-2016

 ----------------------------------------------------------------------
 #P PBE1PBE/6-31G* 5D 7F Integral=UltraFineGrid SCF=(NoSymm,XQC,MaxCyc=
 120) EmpiricalDispersion=GD3BJ IOp(1/33=1) Stable=Opt
 ----------------------------------------------------------------------

 TstMul:  Mul=     1
 TstMul:  ICh=    -1
 TstMul:  Mul=     1
 Symbolic Z-matrix:
 Charge = -1 Multiplicity = 1

                         Standard orientation:
 ---------------------------------------------------------------------
 Center     Atomic      Atomic             Coordinates (Angstroms)
 Number     Number       Type             X           Y           Z
 ---------------------------------------------------------------------
      1         17           0        0.000000    0.000000    0.000000
 ---------------------------------------------------------------------

 SCF Done:  E(RPBE1PBE) =  -460.081163331     A.U. after    7 cycles

 The electronic state is 1-A1G.
 Alpha  occ. eigenvalues -- -101.34157  -9.16635  -6.89585  -6.89585  -6.89585
 Alpha  occ. eigenvalues --   -0.45792   0.00114   0.00114   0.00114
 Alpha virt. eigenvalues --    0.66465   0.75398   0.75398   0.75398   1.23643
 Alpha virt. eigenvalues --    1.23643   1.23643   1.23643   1.23643

 Mulliken charges:
               1
     1  Cl  -1.000000
 Sum of Mulliken charges =  -1.00000

 Dipole moment (field-independent basis, Debye):
    X=             -0.0000    Y=              0.0000    Z=             -0.0000  Tot=              0.0000
 Quadrupole moment (field-independent basis, Debye-Ang):
   XX=            -15.6748   YY=            -15.6748   ZZ=            -15.6748
   XY=              0.0000   XZ=              0.0000   YZ=             -0.0000

 Normal termination of Gaussian 16 at Wed Oct  7 14:30:49 2020.
