 Gaussian 16, Revision A.03,
 Gaussian 16:  ES64L-G16RevA.03 25-Dec-2016

 ----------------------------------------------------------------------
 #P Opt(MaxCyc=100) PBE1PBE/6-31G* 5D 7F Integral=UltraFineGrid SCF=(No
 Symm,XQC,MaxCyc=120) EmpiricalDispersion=GD3BJ IOp(1/33=1)
 ----------------------------------------------------------------------

 TstMul:  Mul=     2
 TstMul:  ICh=     0
 TstMul:  Mul=     2
 Symbolic Z-matrix:
 Charge =  0 Multiplicity = 2

 SCF Done:  E(UPBE1PBE) =  -39.7804335597     A.U. after   10 cycles
 SCF Done:  E(UPBE1PBE) =  -39.7804909853     A.U. after    7 cycles
 Optimization completed.
    -- Stationary point found.

                         Standard orientation:
 ---------------------------------------------------------------------
 Center     Atomic      Atomic             Coordinates (Angstroms)
 Number     Number       Type             X           Y           Z
 ---------------------------------------------------------------------
      1          6           0        0.000000    0.000000    0.000000
      2          1           0        0.000000    1.082953    0.000000
      3          1           0        0.937865   -0.541477    0.000000
      4          1           0       -0.937865   -0.541477    0.000000
 ---------------------------------------------------------------------

 The electronic state is 2-A2".
 Alpha  occ. eigenvalues --  -10.23043  -0.70262  -0.42748  -0.42748  -0.24004
 Alpha virt. eigenvalues --    0.12817   0.19520   0.19520   0.55596   0.56312
 Alpha virt. eigenvalues --    0.56312   0.70403   0.94071   0.94071   0.98398
 Alpha virt. eigenvalues --    1.65415   1.65415   2.02232   2.20312   2.20312
  Beta  occ. eigenvalues --  -10.21458  -0.65564  -0.41668  -0.41668
  Beta virt. eigenvalues --   -0.02963   0.14673   0.20162   0.20162   0.57405
  Beta virt. eigenvalues --    0.57405   0.64647   0.73890   0.94607   0.94607
  Beta virt. eigenvalues --    1.01773   1.73317   1.73317   2.11905   2.21489

 Mulliken charges and spin densities:
               1          2
     1  C   -0.553343   1.176197
     2  H    0.184448  -0.058732
     3  H    0.184448  -0.058732
     4  H    0.184448  -0.058732
 Sum of Mulliken charges =  -0.00000   1.00000

 Dipole moment (field-independent basis, Debye):
    X=             -0.0000    Y=              0.0000    Z=             -0.0000  Tot=              0.0000
 Quadrupole moment (field-independent basis, Debye-Ang):
   XX=             -6.9703   YY=             -6.9703   ZZ=             -8.6963
   XY=              0.0000   XZ=              0.0000   YZ=              0.0000

 Normal termination of Gaussian 16 at Wed Oct  7 14:30:33 2020.
