 Gaussian 16, Revision A.03,
 Gaussian 16:  ES64L-G16RevA.03 25-Dec-2016

 ----------------------------------------------------------------------
 #P Opt(MaxCyc=100) PBE1PBE/6-31G* 5D 7F Integral=UltraFineGrid SCF=(No
 Symm,XQC,MaxCyc=120) EmpiricalDispersion=GD3BJ IOp(1/33=1)
 ----------------------------------------------------------------------

 TstMul:  Mul=     1
 TstMul:  ICh=     0
 TstMul:  Mul=     1
 Symbolic Z-matrix:
 Charge =  0 Multiplicity = 1

 SCF Done:  E(RPBE1PBE) =  -115.578521170     A.U. after   11 cycles
 SCF Done:  E(RPBE1PBE) =  -115.578813164     A.U. after    8 cycles
 SCF Done:  E(RPBE1PBE) =  -115.578832268     A.U. after    8 cycles
 SCF Done:  E(RPBE1PBE) =  -115.578834367     A.U. after    7 cycles
 Optimization completed.
    -- Stationary point found.

                         Standard orientation:
 ---------------------------------------------------------------------
 Center     Atomic      Atomic             Coordinates (Angstroms)
 Number     Number       Type             X           Y           Z
 ---------------------------------------------------------------------
      1          6           0       -0.046616    0.654788    0.000000
      2          8           0       -0.046616   -0.752304    0.000000
      3          1           0       -1.092976    0.971671    0.000000
      4          1           0        0.872833   -1.045860    0.000000
      5          1           0        0.436383    1.081943    0.892691
      6          1           0        0.436383    1.081943   -0.892691
 ---------------------------------------------------------------------

 The electronic state is 1-A'.
 Alpha  occ. eigenvalues --  -19.20885 -10.26016  -1.04202  -0.69715  -0.51872
 Alpha  occ. eigenvalues --   -0.44713  -0.43296  -0.34080  -0.27570
 Alpha virt. eigenvalues --    0.09320   0.14814   0.18083   0.18966   0.22280
 Alpha virt. eigenvalues --    0.55979   0.58989   0.59840   0.80876   0.87485
 Alpha virt. eigenvalues --    0.89960   0.93566   1.00206   1.02129   1.04964

 Mulliken charges:
               1
     1  C   -0.264294
     2  O   -0.641889
     3  H    0.185273
     4  H    0.415729
     5  H    0.152590
     6  H    0.152590
 Sum of Mulliken charges =  -0.00000

 Dipole moment (field-independent basis, Debye):
    X=              1.4570    Y=              0.8815    Z=              0.0000  Tot=              1.7029
 Quadrupole moment (field-independent basis, Debye-Ang):
   XX=            -11.4827   YY=            -12.9626   ZZ=            -13.5685
   XY=             -2.1451   XZ=              0.0000   YZ=             -0.0000

 Normal termination of Gaussian 16 at Wed Oct  7 14:31:00 2020.
