 Gaussian 16, Revision A.03,
 Gaussian 16:  ES64L-G16RevA.03 25-Dec-2016

 ----------------------------------------------------------------------
 #P Opt(MaxCyc=100) PBE1PBE/6-31G* 5D 7F Integral=UltraFineGrid SCF=(No
 Symm,XQC,MaxCyc=120) EmpiricalDispersion=GD3BJ IOp(1/33=1)
 ----------------------------------------------------------------------

 TstMul:  Mul=     1
 TstMul:  ICh=     0
 TstMul:  Mul=     1
 Symbolic Z-matrix:
 Charge =  0 Multiplicity = 1

 SCF Done:  E(RPBE1PBE) =  -559.679367339     A.U. after   11 cycles
 SCF Done:  E(RPBE1PBE) =  -559.679466967     A.U. after    8 cycles
 SCF Done:  E(RPBE1PBE) =  -559.679475838     A.U. after    8 cycles
 Optimization completed.
    -- Stationary point found.

                         Standard orientation:
 ---------------------------------------------------------------------
 Center     Atomic      Atomic             Coordinates (Angstroms)
 Number     Number       Type             X           Y           Z
 ---------------------------------------------------------------------
      1          9           0        0.000000    0.000000   -1.074971
      2         17           0        0.000000    0.000000    0.569102
 ---------------------------------------------------------------------

 The electronic state is 1-SG.
 Alpha  occ. eigenvalues -- -101.78153 -24.82627  -9.60524  -7.34651  -7.32819
 Alpha  occ. eigenvalues --   -7.32819  -1.25826  -0.85281  -0.54119  -0.48879
 Alpha  occ. eigenvalues --   -0.48879  -0.33875  -0.33875
 Alpha virt. eigenvalues --   -0.10371   0.34123   0.40648   0.43822   0.43822
 Alpha virt. eigenvalues --    0.75360   0.75360   0.83268   0.83269   0.92934
 Alpha virt. eigenvalues --    1.26322   1.27095   1.27095   1.74966   1.83349

 Mulliken charges:
               1
     1  F   -0.306955
     2  Cl   0.306955
 Sum of Mulliken charges =   0.00000

 Dipole moment (field-independent basis, Debye):
    X=              0.0000    Y=             -0.0000    Z=              0.9370  Tot=              0.9370
 Quadrupole moment (field-independent basis, Debye-Ang):
   XX=            -17.1130   YY=            -17.1130   ZZ=            -15.4728
   XY=              0.0000   XZ=              0.0000   YZ=             -0.0000

 1\1\GINC-NODE19\FOpt\RPBE1PBE\6-31G(d)\Cl1F1\RPEVERATI\07-Oct-2020\0\\
 #P Opt(MaxCyc=100) PBE1PBE/6-31G* 5D 7F Integral=UltraFineGrid SCF=(No
 Symm,XQC,MaxCyc=120) EmpiricalDispersion=GD3BJ IOp(1/33=1)\\TS search
 on BH76.\\0,1\F,0.,0.,-1.0728563061\Cl,0.,0.,0.5712174773\\Version=ES6
 4L-G16RevA.03\State=1-SG\HF=-559.6794758\RMSD=1.567e-09\RMSF=3.014e-07
 \Dipole=0.,0.,0.3686284\Quadrupole=-0.4064736,-0.4064736,0.8129471,0.,
 0.,0.\PG=C*V [C*(F1Cl1)]\\@

 Normal termination of Gaussian 16 at Wed Oct  7 14:31:37 2020.
