 Gaussian 16, Revision A.03,
 Gaussian 16:  ES64L-G16RevA.03 25-Dec-2016

 ----------------------------------------------------------------------
 #P Opt(MaxCyc=100) PBE1PBE/6-31G* 5D 7F Integral=UltraFineGrid SCF=(No
 Symm,XQC,MaxCyc=120) EmpiricalDispersion=GD3BJ IOp(1/33=1)
 ----------------------------------------------------------------------

 TstMul:  Mul=     1
 TstMul:  ICh=     0
 TstMul:  Mul=     1
 Symbolic Z-matrix:
 Charge =  0 Multiplicity = 1

 SCF Done:  E(RPBE1PBE) =  -139.583831780     A.U. after   10 cycles
 SCF Done:  E(RPBE1PBE) =  -139.584025825     A.U. after    7 cycles
 SCF Done:  E(RPBE1PBE) =  -139.584043722     A.U. after    7 cycles
 SCF Done:  E(RPBE1PBE) =  -139.584044431     A.U. after    7 cycles
 Optimization completed.
    -- Stationary point found.

                         Standard orientation:
 ---------------------------------------------------------------------
 Center     Atomic      Atomic             Coordinates (Angstroms)
 Number     Number       Type             X           Y           Z
 ---------------------------------------------------------------------
      1          6           0        0.000000    0.000000   -0.624948
      2          9           0        0.000000    0.000000    0.747860
      3          1           0        0.000000    1.032113   -0.993685
      4          1           0        0.893836   -0.516056   -0.993685
      5          1           0       -0.893836   -0.516056   -0.993685
 ---------------------------------------------------------------------

 The electronic state is 1-A1.
 Alpha  occ. eigenvalues --  -24.74677 -10.29043  -1.20839  -0.71459  -0.49277
 Alpha  occ. eigenvalues --   -0.48767  -0.48767  -0.34409  -0.34409
 Alpha virt. eigenvalues --    0.12046   0.15084   0.17953   0.17953   0.54463
 Alpha virt. eigenvalues --    0.56936   0.56936   0.86811   0.86811   0.90002
 Alpha virt. eigenvalues --    0.99938   1.27518   1.28822   1.28822   1.53260

 Mulliken charges:
               1
     1  C   -0.150569
     2  F   -0.341344
     3  H    0.163971
     4  H    0.163971
     5  H    0.163971
 Sum of Mulliken charges =  -0.00000

 Dipole moment (field-independent basis, Debye):
    X=              0.0000    Y=              0.0000    Z=             -1.7098  Tot=              1.7098
 Quadrupole moment (field-independent basis, Debye-Ang):
   XX=            -11.6674   YY=            -11.6674   ZZ=            -11.9462
   XY=             -0.0000   XZ=             -0.0000   YZ=             -0.0000

 Normal termination of Gaussian 16 at Wed Oct  7 14:30:50 2020.
