 Gaussian 16, Revision A.03,

 ----------------------------------------------------------------------
 #P Opt(TS,MaxCyc=50,NoEigenTest,MaxStep=10,AddRedundant) PBE1PBE/6-31G
 * 5D 7F Integral=UltraFineGrid SCF=(NoSymm,XQC,MaxCyc=120) EmpiricalDi
 spersion=GD3BJ IOp(1/33=1)
 ----------------------------------------------------------------------

 TstMul:  Mul=     1
 TstMul:  ICh=    -1
 TstMul:  Mul=     1
 Symbolic Z-matrix:
 Charge = -1 Multiplicity = 1

 SCF Done:  E(RPBE1PBE) =  -239.274971714     A.U. after   12 cycles
 SCF Done:  E(RPBE1PBE) =  -239.275520220     A.U. after   11 cycles
 SCF Done:  E(RPBE1PBE) =  -239.275667088     A.U. after   10 cycles
 SCF Done:  E(RPBE1PBE) =  -239.275672538     A.U. after    9 cycles
 SCF Done:  E(RPBE1PBE) =  -239.275680869     A.U. after    8 cycles
 SCF Done:  E(RPBE1PBE) =  -239.275680424     A.U. after    8 cycles
 Optimization completed.
    -- Stationary point found.
 Normal termination of Gaussian 16 at Wed Oct  7 14:32:44 2020.
 Gaussian 16:  ES64L-G16RevA.03 25-Dec-2016

 ----------------------------------------------------------------------
 #P Freq PBE1PBE/6-31G* 5D 7F Integral=UltraFineGrid SCF=(NoSymm,XQC,Ma
 xCyc=120) EmpiricalDispersion=GD3BJ IOp(1/33=1) Geom=Check Guess=Read
 ----------------------------------------------------------------------

 TstMul:  Mul=     1
 TstMul:  ICh=    -1
 TstMul:  Mul=     1
 Structure from the checkpoint file:  "MN_39_fch3fts_BH76_PBE0DBJ_631Gs.chk"
 Charge = -1 Multiplicity = 1

                         Standard orientation:
 ---------------------------------------------------------------------
 Center     Atomic      Atomic             Coordinates (Angstroms)
 Number     Number       Type             X           Y           Z
 ---------------------------------------------------------------------
      1          9           0        1.783604    0.000005    0.000017
      2          6           0       -0.000509   -0.000008   -0.000026
      3          1           0       -0.000422   -0.877811    0.627815
      4          1           0       -0.000416    0.982652    0.446173
      5          1           0       -0.000427   -0.104893   -1.074147
      6          9           0       -1.783124    0.000006    0.000018
 ---------------------------------------------------------------------

 SCF Done:  E(RPBE1PBE) =  -239.275680424     A.U. after    1 cycles

 The electronic state is 1-A.
 Alpha  occ. eigenvalues --  -24.37849 -24.37804 -10.05550  -0.80284  -0.79603
 Alpha  occ. eigenvalues --   -0.46173  -0.22598  -0.22597  -0.13532  -0.04950
 Alpha  occ. eigenvalues --   -0.04950  -0.02959  -0.02959  -0.01711
 Alpha virt. eigenvalues --    0.33592   0.34292   0.39226   0.39227   0.80255
 Alpha virt. eigenvalues --    0.80256   0.86752   1.06144   1.14147   1.14149
 Alpha virt. eigenvalues --    1.36112   1.45336   1.45336   1.60595   1.60671

 Mulliken charges:
               1
     1  F   -0.647165
     2  C   -0.110990
     3  H    0.134942
     4  H    0.134944
     5  H    0.134935
     6  F   -0.646666
 Sum of Mulliken charges =  -1.00000

 Dipole moment (field-independent basis, Debye):
    X=             -0.0091    Y=             -0.0000    Z=             -0.0001  Tot=              0.0091
 Quadrupole moment (field-independent basis, Debye-Ang):
   XX=            -37.3900   YY=            -17.6067   ZZ=            -17.6069
   XY=              0.0000   XZ=              0.0000   YZ=              0.0000

  Exact polarizability:  28.861   0.000  14.755   0.000   0.000  14.755
 Approx polarizability:  42.256   0.000  17.457   0.000  -0.000  17.457

 ******    1 imaginary frequencies (negative Signs) ******

                      1                      2                      3
                      A                      A                      A
 Frequencies --   -502.3755               351.3899               351.4395
 Red. masses --     10.2707                 4.3158                 4.3161
 Frc consts  --      1.5272                 0.3140                 0.3141
 IR Inten    --    752.2962                17.5749                17.5748

                      4                      5                      6
                      A                      A                      A
 Frequencies --    380.1654              1060.3067              1060.3456
 Red. masses --     18.9567                 1.0217                 1.0217
 Frc consts  --      1.6142                 0.6768                 0.6768
 IR Inten    --      0.0003                 0.0001                 0.0001

                      7                      8                      9
                      A                      A                      A
 Frequencies --   1174.5225              1375.0552              1375.1463
 Red. masses --      1.0897                 1.1245                 1.1245
 Frc consts  --      0.8857                 1.2527                 1.2528
 IR Inten    --      0.1612                 1.7747                 1.7746

                     10                     11                     12
                      A                      A                      A
 Frequencies --   3140.9260              3331.6286              3331.6958
 Red. masses --      1.0079                 1.1283                 1.1283
 Frc consts  --      5.8587                 7.3789                 7.3793
 IR Inten    --      0.0000                56.2742                56.2584

 - Thermochemistry -
 -------------------
 Temperature   298.150 Kelvin.  Pressure   1.00000 Atm.
 Atom     1 has atomic number  9 and mass  18.99840

 Molecular mass:    53.02028 amu.
 Principal axes and moments of inertia in atomic units:
                           1         2         3
     Eigenvalues --    12.57556 437.83131 437.83183
           X            1.00000   0.00000   0.00000
           Y           -0.00000   1.00000  -0.00002
           Z           -0.00000   0.00002   1.00000
 This molecule is an asymmetric top.
 Rotational symmetry number  1.
 Rotational temperatures (Kelvin)      6.88748     0.19782     0.19782
 Rotational constants (GHZ):         143.51179     4.12200     4.12200
    1 imaginary frequencies ignored.
 Zero-point vibrational energy     101279.6 (Joules/Mol)
                                   24.20640 (Kcal/Mol)
 Warning -- explicit consideration of   3 degrees of freedom as
           vibrations may cause significant error
 Vibrational temperatures:    505.57   505.64   546.97  1525.54  1525.60
          (Kelvin)           1689.88  1978.40  1978.53  4519.09  4793.47
                             4793.57

 Zero-point correction=                           0.038575 (Hartree/Particle)
 Thermal correction to Energy=                    0.042550
 Thermal correction to Enthalpy=                  0.043494
 Thermal correction to Gibbs Free Energy=         0.013170
 Sum of electronic and zero-point Energies=           -239.237105
 Sum of electronic and thermal Energies=              -239.233131
 Sum of electronic and thermal Enthalpies=            -239.232186
 Sum of electronic and thermal Free Energies=         -239.262510

                     E (Thermal)             CV                S
                      KCal/Mol        Cal/Mol-Kelvin    Cal/Mol-Kelvin
 Total                   26.700             11.703             63.822
 Electronic               0.000              0.000              0.000
 Translational            0.889              2.981             37.827
 Rotational               0.889              2.981             22.404
 Vibrational             24.923              5.741              3.591
 Vibration     1          0.728              1.572              1.160
 Vibration     2          0.728              1.572              1.160
 Vibration     3          0.750              1.512              1.039

 Optimization completed.
    -- Stationary point found.
 Normal termination of Gaussian 16 at Wed Oct  7 14:33:07 2020.
