 Gaussian 16, Revision A.03,

 ----------------------------------------------------------------------
 #P PBE1PBE/6-31G* 5D 7F Integral=UltraFineGrid SCF=(NoSymm,XQC,MaxCyc=
 120) EmpiricalDispersion=GD3BJ IOp(1/33=1)
 ----------------------------------------------------------------------

 TstMul:  Mul=     1
 TstMul:  ICh=    -1
 TstMul:  Mul=     1
 Symbolic Z-matrix:
 Charge = -1 Multiplicity = 1

 SCF Done:  E(RPBE1PBE) =  -99.6597566501     A.U. after    7 cycles
 Normal termination of Gaussian 16 at Wed Oct  7 14:31:20 2020.
 Gaussian 16:  ES64L-G16RevA.03 25-Dec-2016

 ----------------------------------------------------------------------
 #P PBE1PBE/6-31G* 5D 7F Integral=UltraFineGrid SCF=(NoSymm,MaxCyc=120)
  EmpiricalDispersion=GD3BJ IOp(1/33=1) Guess=Read Stable=Opt
 ----------------------------------------------------------------------

 TstMul:  Mul=     1
 TstMul:  ICh=    -1
 TstMul:  Mul=     1
 Symbolic Z-matrix:
 Charge = -1 Multiplicity = 1

                         Standard orientation:
 ---------------------------------------------------------------------
 Center     Atomic      Atomic             Coordinates (Angstroms)
 Number     Number       Type             X           Y           Z
 ---------------------------------------------------------------------
      1          9           0        0.000000    0.000000    0.000000
 ---------------------------------------------------------------------

 SCF Done:  E(RPBE1PBE) =  -99.6597566501     A.U. after    1 cycles

 The electronic state is 1-A1G.
 Alpha  occ. eigenvalues --  -24.15870  -0.57804   0.15068   0.15068   0.15068
 Alpha virt. eigenvalues --    1.69854   1.69854   1.69854   1.86574   2.38039
 Alpha virt. eigenvalues --    2.38039   2.38039   2.38039   2.38039

 Mulliken charges:
               1
     1  F   -1.000000
 Sum of Mulliken charges =  -1.00000

 Dipole moment (field-independent basis, Debye):
    X=              0.0000    Y=              0.0000    Z=             -0.0000  Tot=              0.0000
 Quadrupole moment (field-independent basis, Debye-Ang):
   XX=             -5.7619   YY=             -5.7619   ZZ=             -5.7619
   XY=             -0.0000   XZ=             -0.0000   YZ=              0.0000

 Normal termination of Gaussian 16 at Wed Oct  7 14:31:39 2020.
