 Gaussian 16, Revision A.03,
 Gaussian 16:  ES64L-G16RevA.03 25-Dec-2016

 ----------------------------------------------------------------------
 #P Opt(MaxCyc=100) PBE1PBE/6-31G* 5D 7F Integral=UltraFineGrid SCF=(No
 Symm,XQC,MaxCyc=120) EmpiricalDispersion=GD3BJ IOp(1/33=1)
 ----------------------------------------------------------------------

 TstMul:  Mul=     1
 TstMul:  ICh=    -1
 TstMul:  Mul=     1
 Symbolic Z-matrix:
 Charge = -1 Multiplicity = 1

 SCF Done:  E(RPBE1PBE) =  -239.287725005     A.U. after   12 cycles
 SCF Done:  E(RPBE1PBE) =  -239.288760018     A.U. after   10 cycles
 SCF Done:  E(RPBE1PBE) =  -239.290069225     A.U. after   11 cycles
 SCF Done:  E(RPBE1PBE) =  -239.290164730     A.U. after   10 cycles
 SCF Done:  E(RPBE1PBE) =  -239.290209160     A.U. after    9 cycles
 SCF Done:  E(RPBE1PBE) =  -239.290212390     A.U. after   10 cycles
 SCF Done:  E(RPBE1PBE) =  -239.290215234     A.U. after    8 cycles
 Optimization completed.
    -- Stationary point found.

                         Standard orientation:
 ---------------------------------------------------------------------
 Center     Atomic      Atomic             Coordinates (Angstroms)
 Number     Number       Type             X           Y           Z
 ---------------------------------------------------------------------
      1          9           0        0.000000    0.000000   -1.789157
      2          6           0        0.000000    0.000000   -0.354956
      3          1           0       -0.000000    1.019727    0.022023
      4          1           0       -0.883109   -0.509863    0.022023
      5          1           0        0.883109   -0.509863    0.022023
      6          9           0        0.000000    0.000000    2.018453
 ---------------------------------------------------------------------

 The electronic state is 1-A1.
 Alpha  occ. eigenvalues --  -24.53794 -24.26115 -10.06443  -0.98624  -0.67444
 Alpha  occ. eigenvalues --   -0.49072  -0.27128  -0.26488  -0.26488  -0.14005
 Alpha  occ. eigenvalues --   -0.14005   0.05767   0.06087   0.06087
 Alpha virt. eigenvalues --    0.33113   0.37623   0.39840   0.39840   0.77424
 Alpha virt. eigenvalues --    0.77424   0.79271   1.09572   1.09572   1.14962
 Alpha virt. eigenvalues --    1.25864   1.46601   1.47359   1.47359   1.64047

 Mulliken charges:
               1
     1  F   -0.435342
     2  C   -0.189430
     3  H    0.147886
     4  H    0.147886
     5  H    0.147886
     6  F   -0.818886
 Sum of Mulliken charges =  -1.00000

 Dipole moment (field-independent basis, Debye):
    X=             -0.0000    Y=             -0.0000    Z=             -5.1867  Tot=              5.1867
 Quadrupole moment (field-independent basis, Debye-Ang):
   XX=            -17.7864   YY=            -17.7864   ZZ=            -39.8928
   XY=             -0.0000   XZ=              0.0000   YZ=             -0.0000

 Normal termination of Gaussian 16 at Wed Oct  7 14:32:31 2020.
