 Gaussian 16, Revision A.03,
 Gaussian 16:  ES64L-G16RevA.03 25-Dec-2016

 ----------------------------------------------------------------------
 #P Opt(MaxCyc=100) PBE1PBE/6-31G* 5D 7F Integral=UltraFineGrid SCF=(No
 Symm,XQC,MaxCyc=120) EmpiricalDispersion=GD3BJ IOp(1/33=1)
 ----------------------------------------------------------------------

 TstMul:  Mul=     1
 TstMul:  ICh=    -1
 TstMul:  Mul=     1
 Symbolic Z-matrix:
 Charge = -1 Multiplicity = 1

 SCF Done:  E(RPBE1PBE) =  -599.601166546     A.U. after   14 cycles
 SCF Done:  E(RPBE1PBE) =  -599.603054810     A.U. after   11 cycles
 SCF Done:  E(RPBE1PBE) =  -599.606780681     A.U. after   12 cycles
 SCF Done:  E(RPBE1PBE) =  -599.608707867     A.U. after   12 cycles
 SCF Done:  E(RPBE1PBE) =  -599.613638711     A.U. after   12 cycles
 SCF Done:  E(RPBE1PBE) =  -599.636573205     A.U. after   13 cycles
 SCF Done:  E(RPBE1PBE) =  -599.655591480     A.U. after   12 cycles
 SCF Done:  E(RPBE1PBE) =  -599.665391401     A.U. after   12 cycles
 SCF Done:  E(RPBE1PBE) =  -599.672023369     A.U. after   10 cycles
 SCF Done:  E(RPBE1PBE) =  -599.681670272     A.U. after   11 cycles
 SCF Done:  E(RPBE1PBE) =  -599.682033906     A.U. after   10 cycles
 SCF Done:  E(RPBE1PBE) =  -599.682054256     A.U. after    8 cycles
 SCF Done:  E(RPBE1PBE) =  -599.682062180     A.U. after    8 cycles
 SCF Done:  E(RPBE1PBE) =  -599.682062913     A.U. after    6 cycles
 SCF Done:  E(RPBE1PBE) =  -599.682066280     A.U. after    7 cycles
 SCF Done:  E(RPBE1PBE) =  -599.682066780     A.U. after    7 cycles
 Optimization completed.
    -- Stationary point found.

                         Standard orientation:
 ---------------------------------------------------------------------
 Center     Atomic      Atomic             Coordinates (Angstroms)
 Number     Number       Type             X           Y           Z
 ---------------------------------------------------------------------
      1         17           0        0.000000    0.000000    1.963898
      2          6           0        0.000000    0.000000   -1.217583
      3          1           0        0.000000    1.025181   -0.842439
      4          1           0        0.887833   -0.512590   -0.842439
      5          1           0       -0.887833   -0.512590   -0.842439
      6          9           0        0.000000    0.000000   -2.617050
 ---------------------------------------------------------------------

 The electronic state is 1-A1.
 Alpha  occ. eigenvalues -- -101.36459 -24.59754 -10.12284  -9.18961  -6.91930
 Alpha  occ. eigenvalues --   -6.91898  -6.91898  -1.05256  -0.55100  -0.48137
 Alpha  occ. eigenvalues --   -0.33433  -0.32620  -0.32620  -0.19180  -0.19180
 Alpha  occ. eigenvalues --   -0.02299  -0.02119  -0.02119
 Alpha virt. eigenvalues --    0.28096   0.31983   0.34667   0.34667   0.63719
 Alpha virt. eigenvalues --    0.71292   0.71292   0.71598   0.75340   0.75340
 Alpha virt. eigenvalues --    0.84099   1.04233   1.04233   1.13124   1.15488

 Mulliken charges:
               1
     1  Cl  -0.956485
     2  C   -0.161165
     3  H    0.171580
     4  H    0.171580
     5  H    0.171580
     6  F   -0.397090
 Sum of Mulliken charges =  -1.00000

 Dipole moment (field-independent basis, Debye):
    X=             -0.0000    Y=             -0.0000    Z=             -6.4449  Tot=              6.4449
 Quadrupole moment (field-independent basis, Debye-Ang):
   XX=            -27.2933   YY=            -27.2933   ZZ=            -53.9086
   XY=             -0.0000   XZ=              0.0000   YZ=              0.0000

 Normal termination of Gaussian 16 at Wed Oct  7 14:34:16 2020.
