 Gaussian 16, Revision A.03,

 ----------------------------------------------------------------------
 #P Opt(TS,MaxCyc=50,NoEigenTest,MaxStep=10,AddRedundant) PBE1PBE/6-31G
 * 5D 7F Integral=UltraFineGrid SCF=(NoSymm,XQC,MaxCyc=120) EmpiricalDi
 spersion=GD3BJ IOp(1/33=1)
 ----------------------------------------------------------------------

 TstMul:  Mul=     1
 TstMul:  ICh=    -1
 TstMul:  Mul=     1
 Symbolic Z-matrix:
 Charge = -1 Multiplicity = 1

 SCF Done:  E(RPBE1PBE) =  -599.613650121     A.U. after   13 cycles
 SCF Done:  E(RPBE1PBE) =  -599.613682009     A.U. after    8 cycles
 SCF Done:  E(RPBE1PBE) =  -599.613667693     A.U. after    9 cycles
 SCF Done:  E(RPBE1PBE) =  -599.612476853     A.U. after   11 cycles
 SCF Done:  E(RPBE1PBE) =  -599.611239235     A.U. after   11 cycles
 SCF Done:  E(RPBE1PBE) =  -599.610052115     A.U. after   11 cycles
 SCF Done:  E(RPBE1PBE) =  -599.608986763     A.U. after   11 cycles
 SCF Done:  E(RPBE1PBE) =  -599.608060207     A.U. after   11 cycles
 SCF Done:  E(RPBE1PBE) =  -599.607241691     A.U. after   11 cycles
 SCF Done:  E(RPBE1PBE) =  -599.606474650     A.U. after   11 cycles
 SCF Done:  E(RPBE1PBE) =  -599.605968953     A.U. after   11 cycles
 SCF Done:  E(RPBE1PBE) =  -599.605961870     A.U. after   11 cycles
 SCF Done:  E(RPBE1PBE) =  -599.605991180     A.U. after   11 cycles
 SCF Done:  E(RPBE1PBE) =  -599.606041769     A.U. after   11 cycles
 SCF Done:  E(RPBE1PBE) =  -599.606093241     A.U. after   11 cycles
 SCF Done:  E(RPBE1PBE) =  -599.606119879     A.U. after   10 cycles
 SCF Done:  E(RPBE1PBE) =  -599.606122224     A.U. after   11 cycles
 SCF Done:  E(RPBE1PBE) =  -599.606121880     A.U. after   11 cycles
 SCF Done:  E(RPBE1PBE) =  -599.606125318     A.U. after    9 cycles
 Optimization completed.
    -- Stationary point found.
 Normal termination of Gaussian 16 at Wed Oct  7 14:41:00 2020.
 Gaussian 16:  ES64L-G16RevA.03 25-Dec-2016

 ----------------------------------------------------------------------
 #P Freq PBE1PBE/6-31G* 5D 7F Integral=UltraFineGrid SCF=(NoSymm,XQC,Ma
 xCyc=120) EmpiricalDispersion=GD3BJ IOp(1/33=1) Geom=Check Guess=Read
 ----------------------------------------------------------------------

 TstMul:  Mul=     1
 TstMul:  ICh=    -1
 TstMul:  Mul=     1
 Structure from the checkpoint file:  "MN_37_fch3clts_BH76_PBE0DBJ_631Gs.chk"
 Charge = -1 Multiplicity = 1

                         Standard orientation:
 ---------------------------------------------------------------------
 Center     Atomic      Atomic             Coordinates (Angstroms)
 Number     Number       Type             X           Y           Z
 ---------------------------------------------------------------------
      1          6           0        0.324594   -0.243458    0.000050
      2          9           0        2.591681    0.121343   -0.000023
      3         17           0       -1.598225    0.080343   -0.000018
      4          1           0        0.940088    0.658416   -0.002936
      5          1           0        0.477852   -0.830381   -0.899398
      6          1           0        0.479204   -0.825205    0.902547
 ---------------------------------------------------------------------

 SCF Done:  E(RPBE1PBE) =  -599.606125318     A.U. after    1 cycles

 The electronic state is 1-A.
 Alpha  occ. eigenvalues -- -101.49019 -24.32802 -10.07446  -9.31977  -7.05322
 Alpha  occ. eigenvalues --   -7.04645  -7.04643  -0.73827  -0.64835  -0.49451
 Alpha  occ. eigenvalues --   -0.25574  -0.24275  -0.20599  -0.12565  -0.12526
 Alpha  occ. eigenvalues --   -0.00157   0.00220   0.00721
 Alpha virt. eigenvalues --    0.21332   0.31197   0.35232   0.40320   0.58580
 Alpha virt. eigenvalues --    0.64283   0.64889   0.67024   0.74427   0.74454
 Alpha virt. eigenvalues --    0.90838   1.05771   1.06668   1.08083   1.11393

 Mulliken charges:
               1
     1  C   -0.534524
     2  F   -0.721015
     3  Cl  -0.380001
     4  H    0.268121
     5  H    0.183616
     6  H    0.183803
 Sum of Mulliken charges =  -1.00000

 Dipole moment (field-independent basis, Debye):
    X=             -4.7229    Y=             -0.8388    Z=              0.0005  Tot=              4.7969
 Quadrupole moment (field-independent basis, Debye-Ang):
   XX=            -56.0663   YY=            -26.5396   ZZ=            -26.3555
   XY=             -0.7816   XZ=              0.0007   YZ=             -0.0002

  Exact polarizability:  59.551  -0.899  18.441   0.004   0.002  18.651
 Approx polarizability:  91.311  -1.218  22.880   0.008   0.002  23.170

 ******    1 imaginary frequencies (negative Signs) ******

                      1                      2                      3
                      A                      A                      A
 Frequencies --   -271.3316               196.9291               289.3721
 Red. masses --      2.5539                 2.0408                17.8124
 Frc consts  --      0.1108                 0.0466                 0.8788
 IR Inten    --    107.2839                 5.3304                52.6432

                      4                      5                      6
                      A                      A                      A
 Frequencies --    369.0382               692.4248               964.0103
 Red. masses --      9.0332                 1.3239                 1.1099
 Frc consts  --      0.7248                 0.3740                 0.6077
 IR Inten    --    259.8710               174.9403                 0.1564

                      7                      8                      9
                      A                      A                      A
 Frequencies --   1162.8755              1429.7085              1438.5668
 Red. masses --      1.0659                 1.0658                 1.0757
 Frc consts  --      0.8492                 1.2835                 1.3116
 IR Inten    --      7.7660                 9.6981                14.1187

                     10                     11                     12
                      A                      A                      A
 Frequencies --   3130.5712              3270.2900              3300.2623
 Red. masses --      1.0245                 1.1092                 1.1130
 Frc consts  --      5.9155                 6.9894                 7.1424
 IR Inten    --     25.9759                46.5840                17.5228

 - Thermochemistry -
 -------------------
 Temperature   298.150 Kelvin.  Pressure   1.00000 Atm.
 Atom     1 has atomic number  6 and mass  12.00000

 Molecular mass:    68.99073 amu.
 Principal axes and moments of inertia in atomic units:
                           1         2         3
     Eigenvalues --    16.60525 789.82519 794.74435
           X            1.00000  -0.00174  -0.00000
           Y            0.00174   1.00000   0.00009
           Z           -0.00000  -0.00009   1.00000
 This molecule is an asymmetric top.
 Rotational symmetry number  1.
 Rotational temperatures (Kelvin)      5.21606     0.10966     0.10898
 Rotational constants (GHZ):         108.68498     2.28499     2.27084
    1 imaginary frequencies ignored.
 Zero-point vibrational energy      97161.0 (Joules/Mol)
                                   23.22203 (Kcal/Mol)
 Warning -- explicit consideration of   3 degrees of freedom as
           vibrations may cause significant error
 Vibrational temperatures:    283.34   416.34   530.96   996.24  1387.00
          (Kelvin)           1673.12  2057.03  2069.78  4504.19  4705.22
                             4748.34

 Zero-point correction=                           0.037007 (Hartree/Particle)
 Thermal correction to Energy=                    0.041370
 Thermal correction to Enthalpy=                  0.042314
 Thermal correction to Gibbs Free Energy=         0.010149
 Sum of electronic and zero-point Energies=           -599.569119
 Sum of electronic and thermal Energies=              -599.564756
 Sum of electronic and thermal Enthalpies=            -599.563812
 Sum of electronic and thermal Free Energies=         -599.595976

                     E (Thermal)             CV                S
                      KCal/Mol        Cal/Mol-Kelvin    Cal/Mol-Kelvin
 Total                   25.960             12.716             67.696
 Electronic               0.000              0.000              0.000
 Translational            0.889              2.981             38.612
 Rotational               0.889              2.981             23.859
 Vibrational             24.182              6.755              5.226
 Vibration     1          0.636              1.844              2.162
 Vibration     2          0.686              1.693              1.478
 Vibration     3          0.741              1.536              1.084

                           ! Non-Optimized Parameters !
 Normal termination of Gaussian 16 at Wed Oct  7 14:41:31 2020.
