 Gaussian 16, Revision A.03,
 Gaussian 16:  ES64L-G16RevA.03 25-Dec-2016

 ----------------------------------------------------------------------
 #P Opt(MaxCyc=100) PBE1PBE/6-31G* 5D 7F Integral=UltraFineGrid SCF=(No
 Symm,XQC,MaxCyc=120) EmpiricalDispersion=GD3BJ IOp(1/33=1)
 ----------------------------------------------------------------------

 TstMul:  Mul=     1
 TstMul:  ICh=     0
 TstMul:  Mul=     1
 Symbolic Z-matrix:
 Charge =  0 Multiplicity = 1

 SCF Done:  E(RPBE1PBE) =  -199.308566792     A.U. after    9 cycles
 SCF Done:  E(RPBE1PBE) =  -199.308610830     A.U. after    5 cycles
 SCF Done:  E(RPBE1PBE) =  -199.308611198     A.U. after    5 cycles
 Optimization completed.
    -- Stationary point found.

                         Standard orientation:
 ---------------------------------------------------------------------
 Center     Atomic      Atomic             Coordinates (Angstroms)
 Number     Number       Type             X           Y           Z
 ---------------------------------------------------------------------
      1          9           0        0.000000    0.000000    0.693781
      2          9           0        0.000000    0.000000   -0.693781
 ---------------------------------------------------------------------

 The electronic state is 1-SGG.
 Alpha  occ. eigenvalues --  -24.87607 -24.87605  -1.37874  -1.11770  -0.60628
 Alpha  occ. eigenvalues --   -0.54536  -0.54536  -0.40584  -0.40584
 Alpha virt. eigenvalues --   -0.10300   1.09198   1.09198   1.10302   1.24359
 Alpha virt. eigenvalues --    1.26990   1.26990   1.27966   1.54811   1.54811
 Alpha virt. eigenvalues --    1.69895   1.69895   1.77399   1.95135   1.95135

 Mulliken charges:
               1
     1  F   -0.000000
     2  F   -0.000000
 Sum of Mulliken charges =  -0.00000

 Dipole moment (field-independent basis, Debye):
    X=             -0.0000    Y=              0.0000    Z=              0.0000  Tot=              0.0000
 Quadrupole moment (field-independent basis, Debye-Ang):
   XX=             -9.2697   YY=             -9.2697   ZZ=             -8.3669
   XY=             -0.0000   XZ=              0.0000   YZ=              0.0000

 Normal termination of Gaussian 16 at Wed Oct  7 14:31:40 2020.
