 Gaussian 16, Revision A.03,
 Gaussian 16:  ES64L-G16RevA.03 25-Dec-2016

 ----------------------------------------------------------------------
 #P Opt(MaxCyc=100) PBE1PBE/6-31G* 5D 7F Integral=UltraFineGrid SCF=(No
 Symm,XQC,MaxCyc=120) EmpiricalDispersion=GD3BJ IOp(1/33=1)
 ----------------------------------------------------------------------

 TstMul:  Mul=     1
 TstMul:  ICh=    -1
 TstMul:  Mul=     1
 Symbolic Z-matrix:
 Charge = -1 Multiplicity = 1

 SCF Done:  E(RPBE1PBE) =  -599.681754703     A.U. after   11 cycles
 SCF Done:  E(RPBE1PBE) =  -599.681968287     A.U. after    9 cycles
 SCF Done:  E(RPBE1PBE) =  -599.682041280     A.U. after    9 cycles
 SCF Done:  E(RPBE1PBE) =  -599.682059085     A.U. after    9 cycles
 SCF Done:  E(RPBE1PBE) =  -599.682065023     A.U. after    8 cycles
 SCF Done:  E(RPBE1PBE) =  -599.682066350     A.U. after    7 cycles
 SCF Done:  E(RPBE1PBE) =  -599.682066726     A.U. after    7 cycles
 Optimization completed.
    -- Stationary point found.

                         Standard orientation:
 ---------------------------------------------------------------------
 Center     Atomic      Atomic             Coordinates (Angstroms)
 Number     Number       Type             X           Y           Z
 ---------------------------------------------------------------------
      1          9           0        0.000000    0.000000   -2.617123
      2          6           0        0.000000    0.000000   -1.217669
      3          1           0       -0.000000    1.024981   -0.842347
      4          1           0       -0.887659   -0.512490   -0.842347
      5          1           0        0.887659   -0.512490   -0.842347
      6         17           0        0.000000    0.000000    1.963951
 ---------------------------------------------------------------------

 The electronic state is 1-A1.
 Alpha  occ. eigenvalues -- -101.36460 -24.59756 -10.12280  -9.18962  -6.91930
 Alpha  occ. eigenvalues --   -6.91898  -6.91898  -1.05257  -0.55104  -0.48137
 Alpha  occ. eigenvalues --   -0.33437  -0.32620  -0.32620  -0.19181  -0.19181
 Alpha  occ. eigenvalues --   -0.02300  -0.02120  -0.02120
 Alpha virt. eigenvalues --    0.28100   0.31982   0.34672   0.34672   0.63719
 Alpha virt. eigenvalues --    0.71290   0.71290   0.71597   0.75338   0.75338
 Alpha virt. eigenvalues --    0.84102   1.04239   1.04239   1.13144   1.15494

 Mulliken charges:
               1
     1  F   -0.397061
     2  C   -0.161266
     3  H    0.171603
     4  H    0.171603
     5  H    0.171603
     6  Cl  -0.956482
 Sum of Mulliken charges =  -1.00000

 Dipole moment (field-independent basis, Debye):
    X=              0.0000    Y=              0.0000    Z=             -6.4450  Tot=              6.4450
 Quadrupole moment (field-independent basis, Debye-Ang):
   XX=            -27.2934   YY=            -27.2934   ZZ=            -53.9087
   XY=             -0.0000   XZ=              0.0000   YZ=             -0.0000

 Normal termination of Gaussian 16 at Wed Oct  7 14:32:29 2020.
