 Gaussian 16, Revision A.03,
 Gaussian 16:  ES64L-G16RevA.03 25-Dec-2016

 ----------------------------------------------------------------------
 #P Opt(MaxCyc=100) PBE1PBE/6-31G* 5D 7F Integral=UltraFineGrid SCF=(No
 Symm,XQC,MaxCyc=120) EmpiricalDispersion=GD3BJ IOp(1/33=1)
 ----------------------------------------------------------------------

 TstMul:  Mul=     1
 TstMul:  ICh=     0
 TstMul:  Mul=     1
 Symbolic Z-matrix:
 Charge =  0 Multiplicity = 1

 SCF Done:  E(RPBE1PBE) =  -460.622950662     A.U. after    9 cycles
 SCF Done:  E(RPBE1PBE) =  -460.623001720     A.U. after    7 cycles
 SCF Done:  E(RPBE1PBE) =  -460.623001875     A.U. after    5 cycles
 Optimization completed.
    -- Stationary point found.

                         Standard orientation:
 ---------------------------------------------------------------------
 Center     Atomic      Atomic             Coordinates (Angstroms)
 Number     Number       Type             X           Y           Z
 ---------------------------------------------------------------------
      1         17           0        0.000000    0.000000    0.071313
      2          1           0        0.000000    0.000000   -1.212325
 ---------------------------------------------------------------------

 The electronic state is 1-SG.
 Alpha  occ. eigenvalues -- -101.70456  -9.53749  -7.27289  -7.26261  -7.26261
 Alpha  occ. eigenvalues --   -0.87083  -0.48905  -0.34365  -0.34365
 Alpha virt. eigenvalues --    0.02432   0.39065   0.42441   0.45586   0.45586
 Alpha virt. eigenvalues --    0.70566   0.84479   0.84479   0.87736   0.87736
 Alpha virt. eigenvalues --    1.20180

 Mulliken charges:
               1
     1  Cl  -0.243087
     2  H    0.243087
 Sum of Mulliken charges =  -0.00000

 Dipole moment (field-independent basis, Debye):
    X=              0.0000    Y=             -0.0000    Z=             -1.5156  Tot=              1.5156
 Quadrupole moment (field-independent basis, Debye-Ang):
   XX=            -13.9058   YY=            -13.9058   ZZ=            -10.2920
   XY=             -0.0000   XZ=              0.0000   YZ=             -0.0000

 1\1\GINC-NODE19\FOpt\RPBE1PBE\6-31G(d)\Cl1H1\RPEVERATI\07-Oct-2020\0\\
 #P Opt(MaxCyc=100) PBE1PBE/6-31G* 5D 7F Integral=UltraFineGrid SCF=(No
 Symm,XQC,MaxCyc=120) EmpiricalDispersion=GD3BJ IOp(1/33=1)\\TS search
 on BH76.\\0,1\Cl,0.,0.,0.0753979315\H,0.,0.,-1.2082403956\\Version=ES6
 4L-G16RevA.03\State=1-SG\HF=-460.6230019\RMSD=7.288e-09\RMSF=2.320e-08
 \Dipole=0.,0.,-0.5962882\Quadrupole=-0.8956018,-0.8956018,1.7912036,0.
 ,0.,0.\PG=C*V [C*(H1Cl1)]\\@

 Normal termination of Gaussian 16 at Wed Oct  7 14:32:37 2020.
