 Gaussian 16, Revision A.03,
 Gaussian 16:  ES64L-G16RevA.03 25-Dec-2016

 ----------------------------------------------------------------------
 #P Opt(MaxCyc=100) PBE1PBE/6-31G* 5D 7F Integral=UltraFineGrid SCF=(No
 Symm,XQC,MaxCyc=120) EmpiricalDispersion=GD3BJ IOp(1/33=1)
 ----------------------------------------------------------------------

 TstMul:  Mul=     1
 TstMul:  ICh=     0
 TstMul:  Mul=     1
 Symbolic Z-matrix:
 Charge =  0 Multiplicity = 1

 SCF Done:  E(RPBE1PBE) =  -93.3059403661     A.U. after   10 cycles
 SCF Done:  E(RPBE1PBE) =  -93.3059715579     A.U. after    8 cycles
 Optimization completed.
    -- Stationary point found.

                         Standard orientation:
 ---------------------------------------------------------------------
 Center     Atomic      Atomic             Coordinates (Angstroms)
 Number     Number       Type             X           Y           Z
 ---------------------------------------------------------------------
      1          6           0        0.000000    0.000000   -0.501199
      2          7           0        0.000000    0.000000    0.654233
      3          1           0        0.000000    0.000000   -1.572436
 ---------------------------------------------------------------------

 The electronic state is 1-SG.
 Alpha  occ. eigenvalues --  -14.42118 -10.28542  -0.94450  -0.62236  -0.39277
 Alpha  occ. eigenvalues --   -0.37160  -0.37160
 Alpha virt. eigenvalues --    0.03080   0.03080   0.09557   0.29390   0.54167
 Alpha virt. eigenvalues --    0.54167   0.66362   0.71383   0.79640   0.79640
 Alpha virt. eigenvalues --    0.83798   1.12229   1.49667   1.51072   1.51072

 Mulliken charges:
               1
     1  C    0.019498
     2  N   -0.296452
     3  H    0.276954
 Sum of Mulliken charges =  -0.00000

 Dipole moment (field-independent basis, Debye):
    X=              0.0000    Y=             -0.0000    Z=             -2.9358  Tot=              2.9358
 Quadrupole moment (field-independent basis, Debye-Ang):
   XX=            -11.4153   YY=            -11.4153   ZZ=             -9.4446
   XY=             -0.0000   XZ=              0.0000   YZ=              0.0000

 Normal termination of Gaussian 16 at Wed Oct  7 14:32:32 2020.
