 Gaussian 16, Revision A.03,
 Gaussian 16:  ES64L-G16RevA.03 25-Dec-2016

 ----------------------------------------------------------------------
 #P Opt(MaxCyc=100) PBE1PBE/6-31G* 5D 7F Integral=UltraFineGrid SCF=(No
 Symm,XQC,MaxCyc=120) EmpiricalDispersion=GD3BJ IOp(1/33=1)
 ----------------------------------------------------------------------

 TstMul:  Mul=     1
 TstMul:  ICh=     0
 TstMul:  Mul=     1
 Symbolic Z-matrix:
 Charge =  0 Multiplicity = 1

 SCF Done:  E(RPBE1PBE) =  -399.220004281     A.U. after   10 cycles
 SCF Done:  E(RPBE1PBE) =  -399.220087253     A.U. after    7 cycles
 SCF Done:  E(RPBE1PBE) =  -399.220088256     A.U. after    6 cycles
 Optimization completed.
    -- Stationary point found.

                         Standard orientation:
 ---------------------------------------------------------------------
 Center     Atomic      Atomic             Coordinates (Angstroms)
 Number     Number       Type             X           Y           Z
 ---------------------------------------------------------------------
      1         16           0        0.000000    0.000000    0.103078
      2          1           0        0.000000    0.973956   -0.824624
      3          1           0       -0.000000   -0.973956   -0.824624
 ---------------------------------------------------------------------

 The electronic state is 1-A1.
 Alpha  occ. eigenvalues --  -89.01931  -8.00799  -5.94474  -5.94156  -5.93431
 Alpha  occ. eigenvalues --   -0.76795  -0.46467  -0.37878  -0.27236
 Alpha virt. eigenvalues --    0.02994   0.06921   0.33188   0.34374   0.36315
 Alpha virt. eigenvalues --    0.38231   0.69432   0.74458   0.77136   0.77590
 Alpha virt. eigenvalues --    0.77902   1.04095   1.21911

 Mulliken charges:
               1
     1  S   -0.267420
     2  H    0.133710
     3  H    0.133710
 Sum of Mulliken charges =   0.00000

 Dipole moment (field-independent basis, Debye):
    X=             -0.0000    Y=             -0.0000    Z=             -1.4971  Tot=              1.4971
 Quadrupole moment (field-independent basis, Debye-Ang):
   XX=            -16.6221   YY=            -12.1457   ZZ=            -13.5332
   XY=              0.0000   XZ=              0.0000   YZ=              0.0000

 Normal termination of Gaussian 16 at Wed Oct  7 14:32:30 2020.
