 Gaussian 16, Revision A.03,

 ----------------------------------------------------------------------
 #P Opt(TS,MaxCyc=50,NoEigenTest,MaxStep=10,AddRedundant) PBE1PBE/6-31G
 * 5D 7F Integral=UltraFineGrid SCF=(NoSymm,XQC,MaxCyc=120) EmpiricalDi
 spersion=GD3BJ IOp(1/33=1)
 ----------------------------------------------------------------------

 TstMul:  Mul=     2
 TstMul:  ICh=     0
 TstMul:  Mul=     2
 Symbolic Z-matrix:
 Charge =  0 Multiplicity = 2

 SCF Done:  E(UPBE1PBE) =  -461.097266845     A.U. after   11 cycles
 SCF Done:  E(UPBE1PBE) =  -461.097324211     A.U. after    7 cycles
 SCF Done:  E(UPBE1PBE) =  -461.097328584     A.U. after    7 cycles
 Optimization completed.
    -- Stationary point found.
 Normal termination of Gaussian 16 at Wed Oct  7 14:32:39 2020.
 Gaussian 16:  ES64L-G16RevA.03 25-Dec-2016

 ----------------------------------------------------------------------
 #P Freq PBE1PBE/6-31G* 5D 7F Integral=UltraFineGrid SCF=(NoSymm,XQC,Ma
 xCyc=120) EmpiricalDispersion=GD3BJ IOp(1/33=1) Geom=Check Guess=Read
 ----------------------------------------------------------------------

 TstMul:  Mul=     2
 TstMul:  ICh=     0
 TstMul:  Mul=     2
 Structure from the checkpoint file:  "MN_45_hclhts_BH76_PBE0DBJ_631Gs.chk"
 Charge =  0 Multiplicity = 2

                         Standard orientation:
 ---------------------------------------------------------------------
 Center     Atomic      Atomic             Coordinates (Angstroms)
 Number     Number       Type             X           Y           Z
 ---------------------------------------------------------------------
      1          1           0        0.000000    0.000000    1.497305
      2         17           0        0.000000    0.000000    0.000000
      3          1           0        0.000000    0.000000   -1.497305
 ---------------------------------------------------------------------

 SCF Done:  E(UPBE1PBE) =  -461.097328584     A.U. after    1 cycles

 The electronic state is 2-SGG.
 Alpha  occ. eigenvalues -- -101.72351  -9.55328  -7.28853  -7.27791  -7.27791
 Alpha  occ. eigenvalues --   -0.87306  -0.55314  -0.35570  -0.35570  -0.26400
 Alpha virt. eigenvalues --    0.02647   0.40418   0.44313   0.44313   0.63499
 Alpha virt. eigenvalues --    0.64461   0.72599   0.83761   0.83761   0.86464
 Alpha virt. eigenvalues --    0.86464   1.10200
  Beta  occ. eigenvalues -- -101.72305  -9.55198  -7.29092  -7.27676  -7.27676
  Beta  occ. eigenvalues --   -0.86353  -0.50836  -0.34922  -0.34922
  Beta virt. eigenvalues --   -0.09621   0.09783   0.40416   0.44848   0.44848
  Beta virt. eigenvalues --    0.64071   0.70036   0.82077   0.83011   0.83011
  Beta virt. eigenvalues --    0.87425   0.87425   1.14558

 Mulliken charges and spin densities:
               1          2
     1  H    0.136416   0.566740
     2  Cl  -0.272832  -0.133479
     3  H    0.136416   0.566740
 Sum of Mulliken charges =   0.00000   1.00000

 Dipole moment (field-independent basis, Debye):
    X=              0.0000    Y=              0.0000    Z=              0.0000  Tot=              0.0000
 Quadrupole moment (field-independent basis, Debye-Ang):
   XX=            -15.2115   YY=            -15.2115   ZZ=            -11.7941
   XY=              0.0000   XZ=             -0.0000   YZ=              0.0000

  Exact polarizability:   6.303   0.000   6.303  -0.000  -0.000  38.262
 Approx polarizability:   7.580   0.000   7.580  -0.000  -0.000  54.555

 ******    1 imaginary frequencies (negative Signs) ******

                      1                      2                      3
                     SGU                    PIU                    PIU
 Frequencies --  -1365.4389               311.8671               311.8671
 Red. masses --      1.0641                 1.0641                 1.0641
 Frc consts  --      1.1690                 0.0610                 0.0610
 IR Inten    --   1145.7346                45.8617                45.8617

                      4
                     SGG
 Frequencies --   1816.1608
 Red. masses --      1.0078
 Frc consts  --      1.9586
 IR Inten    --      0.0000

 - Thermochemistry -
 -------------------
 Temperature   298.150 Kelvin.  Pressure   1.00000 Atm.
 Atom     1 has atomic number  1 and mass   1.00783

 Molecular mass:    36.98450 amu.
 Principal axes and moments of inertia in atomic units:
                           1         2         3
     Eigenvalues --     0.00000  16.13740  16.13740
           X           -0.00000   1.00000   0.00000
           Y            0.00000   0.00000   1.00000
           Z            1.00000   0.00000   0.00000
 This molecule is a prolate symmetric top.
 Rotational symmetry number  2.
 Rotational temperature (Kelvin)      5.36728
 Rotational constant (GHZ):         111.835950
    1 imaginary frequencies ignored.
 Zero-point vibrational energy      14593.8 (Joules/Mol)
                                    3.48800 (Kcal/Mol)
 Warning -- explicit consideration of   2 degrees of freedom as
           vibrations may cause significant error
 Vibrational temperatures:    448.71   448.71  2613.05
          (Kelvin)

 Zero-point correction=                           0.005558 (Hartree/Particle)
 Thermal correction to Energy=                    0.008731
 Thermal correction to Enthalpy=                  0.009675
 Thermal correction to Gibbs Free Energy=        -0.013811
 Sum of electronic and zero-point Energies=           -461.091770
 Sum of electronic and thermal Energies=              -461.088597
 Sum of electronic and thermal Enthalpies=            -461.087653
 Sum of electronic and thermal Free Energies=         -461.111139

                     E (Thermal)             CV                S
                      KCal/Mol        Cal/Mol-Kelvin    Cal/Mol-Kelvin
 Total                    5.479              8.294             49.431
 Electronic               0.000              0.000              1.377
 Translational            0.889              2.981             36.753
 Rotational               0.592              1.987              8.593
 Vibrational              3.998              3.326              2.708
 Vibration     1          0.700              1.651              1.352
 Vibration     2          0.700              1.651              1.352

 Optimization completed.
    -- Stationary point found.
 Normal termination of Gaussian 16 at Wed Oct  7 14:32:58 2020.
