 Gaussian 16, Revision A.03,

 ----------------------------------------------------------------------
 #P Opt(TS,MaxCyc=50,NoEigenTest,MaxStep=10,AddRedundant) PBE1PBE/6-31G
 * 5D 7F Integral=UltraFineGrid SCF=(NoSymm,XQC,MaxCyc=120) EmpiricalDi
 spersion=GD3BJ IOp(1/33=1)
 ----------------------------------------------------------------------

 TstMul:  Mul=     1
 TstMul:  ICh=     0
 TstMul:  Mul=     1
 Symbolic Z-matrix:
 Charge =  0 Multiplicity = 1

 SCF Done:  E(RPBE1PBE) =  -93.2268632645     A.U. after   12 cycles
 SCF Done:  E(RPBE1PBE) =  -93.2268647411     A.U. after    8 cycles
 SCF Done:  E(RPBE1PBE) =  -93.2268644845     A.U. after    8 cycles
 Optimization completed.
    -- Stationary point found.

 1\1\GINC-NODE21\FTS\RPBE1PBE\6-31G(d)\C1H1N1\RPEVERATI\07-Oct-2020\0\\
 #P Opt(TS,MaxCyc=50,NoEigenTest,MaxStep=10,AddRedundant) PBE1PBE/6-31G
 * 5D 7F Integral=UltraFineGrid SCF=(NoSymm,XQC,MaxCyc=120) EmpiricalDi
 spersion=GD3BJ IOp(1/33=1)\\TS search on BH76.\\0,1\C,0.0798695438,0.6
 205339988,0.\N,0.0802783453,-0.5684829392,0.\H,-1.0436558102,0.2552363
 258,0.\\Version=ES64L-G16RevA.03\State=1-A'\HF=-93.2268645\RMSD=3.851e
 -09\RMSF=3.083e-05\Dipole=-0.5074781,0.0624114,0.\Quadrupole=1.7361898
 ,-1.7034149,-0.0327748,-0.2383987,0.,0.\PG=CS [SG(C1H1N1)]\\@

 Normal termination of Gaussian 16 at Wed Oct  7 14:32:39 2020.
 Gaussian 16:  ES64L-G16RevA.03 25-Dec-2016

 ----------------------------------------------------------------------
 #P Freq PBE1PBE/6-31G* 5D 7F Integral=UltraFineGrid SCF=(NoSymm,XQC,Ma
 xCyc=120) EmpiricalDispersion=GD3BJ IOp(1/33=1) Geom=Check Guess=Read
 ----------------------------------------------------------------------

 TstMul:  Mul=     1
 TstMul:  ICh=     0
 TstMul:  Mul=     1
 Structure from the checkpoint file:  "MN_49_hcnts_BH76_PBE0DBJ_631Gs.chk"
 Charge =  0 Multiplicity = 1

                         Standard orientation:
 ---------------------------------------------------------------------
 Center     Atomic      Atomic             Coordinates (Angstroms)
 Number     Number       Type             X           Y           Z
 ---------------------------------------------------------------------
      1          6           0        0.080261    0.620574    0.000000
      2          7           0        0.080261   -0.568443    0.000000
      3          1           0       -1.043390    0.255662    0.000000
 ---------------------------------------------------------------------

 SCF Done:  E(RPBE1PBE) =  -93.2268644845     A.U. after    1 cycles

 The electronic state is 1-A'.
 Alpha  occ. eigenvalues --  -14.46896 -10.29136  -1.01368  -0.54116  -0.46414
 Alpha  occ. eigenvalues --   -0.39644  -0.34449
 Alpha virt. eigenvalues --   -0.05017   0.01921   0.07916   0.32938   0.54604
 Alpha virt. eigenvalues --    0.54681   0.59092   0.68631   0.73529   0.76372
 Alpha virt. eigenvalues --    0.79161   0.86144   1.27461   1.47572   1.49980

 Mulliken charges:
               1
     1  C   -0.057315
     2  N   -0.228749
     3  H    0.286064
 Sum of Mulliken charges =   0.00000

 Dipole moment (field-independent basis, Debye):
    X=             -1.2898    Y=              0.1591    Z=              0.0000  Tot=              1.2996
 Quadrupole moment (field-independent basis, Debye-Ang):
   XX=             -9.4428   YY=            -14.0687   ZZ=            -11.8219
   XY=             -0.3222   XZ=              0.0000   YZ=              0.0000

  Exact polarizability:  12.834   0.280  17.693  -0.000   0.000   8.612
 Approx polarizability:  18.368   1.145  33.671   0.000  -0.000  11.372

 ******    1 imaginary frequencies (negative Signs) ******

                      1                      2                      3
                     A'                     A'                     A'
 Frequencies --  -1155.4056              2098.3823              2685.5840
 Red. masses --      1.1648                12.1539                 1.0595
 Frc consts  --      0.9161                31.5308                 4.5024
 IR Inten    --     77.7094                 8.0255               121.1496

 - Thermochemistry -
 -------------------
 Temperature   298.150 Kelvin.  Pressure   1.00000 Atm.
 Atom     1 has atomic number  6 and mass  12.00000

 Molecular mass:    27.01090 amu.
 Principal axes and moments of inertia in atomic units:
                           1         2         3
     Eigenvalues --     4.33427  32.92827  37.26255
           X           -0.03752   0.99930   0.00000
           Y            0.99930   0.03752   0.00000
           Z            0.00000   0.00000   1.00000
 This molecule is an asymmetric top.
 Rotational symmetry number  1.
 Rotational temperatures (Kelvin)     19.98350     2.63038     2.32442
 Rotational constants (GHZ):         416.38854    54.80825    48.43312
    1 imaginary frequencies ignored.
 Zero-point vibrational energy      28614.5 (Joules/Mol)
                                    6.83902 (Kcal/Mol)
 Vibrational temperatures:   3019.10  3863.96
          (Kelvin)

 Zero-point correction=                           0.010899 (Hartree/Particle)
 Thermal correction to Energy=                    0.013732
 Thermal correction to Enthalpy=                  0.014676
 Thermal correction to Gibbs Free Energy=        -0.010100
 Sum of electronic and zero-point Energies=            -93.215966
 Sum of electronic and thermal Energies=               -93.213133
 Sum of electronic and thermal Enthalpies=             -93.212189
 Sum of electronic and thermal Free Energies=          -93.236964

                     E (Thermal)             CV                S
                      KCal/Mol        Cal/Mol-Kelvin    Cal/Mol-Kelvin
 Total                    8.617              5.971             52.144
 Electronic               0.000              0.000              0.000
 Translational            0.889              2.981             35.816
 Rotational               0.889              2.981             16.327
 Vibrational              6.839              0.009              0.001

 Optimization completed.
    -- Stationary point found.
 Normal termination of Gaussian 16 at Wed Oct  7 14:32:56 2020.
