 Gaussian 16, Revision A.03,
 Gaussian 16:  ES64L-G16RevA.03 25-Dec-2016

 ----------------------------------------------------------------------
 #P PBE1PBE/6-31G* 5D 7F Integral=UltraFineGrid SCF=(NoSymm,XQC,MaxCyc=
 120) EmpiricalDispersion=GD3BJ IOp(1/33=1) Stable=Opt
 ----------------------------------------------------------------------

 TstMul:  Mul=     2
 TstMul:  ICh=     0
 TstMul:  Mul=     2
 Symbolic Z-matrix:
 Charge =  0 Multiplicity = 2

                         Standard orientation:
 ---------------------------------------------------------------------
 Center     Atomic      Atomic             Coordinates (Angstroms)
 Number     Number       Type             X           Y           Z
 ---------------------------------------------------------------------
      1          9           0        0.000000    0.000000    0.000000
 ---------------------------------------------------------------------

 SCF Done:  E(UPBE1PBE) =  -99.6235243459     A.U. after    9 cycles

 Unable to determine electronic state:  an orbital has unidentified symmetry.
 Alpha  occ. eigenvalues --  -24.85832  -1.24036  -0.55868  -0.46320  -0.46320
 Alpha virt. eigenvalues --    1.10293   1.16329   1.16329   1.30422   1.77611
 Alpha virt. eigenvalues --    1.79100   1.79100   1.84028   1.84028
  Beta  occ. eigenvalues --  -24.82581  -1.14069  -0.43028  -0.43028
  Beta virt. eigenvalues --   -0.21509   1.18255   1.18255   1.22892   1.35351
  Beta virt. eigenvalues --    1.84795   1.84795   1.85607   1.85607   1.87133

 Mulliken charges and spin densities:
               1          2
     1  F   -0.000000   1.000000
 Sum of Mulliken charges =  -0.00000   1.00000

 Dipole moment (field-independent basis, Debye):
    X=              0.0000    Y=             -0.0000    Z=             -0.0000  Tot=              0.0000
 Quadrupole moment (field-independent basis, Debye-Ang):
   XX=             -4.7114   YY=             -4.7113   ZZ=             -3.8902
   XY=             -0.0000   XZ=             -0.0000   YZ=              0.0058

 Normal termination of Gaussian 16 at Wed Oct  7 14:31:49 2020.
