 Gaussian 16, Revision A.03,

 ----------------------------------------------------------------------
 #P Opt(TS,MaxCyc=50,NoEigenTest,MaxStep=10,AddRedundant) PBE1PBE/6-31G
 * 5D 7F Integral=UltraFineGrid SCF=(NoSymm,XQC,MaxCyc=120) EmpiricalDi
 spersion=GD3BJ IOp(1/33=1)
 ----------------------------------------------------------------------

 TstMul:  Mul=     2
 TstMul:  ICh=     0
 TstMul:  Mul=     2
 Symbolic Z-matrix:
 Charge =  0 Multiplicity = 2

 SCF Done:  E(UPBE1PBE) =  -199.811307068     A.U. after   17 cycles
 SCF Done:  E(UPBE1PBE) =  -199.813068509     A.U. after   15 cycles
 SCF Done:  E(UPBE1PBE) =  -199.810722913     A.U. after   16 cycles
 SCF Done:  E(UPBE1PBE) =  -199.809156782     A.U. after   16 cycles
 SCF Done:  E(UPBE1PBE) =  -199.808206196     A.U. after   15 cycles
 SCF Done:  E(UPBE1PBE) =  -199.807696735     A.U. after   15 cycles
 SCF Done:  E(UPBE1PBE) =  -199.807472655     A.U. after   15 cycles
 SCF Done:  E(UPBE1PBE) =  -199.807419444     A.U. after   15 cycles
 SCF Done:  E(UPBE1PBE) =  -199.807412566     A.U. after   12 cycles
 SCF Done:  E(UPBE1PBE) =  -199.807412211     A.U. after    9 cycles
 Optimization completed.
    -- Stationary point found.
 Normal termination of Gaussian 16 at Wed Oct  7 14:33:44 2020.
 Gaussian 16:  ES64L-G16RevA.03 25-Dec-2016

 ----------------------------------------------------------------------
 #P Freq PBE1PBE/6-31G* 5D 7F Integral=UltraFineGrid SCF=(NoSymm,XQC,Ma
 xCyc=120) EmpiricalDispersion=GD3BJ IOp(1/33=1) Geom=Check Guess=Read
 ----------------------------------------------------------------------

 TstMul:  Mul=     2
 TstMul:  ICh=     0
 TstMul:  Mul=     2
 Structure from the checkpoint file:  "MN_52_hf2ts_BH76_PBE0DBJ_631Gs.chk"
 Charge =  0 Multiplicity = 2

                         Standard orientation:
 ---------------------------------------------------------------------
 Center     Atomic      Atomic             Coordinates (Angstroms)
 Number     Number       Type             X           Y           Z
 ---------------------------------------------------------------------
      1          1           0        0.000000    0.000000   -2.468336
      2          9           0        0.000000    0.000000   -0.573586
      3          9           0        0.000000    0.000000    0.847845
 ---------------------------------------------------------------------

 SCF Done:  E(UPBE1PBE) =  -199.807412211     A.U. after    1 cycles

 The electronic state is 2-SG.
 Alpha  occ. eigenvalues --  -24.86613 -24.85848  -1.35010  -1.11733  -0.59931
 Alpha  occ. eigenvalues --   -0.52661  -0.52661  -0.39974  -0.39974  -0.34042
 Alpha virt. eigenvalues --   -0.10846   0.73245   1.09605   1.09605   1.15560
 Alpha virt. eigenvalues --    1.27545   1.27545   1.30084   1.32587   1.55871
 Alpha virt. eigenvalues --    1.55871   1.72092   1.72092   1.77121   1.95057

  Beta  occ. eigenvalues --  -24.86751 -24.85352  -1.34524  -1.11229  -0.58799
  Beta  occ. eigenvalues --   -0.52489  -0.52489  -0.39748  -0.39748
  Beta virt. eigenvalues --   -0.12504   0.00307   0.97200   1.09706   1.09706
  Beta virt. eigenvalues --    1.16801   1.27690   1.27690   1.30702   1.33603
  Beta virt. eigenvalues --    1.56058   1.56058   1.72140   1.72140   1.77601

 Mulliken charges and spin densities:
               1          2
     1  H    0.053795   0.927036
     2  F   -0.027734  -0.063265
     3  F   -0.026061   0.136230
 Sum of Mulliken charges =  -0.00000   1.00000

 Dipole moment (field-independent basis, Debye):
    X=              0.0000    Y=              0.0000    Z=             -0.6138  Tot=              0.6138
 Quadrupole moment (field-independent basis, Debye-Ang):
   XX=            -10.5366   YY=            -10.5366   ZZ=             -8.2722
   XY=             -0.0000   XZ=              0.0000   YZ=             -0.0000

  Exact polarizability:   2.817   0.000   2.817   0.000   0.000  24.387
 Approx polarizability:   3.320  -0.000   3.320   0.000   0.000  34.320

 ******    1 imaginary frequencies (negative Signs) ******

                      1                      2                      3
                     SG                     PI                     PI
 Frequencies --   -472.4808               174.3124               174.3124
 Red. masses --      1.2106                 1.3661                 1.3661
 Frc consts  --      0.1592                 0.0245                 0.0245
 IR Inten    --    174.7509                 2.0531                 2.0531

                      4
                     SG
 Frequencies --    927.7636
 Red. masses --      5.1395
 Frc consts  --      2.6064
 IR Inten    --     48.5930

 - Thermochemistry -
 -------------------
 Temperature   298.150 Kelvin.  Pressure   1.00000 Atm.
 Atom     1 has atomic number  1 and mass   1.00783

 Molecular mass:    39.00463 amu.
 Principal axes and moments of inertia in atomic units:
                           1         2         3
     Eigenvalues --     0.00000  92.33918  92.33918
           X            0.00000   0.00000   1.00000
           Y            0.00000   1.00000   0.00000
           Z            1.00000   0.00000   0.00000
 This molecule is a prolate symmetric top.
 Rotational symmetry number  1.
 Rotational temperature (Kelvin)      0.93800
 Rotational constant (GHZ):          19.544695
    1 imaginary frequencies ignored.
 Zero-point vibrational energy       7634.5 (Joules/Mol)
                                    1.82469 (Kcal/Mol)
 Warning -- explicit consideration of   2 degrees of freedom as
           vibrations may cause significant error
 Vibrational temperatures:    250.80   250.80  1334.84
          (Kelvin)

 Zero-point correction=                           0.002908 (Hartree/Particle)
 Thermal correction to Energy=                    0.006521
 Thermal correction to Enthalpy=                  0.007465
 Thermal correction to Gibbs Free Energy=        -0.019440
 Sum of electronic and zero-point Energies=           -199.804504
 Sum of electronic and thermal Energies=              -199.800891
 Sum of electronic and thermal Enthalpies=            -199.799947
 Sum of electronic and thermal Free Energies=         -199.826853

                     E (Thermal)             CV                S
                      KCal/Mol        Cal/Mol-Kelvin    Cal/Mol-Kelvin
 Total                    4.092              9.179             56.628
 Electronic               0.000              0.000              1.377
 Translational            0.889              2.981             36.912
 Rotational               0.592              1.987             13.437
 Vibrational              2.611              4.211              4.902
 Vibration     1          0.627              1.874              2.388
 Vibration     2          0.627              1.874              2.388

 Optimization completed.
    -- Stationary point found.
 Normal termination of Gaussian 16 at Wed Oct  7 14:34:01 2020.
