 Gaussian 16, Revision A.03,
 Gaussian 16:  ES64L-G16RevA.03 25-Dec-2016

 ----------------------------------------------------------------------
 #P Opt(MaxCyc=100) PBE1PBE/6-31G* 5D 7F Integral=UltraFineGrid SCF=(No
 Symm,XQC,MaxCyc=120) EmpiricalDispersion=GD3BJ IOp(1/33=1)
 ----------------------------------------------------------------------

 TstMul:  Mul=     2
 TstMul:  ICh=     0
 TstMul:  Mul=     2
 Symbolic Z-matrix:
 Charge =  0 Multiplicity = 2

 SCF Done:  E(UPBE1PBE) =  -113.719448279     A.U. after   16 cycles
 SCF Done:  E(UPBE1PBE) =  -113.719531884     A.U. after   11 cycles
 SCF Done:  E(UPBE1PBE) =  -113.719533359     A.U. after   10 cycles
 Optimization completed.
    -- Stationary point found.

                         Standard orientation:
 ---------------------------------------------------------------------
 Center     Atomic      Atomic             Coordinates (Angstroms)
 Number     Number       Type             X           Y           Z
 ---------------------------------------------------------------------
      1          1           0       -0.871911    1.215502    0.000000
      2          6           0        0.062279    0.586797    0.000000
      3          8           0        0.062279   -0.592035    0.000000
 ---------------------------------------------------------------------

 The electronic state is 2-A'.
 Alpha  occ. eigenvalues --  -19.28689 -10.33401  -1.13595  -0.63457  -0.51319
 Alpha  occ. eigenvalues --   -0.45038  -0.44340  -0.22626
 Alpha virt. eigenvalues --   -0.03313   0.13847   0.24875   0.52908   0.53650
 Alpha virt. eigenvalues --    0.66373   0.72870   0.82831   0.89215   0.96429
 Alpha virt. eigenvalues --    1.00171   1.49555   1.51477   1.52436   1.52953

  Beta  occ. eigenvalues --  -19.27824 -10.32346  -1.11926  -0.60488  -0.48762
  Beta  occ. eigenvalues --   -0.43564  -0.39235
  Beta virt. eigenvalues --   -0.05721  -0.01345   0.16491   0.26307   0.54115
  Beta virt. eigenvalues --    0.58720   0.68358   0.74810   0.85096   0.90822
  Beta virt. eigenvalues --    0.96834   1.03063   1.51330   1.54132   1.54562

 Mulliken charges and spin densities:
               1          2
     1  H    0.169386   0.169121
     2  C    0.080265   0.585637
     3  O   -0.249651   0.245242
 Sum of Mulliken charges =   0.00000   1.00000

 Dipole moment (field-independent basis, Debye):
    X=             -0.9042    Y=              1.3187    Z=              0.0000  Tot=              1.5990
 Quadrupole moment (field-independent basis, Debye-Ang):
   XX=            -11.0979   YY=            -11.2549   ZZ=            -10.6216
   XY=             -0.9960   XZ=              0.0000   YZ=              0.0000

 Normal termination of Gaussian 16 at Wed Oct  7 14:32:43 2020.
