 Gaussian 16, Revision A.03,
 Gaussian 16:  ES64L-G16RevA.03 25-Dec-2016

 ----------------------------------------------------------------------
 #P Opt(MaxCyc=100) PBE1PBE/6-31G* 5D 7F Integral=UltraFineGrid SCF=(No
 Symm,XQC,MaxCyc=120) EmpiricalDispersion=GD3BJ IOp(1/33=1)
 ----------------------------------------------------------------------

 TstMul:  Mul=     2
 TstMul:  ICh=     0
 TstMul:  Mul=     2
 Symbolic Z-matrix:
 Charge =  0 Multiplicity = 2

 SCF Done:  E(UPBE1PBE) =  -109.902023545     A.U. after   17 cycles
 SCF Done:  E(UPBE1PBE) =  -109.902081839     A.U. after   11 cycles
 SCF Done:  E(UPBE1PBE) =  -109.902087507     A.U. after   11 cycles
 Optimization completed.
    -- Stationary point found.

                         Standard orientation:
 ---------------------------------------------------------------------
 Center     Atomic      Atomic             Coordinates (Angstroms)
 Number     Number       Type             X           Y           Z
 ---------------------------------------------------------------------
      1          7           0       -0.062903    0.659035    0.000000
      2          7           0       -0.062903   -0.517094    0.000000
      3          1           0        0.880646   -0.993583    0.000000
 ---------------------------------------------------------------------

 The electronic state is 2-A'.
 Alpha  occ. eigenvalues --  -14.47762 -14.47109  -1.10285  -0.69490  -0.50423
 Alpha  occ. eigenvalues --   -0.43932  -0.43368  -0.22495
 Alpha virt. eigenvalues --   -0.03453   0.09002   0.39149   0.63382   0.65022
 Alpha virt. eigenvalues --    0.67224   0.70244   0.77391   0.77542   0.82505
 Alpha virt. eigenvalues --    0.95780   1.27414   1.47246   1.49369   1.51168

  Beta  occ. eigenvalues --  -14.47457 -14.45424  -1.08323  -0.66449  -0.45349
  Beta  occ. eigenvalues --   -0.43038  -0.39429
  Beta virt. eigenvalues --   -0.04841  -0.01972   0.11412   0.40701   0.64249
  Beta virt. eigenvalues --    0.65479   0.70037   0.76192   0.78392   0.79094
  Beta virt. eigenvalues --    0.85791   0.96833   1.29113   1.49294   1.52191

 Mulliken charges and spin densities:
               1          2
     1  N   -0.075426   0.748711
     2  N   -0.260453   0.088233
     3  H    0.335880   0.163056
 Sum of Mulliken charges =   0.00000   1.00000

 Dipole moment (field-independent basis, Debye):
    X=              1.4737    Y=             -1.2664    Z=              0.0000  Tot=              1.9431
 Quadrupole moment (field-independent basis, Debye-Ang):
   XX=            -10.6488   YY=            -11.8727   ZZ=            -11.0143
   XY=             -1.4391   XZ=              0.0000   YZ=              0.0000

 Normal termination of Gaussian 16 at Wed Oct  7 14:33:08 2020.
