 Gaussian 16, Revision A.03,

 ----------------------------------------------------------------------
 #P Opt(TS,MaxCyc=50,NoEigenTest,MaxStep=10,AddRedundant) PBE1PBE/6-31G
 * 5D 7F Integral=UltraFineGrid SCF=(NoSymm,XQC,MaxCyc=120) EmpiricalDi
 spersion=GD3BJ IOp(1/33=1)
 ----------------------------------------------------------------------

 TstMul:  Mul=     2
 TstMul:  ICh=     0
 TstMul:  Mul=     2
 Symbolic Z-matrix:
 Charge =  0 Multiplicity = 2

 SCF Done:  E(UPBE1PBE) =  -100.765495940     A.U. after   10 cycles
 SCF Done:  E(UPBE1PBE) =  -100.766617159     A.U. after    9 cycles
 SCF Done:  E(UPBE1PBE) =  -100.766849568     A.U. after    9 cycles
 SCF Done:  E(UPBE1PBE) =  -100.766853422     A.U. after    7 cycles
 Optimization completed.
    -- Stationary point found.
 Normal termination of Gaussian 16 at Wed Oct  7 14:33:22 2020.
 Gaussian 16:  ES64L-G16RevA.03 25-Dec-2016

 ----------------------------------------------------------------------
 #P Freq PBE1PBE/6-31G* 5D 7F Integral=UltraFineGrid SCF=(NoSymm,XQC,Ma
 xCyc=120) EmpiricalDispersion=GD3BJ IOp(1/33=1) Geom=Check Guess=Read
 ----------------------------------------------------------------------

 TstMul:  Mul=     2
 TstMul:  ICh=     0
 TstMul:  Mul=     2
 Structure from the checkpoint file:  "MN_54_hfhts_BH76_PBE0DBJ_631Gs.chk"
 Charge =  0 Multiplicity = 2

                         Standard orientation:
 ---------------------------------------------------------------------
 Center     Atomic      Atomic             Coordinates (Angstroms)
 Number     Number       Type             X           Y           Z
 ---------------------------------------------------------------------
      1          1           0        0.000000    0.000000    1.182000
      2          9           0        0.000000    0.000000    0.000000
      3          1           0        0.000000    0.000000   -1.182000
 ---------------------------------------------------------------------

 SCF Done:  E(UPBE1PBE) =  -100.766853422     A.U. after    1 cycles

 The electronic state is 2-SGG.
 Alpha  occ. eigenvalues --  -24.78857  -1.20451  -0.59926  -0.42337  -0.42337
 Alpha  occ. eigenvalues --   -0.20005
 Alpha virt. eigenvalues --    0.02023   0.60840   0.76886   1.17432   1.17432
 Alpha virt. eigenvalues --    1.61197   1.69535   1.78397   1.78397   1.85911
 Alpha virt. eigenvalues --    1.85911   2.34696
  Beta  occ. eigenvalues --  -24.78710  -1.19908  -0.57399  -0.41947  -0.41947
  Beta virt. eigenvalues --   -0.02752   0.09730   0.69121   0.85791   1.18021
  Beta virt. eigenvalues --    1.18021   1.62116   1.71919   1.77999   1.77999
  Beta virt. eigenvalues --    1.86036   1.86036   2.37567

 Mulliken charges and spin densities:
               1          2
     1  H    0.197982   0.567217
     2  F   -0.395963  -0.134434
     3  H    0.197982   0.567217
 Sum of Mulliken charges =  -0.00000   1.00000

 Dipole moment (field-independent basis, Debye):
    X=              0.0000    Y=             -0.0000    Z=              0.0000  Tot=              0.0000
 Quadrupole moment (field-independent basis, Debye-Ang):
   XX=             -6.9950   YY=             -6.9950   ZZ=             -4.7467
   XY=              0.0000   XZ=             -0.0000   YZ=              0.0000

  Exact polarizability:   1.948   0.000   1.948  -0.000   0.000  37.838
 Approx polarizability:   2.203  -0.000   2.203  -0.000   0.000  49.022

 ******    1 imaginary frequencies (negative Signs) ******

                      1                      2                      3
                     SGU                    PIU                    PIU
 Frequencies --  -2516.7546               320.1262               320.1262
 Red. masses --      1.1085                 1.1085                 1.1085
 Frc consts  --      4.1369                 0.0669                 0.0669
 IR Inten    --   5488.3380                47.1764                47.1764

                      4
                     SGG
 Frequencies --   2134.3927
 Red. masses --      1.0078
 Frc consts  --      2.7051
 IR Inten    --      0.0000

 - Thermochemistry -
 -------------------
 Temperature   298.150 Kelvin.  Pressure   1.00000 Atm.
 Atom     1 has atomic number  1 and mass   1.00783

 Molecular mass:    21.01405 amu.
 Principal axes and moments of inertia in atomic units:
                           1         2         3
     Eigenvalues --     0.00000  10.05653  10.05653
           X           -0.00000   1.00000   0.00000
           Y            0.00000   0.00000   1.00000
           Z            1.00000   0.00000   0.00000
 This molecule is a prolate symmetric top.
 Rotational symmetry number  2.
 Rotational temperature (Kelvin)      8.61271
 Rotational constant (GHZ):         179.459708
    1 imaginary frequencies ignored.
 Zero-point vibrational energy      16596.1 (Joules/Mol)
                                    3.96655 (Kcal/Mol)
 Warning -- explicit consideration of   2 degrees of freedom as
           vibrations may cause significant error
 Vibrational temperatures:    460.59   460.59  3070.92
          (Kelvin)

 Zero-point correction=                           0.006321 (Hartree/Particle)
 Thermal correction to Energy=                    0.009473
 Thermal correction to Enthalpy=                  0.010417
 Thermal correction to Gibbs Free Energy=        -0.011780
 Sum of electronic and zero-point Energies=           -100.760532
 Sum of electronic and thermal Energies=              -100.757380
 Sum of electronic and thermal Enthalpies=            -100.756436
 Sum of electronic and thermal Free Energies=         -100.778634

                     E (Thermal)             CV                S
                      KCal/Mol        Cal/Mol-Kelvin    Cal/Mol-Kelvin
 Total                    5.944              8.245             46.718
 Electronic               0.000              0.000              1.377
 Translational            0.889              2.981             35.068
 Rotational               0.592              1.987              7.653
 Vibrational              4.463              3.277              2.620
 Vibration     1          0.706              1.635              1.309
 Vibration     2          0.706              1.635              1.309

 Optimization completed.
    -- Stationary point found.
 Normal termination of Gaussian 16 at Wed Oct  7 14:33:55 2020.
