 Gaussian 16, Revision A.03,

 ----------------------------------------------------------------------
 #P Opt(TS,MaxCyc=50,NoEigenTest,MaxStep=10,AddRedundant) PBE1PBE/6-31G
 * 5D 7F Integral=UltraFineGrid SCF=(NoSymm,XQC,MaxCyc=120) EmpiricalDi
 spersion=GD3BJ IOp(1/33=1)
 ----------------------------------------------------------------------

 TstMul:  Mul=     2
 TstMul:  ICh=     0
 TstMul:  Mul=     2
 Symbolic Z-matrix:
 Charge =  0 Multiplicity = 2

 SCF Done:  E(UPBE1PBE) =  -140.034059606     A.U. after   15 cycles
 SCF Done:  E(UPBE1PBE) =  -140.034288287     A.U. after   13 cycles
 SCF Done:  E(UPBE1PBE) =  -140.034299693     A.U. after   11 cycles
 SCF Done:  E(UPBE1PBE) =  -140.034313497     A.U. after   10 cycles
 SCF Done:  E(UPBE1PBE) =  -140.034322405     A.U. after   13 cycles
 SCF Done:  E(UPBE1PBE) =  -140.034302521     A.U. after   13 cycles
 SCF Done:  E(UPBE1PBE) =  -140.034305359     A.U. after   10 cycles
 Optimization completed.
    -- Stationary point found.
 Normal termination of Gaussian 16 at Wed Oct  7 14:33:30 2020.
 Gaussian 16:  ES64L-G16RevA.03 25-Dec-2016

 ----------------------------------------------------------------------
 #P Freq PBE1PBE/6-31G* 5D 7F Integral=UltraFineGrid SCF=(NoSymm,XQC,Ma
 xCyc=120) EmpiricalDispersion=GD3BJ IOp(1/33=1) Geom=Check Guess=Read
 ----------------------------------------------------------------------

 TstMul:  Mul=     2
 TstMul:  ICh=     0
 TstMul:  Mul=     2
 Structure from the checkpoint file:  "MN_53_hfch3ts_BH76_PBE0DBJ_631Gs.chk"
 Charge =  0 Multiplicity = 2

                         Standard orientation:
 ---------------------------------------------------------------------
 Center     Atomic      Atomic             Coordinates (Angstroms)
 Number     Number       Type             X           Y           Z
 ---------------------------------------------------------------------
      1          1           0       -0.000050    2.024333    0.000000
      2          9           0        0.000013    0.771797    0.000000
      3          6           0        0.000013   -0.913737    0.000000
      4          1           0        1.056261   -1.162456    0.000000
      5          1           0       -0.528200   -1.162811    0.914623
      6          1           0       -0.528200   -1.162811   -0.914623
 ---------------------------------------------------------------------

 SCF Done:  E(UPBE1PBE) =  -140.034305359     A.U. after    1 cycles

 The electronic state is 2-A'.
 Alpha  occ. eigenvalues --  -24.75324 -10.27158  -1.16170  -0.72720  -0.50761
 Alpha  occ. eigenvalues --   -0.45757  -0.45753  -0.36973  -0.36972  -0.18293
 Alpha virt. eigenvalues --    0.03465   0.12525   0.18059   0.18061   0.50925
 Alpha virt. eigenvalues --    0.56478   0.56483   0.71214   0.85412   0.90256
 Alpha virt. eigenvalues --    0.90263   1.02600   1.23679   1.23681   1.54701

  Beta  occ. eigenvalues --  -24.75289 -10.26199  -1.15934  -0.70463  -0.48932
  Beta  occ. eigenvalues --   -0.45120  -0.45115  -0.36727  -0.36726
  Beta virt. eigenvalues --   -0.02332   0.09916   0.13215   0.18593   0.18596
  Beta virt. eigenvalues --    0.55082   0.56955   0.56960   0.80173   0.86843
  Beta virt. eigenvalues --    0.90933   0.90940   1.04201   1.24343   1.24344

 Mulliken charges and spin densities:
               1          2
     1  H    0.117991   0.650056
     2  F   -0.350311  -0.131669
     3  C   -0.353420   0.553673
     4  H    0.195264  -0.024020
     5  H    0.195238  -0.024020
     6  H    0.195238  -0.024020
 Sum of Mulliken charges =  -0.00000   1.00000

 Dipole moment (field-independent basis, Debye):
    X=             -0.0000    Y=             -1.3459    Z=             -0.0000  Tot=              1.3459
 Quadrupole moment (field-independent basis, Debye-Ang):
   XX=            -12.7763   YY=            -11.9401   ZZ=            -12.7774
   XY=              0.0003   XZ=              0.0000   YZ=              0.0000

  Exact polarizability:  12.906   0.002  52.829   0.000  -0.000  12.905
 Approx polarizability:  14.987   0.002  66.309   0.000   0.000  14.985

 ******    1 imaginary frequencies (negative Signs) ******

                      1                      2                      3
                     A'                     A"                     A'
 Frequencies --  -1607.0301               300.5360               300.5393
 Red. masses --      1.7781                 1.1487                 1.1487
 Frc consts  --      2.7055                 0.0611                 0.0611
 IR Inten    --   2528.8672                10.0570                10.0546

                      4                      5                      6
                     A"                     A'                     A'
 Frequencies --    809.2513               809.4605               955.6344
 Red. masses --      1.1421                 1.1421                 1.6247
 Frc consts  --      0.4407                 0.4409                 0.8742
 IR Inten    --      0.4410                 0.4408               201.8590

                      7                      8                      9
                     A'                     A"                     A'
 Frequencies --   1200.7495              1473.5439              1473.7145
 Red. masses --      1.2818                 1.0853                 1.0853
 Frc consts  --      1.0888                 1.3884                 1.3887
 IR Inten    --     48.4209                 3.7255                 3.7228

                     10                     11                     12
                     A'                     A"                     A'
 Frequencies --   3146.8885              3299.7634              3300.0825
 Red. masses --      1.0170                 1.1151                 1.1151
 Frc consts  --      5.9336                 7.1535                 7.1551
 IR Inten    --      0.8874                 9.7388                 9.7152

 - Thermochemistry -
 -------------------
 Temperature   298.150 Kelvin.  Pressure   1.00000 Atm.
 Atom     1 has atomic number  1 and mass   1.00783

 Molecular mass:    35.02970 amu.
 Principal axes and moments of inertia in atomic units:
                           1         2         3
     Eigenvalues --    12.04498 111.05359 111.05577
           X            0.00002   1.00000   0.00000
           Y            1.00000  -0.00002   0.00000
           Z           -0.00000   0.00000   1.00000
 This molecule is an asymmetric top.
 Rotational symmetry number  1.
 Rotational temperatures (Kelvin)      7.19087     0.77993     0.77991
 Rotational constants (GHZ):         149.83349    16.25108    16.25077
    1 imaginary frequencies ignored.
 Zero-point vibrational energy     102102.3 (Joules/Mol)
                                   24.40302 (Kcal/Mol)
 Warning -- explicit consideration of   2 degrees of freedom as
           vibrations may cause significant error
 Vibrational temperatures:    432.40   432.41  1164.33  1164.63  1374.94
          (Kelvin)           1727.61  2120.10  2120.35  4527.67  4747.62
                             4748.08

 Zero-point correction=                           0.038889 (Hartree/Particle)
 Thermal correction to Energy=                    0.042783
 Thermal correction to Enthalpy=                  0.043727
 Thermal correction to Gibbs Free Energy=         0.014739
 Sum of electronic and zero-point Energies=           -139.995417
 Sum of electronic and thermal Energies=              -139.991522
 Sum of electronic and thermal Enthalpies=            -139.990578
 Sum of electronic and thermal Free Energies=         -140.019566

                     E (Thermal)             CV                S
                      KCal/Mol        Cal/Mol-Kelvin    Cal/Mol-Kelvin
 Total                   26.847             11.375             61.011
 Electronic               0.000              0.000              1.377
 Translational            0.889              2.981             36.591
 Rotational               0.889              2.981             19.635
 Vibrational             25.069              5.413              3.407
 Vibration     1          0.693              1.673              1.414
 Vibration     2          0.693              1.673              1.414

 Optimization completed.
    -- Stationary point found.
 Normal termination of Gaussian 16 at Wed Oct  7 14:33:52 2020.
