 Gaussian 16, Revision A.03,

 ----------------------------------------------------------------------
 #P Opt(TS,MaxCyc=50,NoEigenTest,MaxStep=10,AddRedundant) PBE1PBE/6-31G
 * 5D 7F Integral=UltraFineGrid SCF=(NoSymm,XQC,MaxCyc=120) EmpiricalDi
 spersion=GD3BJ IOp(1/33=1)
 ----------------------------------------------------------------------

 TstMul:  Mul=     2
 TstMul:  ICh=     0
 TstMul:  Mul=     2
 Symbolic Z-matrix:
 Charge =  0 Multiplicity = 2

 SCF Done:  E(UPBE1PBE) =  -113.679005242     A.U. after   16 cycles
 SCF Done:  E(UPBE1PBE) =  -113.679133914     A.U. after   11 cycles
 SCF Done:  E(UPBE1PBE) =  -113.679038111     A.U. after   11 cycles
 SCF Done:  E(UPBE1PBE) =  -113.678622434     A.U. after   14 cycles
 SCF Done:  E(UPBE1PBE) =  -113.678353449     A.U. after   14 cycles
 SCF Done:  E(UPBE1PBE) =  -113.678191381     A.U. after   14 cycles
 SCF Done:  E(UPBE1PBE) =  -113.678132247     A.U. after   13 cycles
 SCF Done:  E(UPBE1PBE) =  -113.678127720     A.U. after   10 cycles
 SCF Done:  E(UPBE1PBE) =  -113.678127712     A.U. after    9 cycles
 Optimization completed.
    -- Stationary point found.
 Normal termination of Gaussian 16 at Wed Oct  7 14:35:35 2020.
 Gaussian 16:  ES64L-G16RevA.03 25-Dec-2016

 ----------------------------------------------------------------------
 #P Freq PBE1PBE/6-31G* 5D 7F Integral=UltraFineGrid SCF=(NoSymm,XQC,Ma
 xCyc=120) EmpiricalDispersion=GD3BJ IOp(1/33=1) Geom=Check Guess=Read
 ----------------------------------------------------------------------

 TstMul:  Mul=     2
 TstMul:  ICh=     0
 TstMul:  Mul=     2
 Structure from the checkpoint file:  "MN_51_hcots_BH76_PBE0DBJ_631Gs.chk"
 Charge =  0 Multiplicity = 2

                         Standard orientation:
 ---------------------------------------------------------------------
 Center     Atomic      Atomic             Coordinates (Angstroms)
 Number     Number       Type             X           Y           Z
 ---------------------------------------------------------------------
      1          6           0        0.123930    0.546286    0.000000
      2          8           0        0.123930   -0.591593   -0.000000
      3          1           0       -1.735016    1.455026    0.000000
 ---------------------------------------------------------------------

 SCF Done:  E(UPBE1PBE) =  -113.678127712     A.U. after    1 cycles

 The electronic state is 2-A'.
 Alpha  occ. eigenvalues --  -19.32597 -10.35206  -1.18616  -0.58915  -0.48856
 Alpha  occ. eigenvalues --   -0.48108  -0.41452  -0.29663
 Alpha virt. eigenvalues --   -0.01489   0.00420   0.26933   0.52927   0.54853
 Alpha virt. eigenvalues --    0.66618   0.75130   0.78379   0.85795   0.94282
 Alpha virt. eigenvalues --    0.96260   1.48339   1.49013   1.52357   1.54790

  Beta  occ. eigenvalues --  -19.32442 -10.35048  -1.18349  -0.58568  -0.47971
  Beta  occ. eigenvalues --   -0.47855  -0.38822
  Beta virt. eigenvalues --   -0.07369  -0.01164   0.04564   0.27154   0.53130
  Beta virt. eigenvalues --    0.55928   0.67706   0.76811   0.85774   0.92618
  Beta virt. eigenvalues --    0.94374   0.98975   1.48546   1.49327   1.52659

 Mulliken charges and spin densities:
               1          2
     1  C    0.161530   0.039770
     2  O   -0.168248   0.046613
     3  H    0.006718   0.913617
 Sum of Mulliken charges =  -0.00000   1.00000

 Dipole moment (field-independent basis, Debye):
    X=             -0.0272    Y=              0.0078    Z=              0.0000  Tot=              0.0283
 Quadrupole moment (field-independent basis, Debye-Ang):
   XX=            -11.2643   YY=            -13.0778   ZZ=            -11.1477
   XY=             -0.0423   XZ=              0.0000   YZ=             -0.0000

  Exact polarizability:  15.631  -4.147  15.197   0.000  -0.000   7.960
 Approx polarizability:  18.345  -4.080  24.626   0.000  -0.000  10.525

 ******    1 imaginary frequencies (negative Signs) ******

                      1                      2                      3
                     A'                     A'                     A'
 Frequencies --   -494.3072               282.9930              2208.3507
 Red. masses --      1.0860                 1.5320                13.3013
 Frc consts  --      0.1563                 0.0723                38.2192
 IR Inten    --      2.7358                 0.9197               117.4087

 - Thermochemistry -
 -------------------
 Temperature   298.150 Kelvin.  Pressure   1.00000 Atm.
 Atom     1 has atomic number  6 and mass  12.00000

 Molecular mass:    29.00274 amu.
 Principal axes and moments of inertia in atomic units:
                           1         2         3
     Eigenvalues --     8.77413  43.37372  52.14784
           X           -0.30557   0.95217   0.00000
           Y            0.95217   0.30557   0.00000
           Z            0.00000   0.00000   1.00000
 This molecule is an asymmetric top.
 Rotational symmetry number  1.
 Rotational temperatures (Kelvin)      9.87152     1.99692     1.66093
 Rotational constants (GHZ):         205.68900    41.60910    34.60817
    1 imaginary frequencies ignored.
 Zero-point vibrational energy      14901.5 (Joules/Mol)
                                    3.56155 (Kcal/Mol)
 Warning -- explicit consideration of   1 degrees of freedom as
           vibrations may cause significant error
 Vibrational temperatures:    407.16  3177.32
          (Kelvin)

 Zero-point correction=                           0.005676 (Hartree/Particle)
 Thermal correction to Energy=                    0.008950
 Thermal correction to Enthalpy=                  0.009895
 Thermal correction to Gibbs Free Energy=        -0.016978
 Sum of electronic and zero-point Energies=           -113.672452
 Sum of electronic and thermal Energies=              -113.669177
 Sum of electronic and thermal Enthalpies=            -113.668233
 Sum of electronic and thermal Free Energies=         -113.695105

                     E (Thermal)             CV                S
                      KCal/Mol        Cal/Mol-Kelvin    Cal/Mol-Kelvin
 Total                    5.616              7.672             56.557
 Electronic               0.000              0.000              1.377
 Translational            0.889              2.981             36.028
 Rotational               0.889              2.981             17.635
 Vibrational              3.839              1.710              1.516
 Vibration     1          0.682              1.705              1.516

                           ! Non-Optimized Parameters !
 Normal termination of Gaussian 16 at Wed Oct  7 14:36:13 2020.
