 Gaussian 16, Revision A.03,

 ----------------------------------------------------------------------
 #P Opt(TS,MaxCyc=50,NoEigenTest,MaxStep=10,AddRedundant) PBE1PBE/6-31G
 * 5D 7F Integral=UltraFineGrid SCF=(NoSymm,XQC,MaxCyc=120) EmpiricalDi
 spersion=GD3BJ IOp(1/33=1)
 ----------------------------------------------------------------------

 TstMul:  Mul=     2
 TstMul:  ICh=     0
 TstMul:  Mul=     2
 Symbolic Z-matrix:
 Charge =  0 Multiplicity = 2

 SCF Done:  E(UPBE1PBE) =  -109.883677228     A.U. after   17 cycles
 SCF Done:  E(UPBE1PBE) =  -109.883657347     A.U. after   11 cycles
 SCF Done:  E(UPBE1PBE) =  -109.883593759     A.U. after   11 cycles
 SCF Done:  E(UPBE1PBE) =  -109.882982670     A.U. after   15 cycles
 SCF Done:  E(UPBE1PBE) =  -109.883039039     A.U. after   15 cycles
 SCF Done:  E(UPBE1PBE) =  -109.883063366     A.U. after   12 cycles
 SCF Done:  E(UPBE1PBE) =  -109.883065854     A.U. after   12 cycles
 Optimization completed.
    -- Stationary point found.
 Normal termination of Gaussian 16 at Wed Oct  7 14:33:47 2020.
 Gaussian 16:  ES64L-G16RevA.03 25-Dec-2016

 ----------------------------------------------------------------------
 #P Freq PBE1PBE/6-31G* 5D 7F Integral=UltraFineGrid SCF=(NoSymm,XQC,Ma
 xCyc=120) EmpiricalDispersion=GD3BJ IOp(1/33=1) Geom=Check Guess=Read
 ----------------------------------------------------------------------

 TstMul:  Mul=     2
 TstMul:  ICh=     0
 TstMul:  Mul=     2
 Structure from the checkpoint file:  "MN_59_hn2ts_BH76_PBE0DBJ_631Gs.chk"
 Charge =  0 Multiplicity = 2

                         Standard orientation:
 ---------------------------------------------------------------------
 Center     Atomic      Atomic             Coordinates (Angstroms)
 Number     Number       Type             X           Y           Z
 ---------------------------------------------------------------------
      1          7           0        0.088692   -0.645814    0.000000
      2          7           0        0.088692    0.475708    0.000000
      3          1           0       -1.241683    1.190741    0.000000
 ---------------------------------------------------------------------

 SCF Done:  E(UPBE1PBE) =  -109.883065854     A.U. after    1 cycles

 The electronic state is 2-A'.
 Alpha  occ. eigenvalues --  -14.50917 -14.49482  -1.14326  -0.61022  -0.50558
 Alpha  occ. eigenvalues --   -0.47127  -0.45197  -0.25567
 Alpha virt. eigenvalues --   -0.02355   0.00577   0.41890   0.60226   0.62848
 Alpha virt. eigenvalues --    0.63654   0.66529   0.76863   0.79098   0.81251
 Alpha virt. eigenvalues --    0.94985   1.30969   1.45515   1.47756   1.54030

  Beta  occ. eigenvalues --  -14.50880 -14.48698  -1.13584  -0.58592  -0.47511
  Beta  occ. eigenvalues --   -0.46701  -0.43432
  Beta virt. eigenvalues --   -0.07512  -0.01698   0.05658   0.42597   0.61245
  Beta virt. eigenvalues --    0.63089   0.66606   0.72260   0.77348   0.80729
  Beta virt. eigenvalues --    0.84847   0.97832   1.31983   1.46329   1.49080

 Mulliken charges and spin densities:
               1          2
     1  N    0.005860   0.332430
     2  N   -0.088502  -0.067299
     3  H    0.082642   0.734869
 Sum of Mulliken charges =   0.00000   1.00000

 Dipole moment (field-independent basis, Debye):
    X=             -0.3183    Y=              0.3017    Z=              0.0000  Tot=              0.4385
 Quadrupole moment (field-independent basis, Debye-Ang):
   XX=            -11.4131   YY=            -12.6830   ZZ=            -11.2731
   XY=             -0.2123   XZ=              0.0000   YZ=              0.0000

  Exact polarizability:  15.518  -7.245  19.744   0.000  -0.000   6.064
 Approx polarizability:  18.961  -9.200  34.717   0.000   0.000   8.127

 ******    1 imaginary frequencies (negative Signs) ******

                      1                      2                      3
                     A'                     A'                     A'
 Frequencies --  -1243.2467               696.2480              2265.6161
 Red. masses --      1.1009                 1.3600                 9.4613
 Frc consts  --      1.0026                 0.3884                28.6136
 IR Inten    --    351.3007                 3.5710                77.9842

 - Thermochemistry -
 -------------------
 Temperature   298.150 Kelvin.  Pressure   1.00000 Atm.
 Atom     1 has atomic number  7 and mass  14.00307

 Molecular mass:    29.01397 amu.
 Principal axes and moments of inertia in atomic units:
                           1         2         3
     Eigenvalues --     5.06350  38.18858  43.25208
           X           -0.18099   0.98348   0.00000
           Y            0.98348   0.18099   0.00000
           Z            0.00000   0.00000   1.00000
 This molecule is an asymmetric top.
 Rotational symmetry number  1.
 Rotational temperatures (Kelvin)     17.10554     2.26806     2.00254
 Rotational constants (GHZ):         356.42168    47.25866    41.72612
    1 imaginary frequencies ignored.
 Zero-point vibrational energy      17715.9 (Joules/Mol)
                                    4.23420 (Kcal/Mol)
 Vibrational temperatures:   1001.75  3259.72
          (Kelvin)

 Zero-point correction=                           0.006748 (Hartree/Particle)
 Thermal correction to Energy=                    0.009695
 Thermal correction to Enthalpy=                  0.010639
 Thermal correction to Gibbs Free Energy=        -0.015253
 Sum of electronic and zero-point Energies=           -109.876318
 Sum of electronic and thermal Energies=              -109.873371
 Sum of electronic and thermal Enthalpies=            -109.872427
 Sum of electronic and thermal Free Energies=         -109.898319

                     E (Thermal)             CV                S
                      KCal/Mol        Cal/Mol-Kelvin    Cal/Mol-Kelvin
 Total                    6.083              6.802             54.495
 Electronic               0.000              0.000              1.377
 Translational            0.889              2.981             36.030
 Rotational               0.889              2.981             16.777
 Vibrational              4.306              0.841              0.311

 Optimization completed.
    -- Stationary point found.
 Normal termination of Gaussian 16 at Wed Oct  7 14:34:04 2020.
