 Gaussian 16, Revision A.03,
 Gaussian 16:  ES64L-G16RevA.03 25-Dec-2016

 ----------------------------------------------------------------------
 #P Opt(MaxCyc=100) PBE1PBE/6-31G* 5D 7F Integral=UltraFineGrid SCF=(No
 Symm,XQC,MaxCyc=120) EmpiricalDispersion=GD3BJ IOp(1/33=1)
 ----------------------------------------------------------------------

 TstMul:  Mul=     1
 TstMul:  ICh=    -1
 TstMul:  Mul=     1
 Symbolic Z-matrix:
 Charge = -1 Multiplicity = 1

 SCF Done:  E(RPBE1PBE) =  -215.249777258     A.U. after   13 cycles
 SCF Done:  E(RPBE1PBE) =  -215.252629517     A.U. after   13 cycles
 SCF Done:  E(RPBE1PBE) =  -215.254537768     A.U. after   13 cycles
 SCF Done:  E(RPBE1PBE) =  -215.255750119     A.U. after   13 cycles
 SCF Done:  E(RPBE1PBE) =  -215.256341567     A.U. after   13 cycles
 SCF Done:  E(RPBE1PBE) =  -215.256645933     A.U. after   12 cycles
 SCF Done:  E(RPBE1PBE) =  -215.256707755     A.U. after   11 cycles
 SCF Done:  E(RPBE1PBE) =  -215.256779392     A.U. after   11 cycles
 SCF Done:  E(RPBE1PBE) =  -215.256825995     A.U. after   12 cycles
 SCF Done:  E(RPBE1PBE) =  -215.256829500     A.U. after    9 cycles
 SCF Done:  E(RPBE1PBE) =  -215.262859731     A.U. after    9 cycles
 SCF Done:  E(RPBE1PBE) =  -215.262862435     A.U. after    9 cycles
 SCF Done:  E(RPBE1PBE) =  -215.262864642     A.U. after    9 cycles
 SCF Done:  E(RPBE1PBE) =  -215.262866297     A.U. after    9 cycles
 SCF Done:  E(RPBE1PBE) =  -215.262867554     A.U. after    9 cycles
 SCF Done:  E(RPBE1PBE) =  -215.262868363     A.U. after    8 cycles
 SCF Done:  E(RPBE1PBE) =  -215.262868669     A.U. after    8 cycles
 SCF Done:  E(RPBE1PBE) =  -215.262868680     A.U. after    8 cycles
 SCF Done:  E(RPBE1PBE) =  -215.262868887     A.U. after    8 cycles
 SCF Done:  E(RPBE1PBE) =  -215.262869065     A.U. after    9 cycles
 Optimization completed.
    -- Stationary point found.

                         Standard orientation:
 ---------------------------------------------------------------------
 Center     Atomic      Atomic             Coordinates (Angstroms)
 Number     Number       Type             X           Y           Z
 ---------------------------------------------------------------------
      1          9           0        1.604856    0.458165   -0.024487
      2          6           0        0.590356   -0.524049    0.028032
      3          1           0       -0.507470   -0.110040   -0.075765
      4          1           0        0.803430   -1.251615   -0.775051
      5          1           0        0.712105   -1.059125    0.986965
      6          8           0       -2.104773    0.123303   -0.110830
      7          1           0       -2.155717    0.455166    0.802686
 ---------------------------------------------------------------------

 The electronic state is 1-A.
 Alpha  occ. eigenvalues --  -24.54755 -18.82435 -10.06059  -0.99836  -0.60216
 Alpha  occ. eigenvalues --   -0.49170  -0.28313  -0.27625  -0.25738  -0.14617
 Alpha  occ. eigenvalues --   -0.13755  -0.08378   0.06369   0.06561
 Alpha virt. eigenvalues --    0.31165   0.34010   0.36076   0.38474   0.53414
 Alpha virt. eigenvalues --    0.74837   0.77283   0.80286   1.06127   1.08207
 Alpha virt. eigenvalues --    1.12279   1.17286   1.22730   1.28552   1.37040

 Mulliken charges:
               1
     1  F   -0.411382
     2  C   -0.236601
     3  H    0.281169
     4  H    0.071838
     5  H    0.068091
     6  O   -1.021351
     7  H    0.248235
 Sum of Mulliken charges =  -1.00000

 Dipole moment (field-independent basis, Debye):
    X=              5.4586    Y=             -0.7641    Z=              1.3463  Tot=              5.6739
 Quadrupole moment (field-independent basis, Debye-Ang):
   XX=            -41.2591   YY=            -20.6985   ZZ=            -19.2425
   XY=             -0.5629   XZ=             -2.9516   YZ=              0.7407

 Normal termination of Gaussian 16 at Wed Oct  7 14:41:11 2020.
