 Gaussian 16, Revision A.03,
 Gaussian 16:  ES64L-G16RevA.03 25-Dec-2016

 ----------------------------------------------------------------------
 #P Opt(MaxCyc=100) PBE1PBE/6-31G* 5D 7F Integral=UltraFineGrid SCF=(No
 Symm,XQC,MaxCyc=120) EmpiricalDispersion=GD3BJ IOp(1/33=1)
 ----------------------------------------------------------------------

 TstMul:  Mul=     3
 TstMul:  ICh=     0
 TstMul:  Mul=     3
 Symbolic Z-matrix:
 Charge =  0 Multiplicity = 3

 SCF Done:  E(UPBE1PBE) =  -55.1536824361     A.U. after   11 cycles
 SCF Done:  E(UPBE1PBE) =  -55.1537146608     A.U. after    8 cycles
 Optimization completed.
    -- Stationary point found.

                         Standard orientation:
 ---------------------------------------------------------------------
 Center     Atomic      Atomic             Coordinates (Angstroms)
 Number     Number       Type             X           Y           Z
 ---------------------------------------------------------------------
      1          7           0        0.000000    0.000000    0.130395
      2          1           0        0.000000    0.000000   -0.912766
 ---------------------------------------------------------------------

 The electronic state is 3-SG.
 Alpha  occ. eigenvalues --  -14.46335  -0.86645  -0.41013  -0.34685  -0.34685
 Alpha virt. eigenvalues --    0.10598   0.65944   0.65944   0.73520   0.76490
 Alpha virt. eigenvalues --    0.98196   1.65690   1.65690   1.65873   1.65873
 Alpha virt. eigenvalues --    2.22949
  Beta  occ. eigenvalues --  -14.42203  -0.74025  -0.36144
  Beta virt. eigenvalues --   -0.07020  -0.07020   0.12574   0.76688   0.77443
  Beta virt. eigenvalues --    0.77443   0.79052   1.05251   1.74203   1.74203
  Beta virt. eigenvalues --    1.82215   1.82215   2.28855

 Mulliken charges and spin densities:
               1          2
     1  N   -0.309578   2.073063
     2  H    0.309578  -0.073063
 Sum of Mulliken charges =  -0.00000   2.00000

 Dipole moment (field-independent basis, Debye):
    X=              0.0000    Y=             -0.0000    Z=             -1.6327  Tot=              1.6327
 Quadrupole moment (field-independent basis, Debye-Ang):
   XX=             -6.1592   YY=             -6.1592   ZZ=             -5.7447
   XY=              0.0000   XZ=              0.0000   YZ=             -0.0000

 Normal termination of Gaussian 16 at Wed Oct  7 14:33:30 2020.
