 Gaussian 16, Revision A.03,

 ----------------------------------------------------------------------
 #P Opt(TS,MaxCyc=50,NoEigenTest,MaxStep=10,AddRedundant) PBE1PBE/6-31G
 * 5D 7F Integral=UltraFineGrid SCF=(NoSymm,XQC,MaxCyc=120) EmpiricalDi
 spersion=GD3BJ IOp(1/33=1)
 ----------------------------------------------------------------------

 TstMul:  Mul=     2
 TstMul:  ICh=     0
 TstMul:  Mul=     2
 Symbolic Z-matrix:
 Charge =  0 Multiplicity = 2

 SCF Done:  E(UPBE1PBE) =  -184.938518921     A.U. after   19 cycles
 SCF Done:  E(UPBE1PBE) =  -184.939290453     A.U. after   16 cycles
 SCF Done:  E(UPBE1PBE) =  -184.938766105     A.U. after   18 cycles
 SCF Done:  E(UPBE1PBE) =  -184.938892701     A.U. after   14 cycles
 SCF Done:  E(UPBE1PBE) =  -184.938896936     A.U. after   12 cycles
 SCF Done:  E(UPBE1PBE) =  -184.938897724     A.U. after   11 cycles
 Optimization completed.
    -- Stationary point found.
 Normal termination of Gaussian 16 at Wed Oct  7 14:34:16 2020.
 Gaussian 16:  ES64L-G16RevA.03 25-Dec-2016

 ----------------------------------------------------------------------
 #P Freq PBE1PBE/6-31G* 5D 7F Integral=UltraFineGrid SCF=(NoSymm,XQC,Ma
 xCyc=120) EmpiricalDispersion=GD3BJ IOp(1/33=1) Geom=Check Guess=Read
 ----------------------------------------------------------------------

 TstMul:  Mul=     2
 TstMul:  ICh=     0
 TstMul:  Mul=     2
 Structure from the checkpoint file:  "MN_68_n2ohts_BH76_PBE0DBJ_631Gs.chk"
 Charge =  0 Multiplicity = 2

                         Standard orientation:
 ---------------------------------------------------------------------
 Center     Atomic      Atomic             Coordinates (Angstroms)
 Number     Number       Type             X           Y           Z
 ---------------------------------------------------------------------
      1          1           0       -0.377412   -1.976053   -0.000000
      2          8           0       -0.865649   -0.608300    0.000000
      3          7           0       -0.000000    0.256543    0.000000
      4          7           0        1.043229    0.720951   -0.000000
 ---------------------------------------------------------------------

 SCF Done:  E(UPBE1PBE) =  -184.938897724     A.U. after    1 cycles

 The electronic state is 2-A'.
 Alpha  occ. eigenvalues --  -19.34590 -14.60635 -14.49749  -1.26227  -1.10042
 Alpha  occ. eigenvalues --   -0.66794  -0.57388  -0.56561  -0.49942  -0.39918
 Alpha  occ. eigenvalues --   -0.36264  -0.22992
 Alpha virt. eigenvalues --   -0.04137  -0.01720   0.17553   0.46020   0.59837
 Alpha virt. eigenvalues --    0.62201   0.62212   0.70388   0.72826   0.76484
 Alpha virt. eigenvalues --    0.76808   0.78331   0.94951   0.96181   1.13771

  Beta  occ. eigenvalues --  -19.34593 -14.60459 -14.49056  -1.25666  -1.09240
  Beta  occ. eigenvalues --   -0.65656  -0.56286  -0.56210  -0.48453  -0.37473
  Beta  occ. eigenvalues --   -0.35946
  Beta virt. eigenvalues --   -0.07595  -0.01096   0.02365   0.18220   0.46637
  Beta virt. eigenvalues --    0.62482   0.62639   0.63460   0.72948   0.76614
  Beta virt. eigenvalues --    0.76907   0.78904   0.80568   0.95061   0.96901

 Mulliken charges and spin densities:
               1          2
     1  H    0.062664   0.731974
     2  O   -0.413783  -0.121405
     3  N    0.448166   0.064503
     4  N   -0.097047   0.324928
 Sum of Mulliken charges =  -0.00000   1.00000

 Dipole moment (field-independent basis, Debye):
    X=             -0.1745    Y=             -0.1558    Z=             -0.0000  Tot=              0.2339
 Quadrupole moment (field-independent basis, Debye-Ang):
   XX=            -18.9475   YY=            -17.3384   ZZ=            -16.3885
   XY=             -1.4900   XZ=              0.0000   YZ=              0.0000

  Exact polarizability:  22.298  12.337  39.568  -0.000  -0.000   7.545
 Approx polarizability:  50.054  31.235  65.090  -0.000   0.000  10.054

 ******    1 imaginary frequencies (negative Signs) ******

                      1                      2                      3
                     A'                     A'                     A"
 Frequencies --  -1462.4146               486.4711               595.2196
 Red. masses --      1.4334                 1.3747                 4.4644
 Frc consts  --      1.8061                 0.1917                 0.9319
 IR Inten    --    911.8584                12.4393                 7.5506

                      4                      5                      6
                     A'                     A'                     A'
 Frequencies --    839.4583              1268.6796              2236.2891
 Red. masses --      2.4980                 6.0085                14.0233
 Frc consts  --      1.0371                 5.6980                41.3196
 IR Inten    --      0.7928                41.9097               295.8392

 - Thermochemistry -
 -------------------
 Temperature   298.150 Kelvin.  Pressure   1.00000 Atm.
 Atom     1 has atomic number  1 and mass   1.00783

 Molecular mass:    45.00889 amu.
 Principal axes and moments of inertia in atomic units:
                           1         2         3
     Eigenvalues --     8.65852 153.23204 161.89056
           X            0.78490  -0.61962   0.00000
           Y            0.61962   0.78490   0.00000
           Z           -0.00000   0.00000   1.00000
 This molecule is an asymmetric top.
 Rotational symmetry number  1.
 Rotational temperatures (Kelvin)     10.00332     0.56525     0.53502
 Rotational constants (GHZ):         208.43533    11.77783    11.14791
    1 imaginary frequencies ignored.
 Zero-point vibrational energy      32455.4 (Joules/Mol)
                                    7.75702 (Kcal/Mol)
 Warning -- explicit consideration of   2 degrees of freedom as
           vibrations may cause significant error
 Vibrational temperatures:    699.92   856.39  1207.79  1825.35  3217.52
          (Kelvin)

 Zero-point correction=                           0.012362 (Hartree/Particle)
 Thermal correction to Energy=                    0.015672
 Thermal correction to Enthalpy=                  0.016616
 Thermal correction to Gibbs Free Energy=        -0.011929
 Sum of electronic and zero-point Energies=           -184.926536
 Sum of electronic and thermal Energies=              -184.923226
 Sum of electronic and thermal Enthalpies=            -184.922282
 Sum of electronic and thermal Free Energies=         -184.950827

                     E (Thermal)             CV                S
                      KCal/Mol        Cal/Mol-Kelvin    Cal/Mol-Kelvin
 Total                    9.834              9.040             60.077
 Electronic               0.000              0.000              1.377
 Translational            0.889              2.981             37.338
 Rotational               0.889              2.981             20.002
 Vibrational              8.057              3.079              1.360
 Vibration     1          0.842              1.280              0.693
 Vibration     2          0.953              1.042              0.458

 Optimization completed.
    -- Stationary point found.
 Normal termination of Gaussian 16 at Wed Oct  7 14:34:41 2020.
