 Gaussian 16, Revision A.03,
 Gaussian 16:  ES64L-G16RevA.03 25-Dec-2016

 ----------------------------------------------------------------------
 #P Opt(MaxCyc=100) PBE1PBE/6-31G* 5D 7F Integral=UltraFineGrid SCF=(No
 Symm,XQC,MaxCyc=120) EmpiricalDispersion=GD3BJ IOp(1/33=1)
 ----------------------------------------------------------------------

 TstMul:  Mul=     1
 TstMul:  ICh=    -1
 TstMul:  Mul=     1
 Symbolic Z-matrix:
 Charge = -1 Multiplicity = 1

 SCF Done:  E(RPBE1PBE) =  -215.327955969     A.U. after   12 cycles
 SCF Done:  E(RPBE1PBE) =  -215.328489748     A.U. after   11 cycles
 SCF Done:  E(RPBE1PBE) =  -215.330171508     A.U. after   11 cycles
 SCF Done:  E(RPBE1PBE) =  -215.331303180     A.U. after   11 cycles
 SCF Done:  E(RPBE1PBE) =  -215.331637827     A.U. after   12 cycles
 SCF Done:  E(RPBE1PBE) =  -215.333605989     A.U. after   11 cycles
 SCF Done:  E(RPBE1PBE) =  -215.333823373     A.U. after   11 cycles
 SCF Done:  E(RPBE1PBE) =  -215.333885444     A.U. after   10 cycles
 SCF Done:  E(RPBE1PBE) =  -215.333893272     A.U. after    8 cycles
 SCF Done:  E(RPBE1PBE) =  -215.333895103     A.U. after    8 cycles
 Optimization completed.
    -- Stationary point found.

                         Standard orientation:
 ---------------------------------------------------------------------
 Center     Atomic      Atomic             Coordinates (Angstroms)
 Number     Number       Type             X           Y           Z
 ---------------------------------------------------------------------
      1          6           0       -1.244838   -0.376544   -0.000042
      2          8           0       -0.479121    0.739261    0.000055
      3          1           0       -2.340350   -0.146914   -0.010536
      4          1           0       -1.094452   -1.061654   -0.878451
      5          1           0       -1.109832   -1.051996    0.888551
      6          1           0        0.682317    0.302140    0.000446
      7          9           0        1.684923   -0.188489   -0.000022
 ---------------------------------------------------------------------

 The electronic state is 1-A.
 Alpha  occ. eigenvalues --  -24.39096 -18.91292 -10.04947  -0.83253  -0.74481
 Alpha  occ. eigenvalues --   -0.44853  -0.25667  -0.21722  -0.19576  -0.13730
 Alpha  occ. eigenvalues --   -0.06351  -0.06301  -0.01103  -0.00249
 Alpha virt. eigenvalues --    0.31363   0.37315   0.38383   0.42158   0.56248
 Alpha virt. eigenvalues --    0.80646   0.80750   0.83758   0.96599   1.05998
 Alpha virt. eigenvalues --    1.07091   1.13126   1.25222   1.25333   1.26460

 Mulliken charges:
               1
     1  C   -0.149400
     2  O   -0.754621
     3  H    0.039299
     4  H    0.043970
     5  H    0.043062
     6  H    0.496262
     7  F   -0.718571
 Sum of Mulliken charges =  -1.00000

 Dipole moment (field-independent basis, Debye):
    X=             -1.9645    Y=             -1.0205    Z=             -0.0024  Tot=              2.2137
 Quadrupole moment (field-independent basis, Debye-Ang):
   XX=            -30.1208   YY=            -22.7358   ZZ=            -20.6083
   XY=              1.9019   XZ=              0.0048   YZ=              0.0039

 Normal termination of Gaussian 16 at Wed Oct  7 14:34:32 2020.
