 Gaussian 16, Revision A.03,

 ----------------------------------------------------------------------
 #P Opt(TS,MaxCyc=50,NoEigenTest,MaxStep=10,AddRedundant) PBE1PBE/6-31G
 * 5D 7F Integral=UltraFineGrid SCF=(NoSymm,XQC,MaxCyc=120) EmpiricalDi
 spersion=GD3BJ IOp(1/33=1)
 ----------------------------------------------------------------------

 TstMul:  Mul=     1
 TstMul:  ICh=    -1
 TstMul:  Mul=     1
 Symbolic Z-matrix:
 Charge = -1 Multiplicity = 1

 SCF Done:  E(RPBE1PBE) =  -215.244831128     A.U. after   12 cycles
 SCF Done:  E(RPBE1PBE) =  -215.245653739     A.U. after   11 cycles
 SCF Done:  E(RPBE1PBE) =  -215.245741676     A.U. after   11 cycles
 SCF Done:  E(RPBE1PBE) =  -215.245764788     A.U. after   10 cycles
 SCF Done:  E(RPBE1PBE) =  -215.245787906     A.U. after   10 cycles
 SCF Done:  E(RPBE1PBE) =  -215.245741184     A.U. after   12 cycles
 SCF Done:  E(RPBE1PBE) =  -215.245758970     A.U. after    9 cycles
 SCF Done:  E(RPBE1PBE) =  -215.245768499     A.U. after    9 cycles
 SCF Done:  E(RPBE1PBE) =  -215.245760315     A.U. after   10 cycles
 SCF Done:  E(RPBE1PBE) =  -215.245761851     A.U. after    9 cycles
 SCF Done:  E(RPBE1PBE) =  -215.245761978     A.U. after    8 cycles
 Optimization completed.
    -- Stationary point found.
 Normal termination of Gaussian 16 at Wed Oct  7 14:34:55 2020.
 Gaussian 16:  ES64L-G16RevA.03 25-Dec-2016

 ----------------------------------------------------------------------
 #P Freq PBE1PBE/6-31G* 5D 7F Integral=UltraFineGrid SCF=(NoSymm,XQC,Ma
 xCyc=120) EmpiricalDispersion=GD3BJ IOp(1/33=1) Geom=Check Guess=Read
 ----------------------------------------------------------------------

 TstMul:  Mul=     1
 TstMul:  ICh=    -1
 TstMul:  Mul=     1
 Structure from the checkpoint file:  "MN_63_hoch3fts_BH76_PBE0DBJ_631Gs.chk"
 Charge = -1 Multiplicity = 1

                         Standard orientation:
 ---------------------------------------------------------------------
 Center     Atomic      Atomic             Coordinates (Angstroms)
 Number     Number       Type             X           Y           Z
 ---------------------------------------------------------------------
      1          9           0        1.818359   -0.019919   -0.000049
      2          6           0        0.078159    0.025578    0.000049
      3          1           0        0.036367    1.104094   -0.000533
      4          1           0        0.021479   -0.504662   -0.938745
      5          1           0        0.022093   -0.503498    0.939552
      6          8           0       -1.857787    0.097849   -0.000029
      7          1           0       -2.051827   -0.852925    0.000107
 ---------------------------------------------------------------------

 SCF Done:  E(RPBE1PBE) =  -215.245761978     A.U. after    1 cycles

 The electronic state is 1-A.
 Alpha  occ. eigenvalues --  -24.39385 -18.88643 -10.05348  -0.81595  -0.66860
 Alpha  occ. eigenvalues --   -0.46145  -0.22795  -0.22648  -0.15060  -0.11143
 Alpha  occ. eigenvalues --   -0.05321  -0.05073   0.01351   0.01413
 Alpha virt. eigenvalues --    0.31156   0.33063   0.38924   0.38967   0.39303
 Alpha virt. eigenvalues --    0.79773   0.80589   0.90780   1.05455   1.11086
 Alpha virt. eigenvalues --    1.13432   1.15655   1.22230   1.24854   1.37317

 Mulliken charges:
               1
     1  F   -0.620746
     2  C   -0.158642
     3  H    0.148734
     4  H    0.134487
     5  H    0.134494
     6  O   -0.923469
     7  H    0.285141
 Sum of Mulliken charges =  -1.00000

 Dipole moment (field-independent basis, Debye):
    X=              0.4439    Y=             -1.2684    Z=              0.0004  Tot=              1.3438
 Quadrupole moment (field-independent basis, Debye-Ang):
   XX=            -39.8720   YY=            -18.1436   ZZ=            -19.6364
   XY=              3.1146   XZ=              0.0003   YZ=             -0.0001

  Exact polarizability:  37.594   2.166  19.805   0.001  -0.000  15.786
 Approx polarizability:  53.271   0.815  24.896   0.003  -0.001  18.700

 ******    1 imaginary frequencies (negative Signs) ******

                      1                      2                      3
                      A                      A                      A
 Frequencies --   -499.8227               214.3704               319.1269
 Red. masses --     10.2518                 1.0530                 3.1687
 Frc consts  --      1.5090                 0.0285                 0.1901
 IR Inten    --    877.8811                51.1497                17.5399

                      4                      5                      6
                      A                      A                      A
 Frequencies --    344.8182               372.1495               802.3974
 Red. masses --      4.4037                12.9031                 1.1495
 Frc consts  --      0.3085                 1.0529                 0.4360
 IR Inten    --     24.9344                 6.0384                38.4212

                      7                      8                      9
                      A                      A                      A
 Frequencies --   1065.8358              1104.0746              1179.8301
 Red. masses --      1.0219                 1.0451                 1.0664
 Frc consts  --      0.6840                 0.7506                 0.8746
 IR Inten    --      0.2236                 1.1899                 2.9406

                     10                     11                     12
                      A                      A                      A
 Frequencies --   1372.5751              1375.5101              3139.6061
 Red. masses --      1.1281                 1.1182                 1.0086
 Frc consts  --      1.2521                 1.2465                 5.8576
 IR Inten    --      1.3523                 2.1107                 0.3459

                     13                     14                     15
                      A                      A                      A
 Frequencies --   3326.1493              3334.1708              3703.5757
 Red. masses --      1.1288                 1.1264                 1.0675
 Frc consts  --      7.3577                 7.3780                 8.6268
 IR Inten    --     53.7302                44.2130                60.3869

 - Thermochemistry -
 -------------------
 Temperature   298.150 Kelvin.  Pressure   1.00000 Atm.
 Atom     1 has atomic number  9 and mass  18.99840

 Molecular mass:    51.02462 amu.
 Principal axes and moments of inertia in atomic units:
                           1         2         3
     Eigenvalues --    15.64597 442.33307 445.28174
           X            0.99988   0.01543   0.00000
           Y           -0.01543   0.99988   0.00001
           Z           -0.00000  -0.00001   1.00000
 This molecule is an asymmetric top.
 Rotational symmetry number  1.
 Rotational temperatures (Kelvin)      5.53586     0.19581     0.19451
 Rotational constants (GHZ):         115.34864     4.08005     4.05303
    1 imaginary frequencies ignored.
 Zero-point vibrational energy     129520.8 (Joules/Mol)
                                   30.95622 (Kcal/Mol)
 Warning -- explicit consideration of   4 degrees of freedom as
           vibrations may cause significant error
 Vibrational temperatures:    308.43   459.15   496.12   535.44  1154.47
          (Kelvin)           1533.50  1588.52  1697.51  1974.83  1979.05
                             4517.19  4785.59  4797.13  5328.62

 Zero-point correction=                           0.049332 (Hartree/Particle)
 Thermal correction to Energy=                    0.053970
 Thermal correction to Enthalpy=                  0.054914
 Thermal correction to Gibbs Free Energy=         0.023382
 Sum of electronic and zero-point Energies=           -215.196430
 Sum of electronic and thermal Energies=              -215.191792
 Sum of electronic and thermal Enthalpies=            -215.190848
 Sum of electronic and thermal Free Energies=         -215.222380

                     E (Thermal)             CV                S
                      KCal/Mol        Cal/Mol-Kelvin    Cal/Mol-Kelvin
 Total                   33.867             14.216             66.365
 Electronic               0.000              0.000              0.000
 Translational            0.889              2.981             37.712
 Rotational               0.889              2.981             22.648
 Vibrational             32.089              8.255              6.005
 Vibration     1          0.644              1.819              2.006
 Vibration     2          0.705              1.637              1.315
 Vibration     3          0.723              1.586              1.190
 Vibration     4          0.744              1.529              1.071

 Optimization completed.
    -- Stationary point found.
 Normal termination of Gaussian 16 at Wed Oct  7 14:35:23 2020.
