 Gaussian 16, Revision A.03,
 Gaussian 16:  ES64L-G16RevA.03 25-Dec-2016

 ----------------------------------------------------------------------
 #P Opt(MaxCyc=100) PBE1PBE/6-31G* 5D 7F Integral=UltraFineGrid SCF=(No
 Symm,XQC,MaxCyc=120) EmpiricalDispersion=GD3BJ IOp(1/33=1)
 ----------------------------------------------------------------------

 TstMul:  Mul=     2
 TstMul:  ICh=     0
 TstMul:  Mul=     2
 Symbolic Z-matrix:
 Charge =  0 Multiplicity = 2

 SCF Done:  E(UPBE1PBE) =  -398.576447115     A.U. after   11 cycles
 SCF Done:  E(UPBE1PBE) =  -398.576494654     A.U. after    8 cycles
 SCF Done:  E(UPBE1PBE) =  -398.576494857     A.U. after    7 cycles
 Optimization completed.
    -- Stationary point found.

                         Standard orientation:
 ---------------------------------------------------------------------
 Center     Atomic      Atomic             Coordinates (Angstroms)
 Number     Number       Type             X           Y           Z
 ---------------------------------------------------------------------
      1         16           0        0.000000    0.000000    0.079411
      2          1           0        0.000000    0.000000   -1.270580
 ---------------------------------------------------------------------

 Unable to determine electronic state:  partially filled degenerate orbitals.
 Alpha  occ. eigenvalues --  -89.04765  -8.03245  -5.97652  -5.96580  -5.95650
 Alpha  occ. eigenvalues --   -0.76086  -0.42653  -0.33697  -0.28484
 Alpha virt. eigenvalues --    0.04000   0.28548   0.34315   0.34497   0.37495
 Alpha virt. eigenvalues --    0.70960   0.71647   0.74640   0.75438   0.76095
 Alpha virt. eigenvalues --    1.11670
  Beta  occ. eigenvalues --  -89.04198  -8.02656  -5.96237  -5.95673  -5.95318
  Beta  occ. eigenvalues --   -0.71531  -0.41130  -0.26873
  Beta virt. eigenvalues --   -0.16363   0.05271   0.30439   0.35238   0.38267
  Beta virt. eigenvalues --    0.39429   0.72812   0.76876   0.77881   0.80569
  Beta virt. eigenvalues --    0.81413   1.12864

 Mulliken charges and spin densities:
               1          2
     1  S   -0.117301   1.033177
     2  H    0.117301  -0.033177
 Sum of Mulliken charges =  -0.00000   1.00000

 Dipole moment (field-independent basis, Debye):
    X=              0.0000    Y=             -0.0000    Z=             -1.1126  Tot=              1.1126
 Quadrupole moment (field-independent basis, Debye-Ang):
   XX=            -15.6954   YY=            -12.8185   ZZ=            -11.9781
   XY=              0.0000   XZ=              0.0000   YZ=             -0.0000

 Normal termination of Gaussian 16 at Wed Oct  7 14:33:14 2020.
