 Gaussian 16, Revision A.03,
 Gaussian 16:  ES64L-G16RevA.03 25-Dec-2016

 ----------------------------------------------------------------------
 #P Opt(MaxCyc=100) PBE1PBE/6-31G* 5D 7F Integral=UltraFineGrid SCF=(No
 Symm,XQC,MaxCyc=120) EmpiricalDispersion=GD3BJ IOp(1/33=1)
 ----------------------------------------------------------------------

 TstMul:  Mul=     1
 TstMul:  ICh=    -1
 TstMul:  Mul=     1
 Symbolic Z-matrix:
 Charge = -1 Multiplicity = 1

 SCF Done:  E(RPBE1PBE) =  -75.6337542576     A.U. after   10 cycles
 SCF Done:  E(RPBE1PBE) =  -75.6340500395     A.U. after    7 cycles
 SCF Done:  E(RPBE1PBE) =  -75.6340562233     A.U. after    7 cycles
 Optimization completed.
    -- Stationary point found.

                         Standard orientation:
 ---------------------------------------------------------------------
 Center     Atomic      Atomic             Coordinates (Angstroms)
 Number     Number       Type             X           Y           Z
 ---------------------------------------------------------------------
      1          8           0        0.000000    0.000000    0.109026
      2          1           0        0.000000    0.000000   -0.872211
 ---------------------------------------------------------------------

 The electronic state is 1-SG.
 Alpha  occ. eigenvalues --  -18.73423  -0.50723  -0.00446   0.14968   0.14968
 Alpha virt. eigenvalues --    0.43185   1.22198   1.32917   1.32917   1.36738
 Alpha virt. eigenvalues --    1.69900   2.21508   2.21508   2.27751   2.27751
 Alpha virt. eigenvalues --    2.88179

 Mulliken charges:
               1
     1  O   -1.184360
     2  H    0.184360
 Sum of Mulliken charges =  -1.00000

 Dipole moment (field-independent basis, Debye):
    X=              0.0000    Y=             -0.0000    Z=             -1.2850  Tot=              1.2850
 Quadrupole moment (field-independent basis, Debye-Ang):
   XX=             -7.9715   YY=             -7.9715   ZZ=             -6.7136
   XY=             -0.0000   XZ=              0.0000   YZ=              0.0000

 Normal termination of Gaussian 16 at Wed Oct  7 14:33:45 2020.
