 Gaussian 16, Revision A.03,

 ----------------------------------------------------------------------
 #P Opt(TS,MaxCyc=50,NoEigenTest,MaxStep=10,AddRedundant) PBE1PBE/6-31G
 * 5D 7F Integral=UltraFineGrid SCF=(NoSymm,XQC,MaxCyc=120) EmpiricalDi
 spersion=GD3BJ IOp(1/33=1)
 ----------------------------------------------------------------------

 TstMul:  Mul=     2
 TstMul:  ICh=     0
 TstMul:  Mul=     2
 Symbolic Z-matrix:
 Charge =  0 Multiplicity = 2

 SCF Done:  E(UPBE1PBE) =  -76.8010095073     A.U. after   16 cycles
 SCF Done:  E(UPBE1PBE) =  -76.8010682892     A.U. after   17 cycles
 SCF Done:  E(UPBE1PBE) =  -76.8011413061     A.U. after   16 cycles
 SCF Done:  E(UPBE1PBE) =  -76.8011483905     A.U. after   12 cycles
 SCF Done:  E(UPBE1PBE) =  -76.8011576848     A.U. after   11 cycles
 SCF Done:  E(UPBE1PBE) =  -76.8011550525     A.U. after   12 cycles
 SCF Done:  E(UPBE1PBE) =  -76.8011567491     A.U. after   17 cycles
 SCF Done:  E(UPBE1PBE) =  -76.8011630126     A.U. after   16 cycles
 SCF Done:  E(UPBE1PBE) =  -76.8011631065     A.U. after   10 cycles
 Optimization completed.
    -- Stationary point found.
 Normal termination of Gaussian 16 at Wed Oct  7 14:35:11 2020.
 Gaussian 16:  ES64L-G16RevA.03 25-Dec-2016

 ----------------------------------------------------------------------
 #P Freq PBE1PBE/6-31G* 5D 7F Integral=UltraFineGrid SCF=(NoSymm,XQC,Ma
 xCyc=120) EmpiricalDispersion=GD3BJ IOp(1/33=1) Geom=Check Guess=Read
 ----------------------------------------------------------------------

 TstMul:  Mul=     2
 TstMul:  ICh=     0
 TstMul:  Mul=     2
 Structure from the checkpoint file:  "MN_79_RKT02_BH76_PBE0DBJ_631Gs.chk"
 Charge =  0 Multiplicity = 2

                         Standard orientation:
 ---------------------------------------------------------------------
 Center     Atomic      Atomic             Coordinates (Angstroms)
 Number     Number       Type             X           Y           Z
 ---------------------------------------------------------------------
      1          8           0       -0.299446   -0.110756   -0.000011
      2          1           0       -0.472713    0.850288    0.000021
      3          1           0        1.029871   -0.087660    0.000164
      4          1           0        1.838406    0.123421   -0.000100
 ---------------------------------------------------------------------

 SCF Done:  E(UPBE1PBE) =  -76.8011631065     A.U. after    1 cycles

 The electronic state is 2-A.
 Alpha  occ. eigenvalues --  -19.26047  -1.03251  -0.54140  -0.46044  -0.33375
 Alpha  occ. eigenvalues --   -0.33293
 Alpha virt. eigenvalues --    0.09759   0.19666   0.66242   0.80863   0.85176
 Alpha virt. eigenvalues --    0.89315   1.02659   1.08821   1.43488   1.71057
 Alpha virt. eigenvalues --    1.75049   1.76252   2.01837   2.43602
  Beta  occ. eigenvalues --  -19.24039  -0.97736  -0.49644  -0.41637  -0.31285
  Beta virt. eigenvalues --   -0.13605   0.10621   0.23161   0.68555   0.81732
  Beta virt. eigenvalues --    0.90490   0.90892   1.04734   1.12534   1.46779
  Beta virt. eigenvalues --    1.75925   1.75993   1.80868   2.06218   2.45627

 Mulliken charges and spin densities:
               1          2
     1  O   -0.559624   0.736646
     2  H    0.418673  -0.021233
     3  H    0.130973  -0.119908
     4  H    0.009978   0.404495
 Sum of Mulliken charges =  -0.00000   1.00000

 Dipole moment (field-independent basis, Debye):
    X=              0.3526    Y=              1.6977    Z=              0.0001  Tot=              1.7340
 Quadrupole moment (field-independent basis, Debye-Ang):
   XX=             -6.7668   YY=             -6.5451   ZZ=             -8.5125
   XY=             -0.8099   XZ=             -0.0001   YZ=              0.0000

  Exact polarizability:  22.050   0.754   6.737  -0.002  -0.001   2.595
 Approx polarizability:  25.929   1.989   8.238  -0.002  -0.001   2.689

 ******    1 imaginary frequencies (negative Signs) ******

                      1                      2                      3
                      A                      A                      A
 Frequencies --  -1013.9042               511.3331               660.5570
 Red. masses --      1.1064                 1.0191                 1.0156
 Frc consts  --      0.6701                 0.1570                 0.2611
 IR Inten    --    148.9621                18.6438                24.5378

                      4                      5                      6
                      A                      A                      A
 Frequencies --   1130.8522              2463.4930              3726.0210
 Red. masses --      1.0661                 1.0226                 1.0667
 Frc consts  --      0.8033                 3.6563                 8.7250
 IR Inten    --    142.2194               131.5153                15.2095

 - Thermochemistry -
 -------------------
 Temperature   298.150 Kelvin.  Pressure   1.00000 Atm.
 Atom     1 has atomic number  8 and mass  15.99491

 Molecular mass:    19.01839 amu.
 Principal axes and moments of inertia in atomic units:
                           1         2         3
     Eigenvalues --     3.22325  20.86450  24.08775
           X            0.99952  -0.03106  -0.00000
           Y            0.03106   0.99952  -0.00001
           Z            0.00000   0.00001   1.00000
 This molecule is an asymmetric top.
 Rotational symmetry number  1.
 Rotational temperatures (Kelvin)     26.87159     4.15126     3.59577
 Rotational constants (GHZ):         559.91306    86.49818    74.92361
    1 imaginary frequencies ignored.
 Zero-point vibrational energy      50795.0 (Joules/Mol)
                                   12.14029 (Kcal/Mol)
 Warning -- explicit consideration of   1 degrees of freedom as
           vibrations may cause significant error
 Vibrational temperatures:    735.69   950.39  1627.04  3544.42  5360.91
          (Kelvin)

 Zero-point correction=                           0.019347 (Hartree/Particle)
 Thermal correction to Energy=                    0.022547
 Thermal correction to Enthalpy=                  0.023491
 Thermal correction to Gibbs Free Energy=        -0.001375
 Sum of electronic and zero-point Energies=            -76.781816
 Sum of electronic and thermal Energies=               -76.778616
 Sum of electronic and thermal Enthalpies=             -76.777672
 Sum of electronic and thermal Free Energies=          -76.802538

                     E (Thermal)             CV                S
                      KCal/Mol        Cal/Mol-Kelvin    Cal/Mol-Kelvin
 Total                   14.148              8.350             52.336
 Electronic               0.000              0.000              1.377
 Translational            0.889              2.981             34.771
 Rotational               0.889              2.981             15.146
 Vibrational             12.371              2.388              1.042
 Vibration     1          0.866              1.225              0.630

 Optimization completed.
    -- Stationary point found.
 Normal termination of Gaussian 16 at Wed Oct  7 14:35:31 2020.
