 Gaussian 16, Revision A.03,
 Gaussian 16:  ES64L-G16RevA.03 25-Dec-2016

 ----------------------------------------------------------------------
 #P Opt(MaxCyc=100) PBE1PBE/6-31G* 5D 7F Integral=UltraFineGrid SCF=(No
 Symm,XQC,MaxCyc=120) EmpiricalDispersion=GD3BJ IOp(1/33=1)
 ----------------------------------------------------------------------

 TstMul:  Mul=     2
 TstMul:  ICh=     0
 TstMul:  Mul=     2
 Symbolic Z-matrix:
 Charge =  0 Multiplicity = 2

 SCF Done:  E(UPBE1PBE) =  -55.8031484542     A.U. after   11 cycles
 SCF Done:  E(UPBE1PBE) =  -55.8032129915     A.U. after    8 cycles
 SCF Done:  E(UPBE1PBE) =  -55.8032145742     A.U. after    7 cycles
 Optimization completed.
    -- Stationary point found.

                         Standard orientation:
 ---------------------------------------------------------------------
 Center     Atomic      Atomic             Coordinates (Angstroms)
 Number     Number       Type             X           Y           Z
 ---------------------------------------------------------------------
      1          7           0        0.000000    0.000000    0.143327
      2          1           0       -0.000000    0.803837   -0.501645
      3          1           0       -0.000000   -0.803837   -0.501645
 ---------------------------------------------------------------------

 The electronic state is 2-B1.
 Alpha  occ. eigenvalues --  -14.41476  -0.87658  -0.48076  -0.33184  -0.32565
 Alpha virt. eigenvalues --    0.09471   0.16664   0.67386   0.69788   0.74207
 Alpha virt. eigenvalues --    0.85163   0.91304   1.10347   1.65761   1.68133
 Alpha virt. eigenvalues --    1.68560   2.09701   2.39391
  Beta  occ. eigenvalues --  -14.39401  -0.81659  -0.46592  -0.30530
  Beta virt. eigenvalues --   -0.07644   0.10633   0.17327   0.70244   0.75831
  Beta virt. eigenvalues --    0.77499   0.87775   0.92455   1.14659   1.70479
  Beta virt. eigenvalues --    1.73550   1.76142   2.17599   2.40503

 Mulliken charges and spin densities:
               1          2
     1  N   -0.627145   1.079580
     2  H    0.313572  -0.039790
     3  H    0.313572  -0.039790
 Sum of Mulliken charges =  -0.00000   1.00000

 Dipole moment (field-independent basis, Debye):
    X=             -0.0000    Y=              0.0000    Z=             -2.0519  Tot=              2.0519
 Quadrupole moment (field-independent basis, Debye-Ang):
   XX=             -6.9518   YY=             -5.4659   ZZ=             -7.3220
   XY=              0.0000   XZ=              0.0000   YZ=             -0.0000

 Normal termination of Gaussian 16 at Wed Oct  7 14:33:38 2020.
