 Gaussian 16, Revision A.03,
 Gaussian 16:  ES64L-G16RevA.03 25-Dec-2016

 ----------------------------------------------------------------------
 #P Opt(MaxCyc=100) PBE1PBE/6-31G* 5D 7F Integral=UltraFineGrid SCF=(No
 Symm,XQC,MaxCyc=120) EmpiricalDispersion=GD3BJ IOp(1/33=1)
 ----------------------------------------------------------------------

 TstMul:  Mul=     1
 TstMul:  ICh=     0
 TstMul:  Mul=     1
 Symbolic Z-matrix:
 Charge =  0 Multiplicity = 1

 SCF Done:  E(RPBE1PBE) =  -56.4766660309     A.U. after    9 cycles
 SCF Done:  E(RPBE1PBE) =  -56.4767586401     A.U. after    7 cycles
 SCF Done:  E(RPBE1PBE) =  -56.4767712779     A.U. after    7 cycles
 Optimization completed.
    -- Stationary point found.

                         Standard orientation:
 ---------------------------------------------------------------------
 Center     Atomic      Atomic             Coordinates (Angstroms)
 Number     Number       Type             X           Y           Z
 ---------------------------------------------------------------------
      1          7           0        0.000000    0.000000    0.117843
      2          1           0        0.000000    0.937696   -0.274967
      3          1           0        0.812068   -0.468848   -0.274967
      4          1           0       -0.812068   -0.468848   -0.274967
 ---------------------------------------------------------------------

 The electronic state is 1-A1.
 Alpha  occ. eigenvalues --  -14.35712  -0.86820  -0.46491  -0.46491  -0.26360
 Alpha virt. eigenvalues --    0.09758   0.18489   0.18489   0.70185   0.70185
 Alpha virt. eigenvalues --    0.74867   0.94540   0.94540   0.95483   1.25527
 Alpha virt. eigenvalues --    1.68094   1.68094   1.96123   2.42327   2.42327

 Mulliken charges:
               1
     1  N   -0.958744
     2  H    0.319581
     3  H    0.319581
     4  H    0.319581
 Sum of Mulliken charges =  -0.00000

 Dipole moment (field-independent basis, Debye):
    X=             -0.0000    Y=              0.0000    Z=             -1.9325  Tot=              1.9325
 Quadrupole moment (field-independent basis, Debye-Ang):
   XX=             -6.0953   YY=             -6.0953   ZZ=             -8.8088
   XY=             -0.0000   XZ=             -0.0000   YZ=             -0.0000

 Normal termination of Gaussian 16 at Wed Oct  7 14:33:39 2020.
