 Gaussian 16, Revision A.03,

 ----------------------------------------------------------------------
 #P Opt(TS,MaxCyc=50,NoEigenTest,MaxStep=10,AddRedundant) PBE1PBE/6-31G
 * 5D 7F Integral=UltraFineGrid SCF=(NoSymm,XQC,MaxCyc=120) EmpiricalDi
 spersion=GD3BJ IOp(1/33=1)
 ----------------------------------------------------------------------

 TstMul:  Mul=     2
 TstMul:  ICh=     0
 TstMul:  Mul=     2
 Symbolic Z-matrix:
 Charge =  0 Multiplicity = 2

 SCF Done:  E(UPBE1PBE) =  -500.413151350     A.U. after   14 cycles
 SCF Done:  E(UPBE1PBE) =  -500.413779299     A.U. after   13 cycles
 SCF Done:  E(UPBE1PBE) =  -500.413183346     A.U. after   13 cycles
 SCF Done:  E(UPBE1PBE) =  -500.412613495     A.U. after   13 cycles
 SCF Done:  E(UPBE1PBE) =  -500.412198094     A.U. after   13 cycles
 SCF Done:  E(UPBE1PBE) =  -500.411891276     A.U. after   13 cycles
 SCF Done:  E(UPBE1PBE) =  -500.411547118     A.U. after   12 cycles
 SCF Done:  E(UPBE1PBE) =  -500.411332003     A.U. after   12 cycles
 SCF Done:  E(UPBE1PBE) =  -500.411262714     A.U. after   12 cycles
 SCF Done:  E(UPBE1PBE) =  -500.411297862     A.U. after   11 cycles
 SCF Done:  E(UPBE1PBE) =  -500.411324142     A.U. after   12 cycles
 SCF Done:  E(UPBE1PBE) =  -500.411387891     A.U. after   12 cycles
 SCF Done:  E(UPBE1PBE) =  -500.411454336     A.U. after   11 cycles
 SCF Done:  E(UPBE1PBE) =  -500.411471855     A.U. after   11 cycles
 SCF Done:  E(UPBE1PBE) =  -500.411472482     A.U. after    8 cycles
 Optimization completed.
    -- Stationary point found.
 Normal termination of Gaussian 16 at Wed Oct  7 14:37:02 2020.
 Gaussian 16:  ES64L-G16RevA.03 25-Dec-2016

 ----------------------------------------------------------------------
 #P Freq PBE1PBE/6-31G* 5D 7F Integral=UltraFineGrid SCF=(NoSymm,XQC,Ma
 xCyc=120) EmpiricalDispersion=GD3BJ IOp(1/33=1) Geom=Check Guess=Read
 ----------------------------------------------------------------------

 TstMul:  Mul=     2
 TstMul:  ICh=     0
 TstMul:  Mul=     2
 Structure from the checkpoint file:  "MN_84_RKT08_BH76_PBE0DBJ_631Gs.chk"
 Charge =  0 Multiplicity = 2

                         Standard orientation:
 ---------------------------------------------------------------------
 Center     Atomic      Atomic             Coordinates (Angstroms)
 Number     Number       Type             X           Y           Z
 ---------------------------------------------------------------------
      1          6           0        1.947694   -0.000006   -0.000011
      2          1           0        2.096679   -0.790826    0.728621
      3          1           0        2.096018    1.026781    0.319690
      4          1           0        2.090913   -0.236172   -1.049918
      5          1           0        0.289504    0.000084   -0.000405
      6         17           0       -1.074075    0.000010    0.000122
 ---------------------------------------------------------------------

 SCF Done:  E(UPBE1PBE) =  -500.411472482     A.U. after    1 cycles

 The electronic state is 2-A.
 Alpha  occ. eigenvalues -- -101.67777 -10.27822  -9.51003  -7.24685  -7.23521
 Alpha  occ. eigenvalues --   -7.23521  -0.84329  -0.75013  -0.47792  -0.46699
 Alpha  occ. eigenvalues --   -0.46698  -0.32068  -0.32068  -0.28526
 Alpha virt. eigenvalues --    0.09723   0.11607   0.16114   0.16115   0.40787
 Alpha virt. eigenvalues --    0.44732   0.44744   0.44814   0.54675   0.55281
 Alpha virt. eigenvalues --    0.55295   0.82875   0.86972   0.86978   0.89688

  Beta  occ. eigenvalues -- -101.67599 -10.26440  -9.50828  -7.24104  -7.23417
  Beta  occ. eigenvalues --   -7.23417  -0.83038  -0.71018  -0.45716  -0.45714
  Beta  occ. eigenvalues --   -0.45305  -0.31698  -0.31698
  Beta virt. eigenvalues --   -0.12157   0.11325   0.14437   0.16805   0.16807
  Beta virt. eigenvalues --    0.41703   0.45123   0.45134   0.46657   0.55992
  Beta virt. eigenvalues --    0.56005   0.60330   0.84997   0.88316   0.88325

 Mulliken charges and spin densities:
               1          2
     1  C   -0.598252   0.952410
     2  H    0.231506  -0.039190
     3  H    0.231519  -0.039175
     4  H    0.231616  -0.039093
     5  H    0.132929  -0.034190
     6  Cl  -0.229318   0.199238
 Sum of Mulliken charges =  -0.00000   1.00000

 Dipole moment (field-independent basis, Debye):
    X=              3.0278    Y=             -0.0001    Z=             -0.0016  Tot=              3.0278
 Quadrupole moment (field-independent basis, Debye-Ang):
   XX=            -19.2382   YY=            -20.8425   ZZ=            -20.8424
   XY=              0.0005   XZ=              0.0034   YZ=              0.0000

  Exact polarizability:  38.095   0.002  17.483   0.017   0.000  17.484
 Approx polarizability:  44.302   0.003  20.742   0.022   0.001  20.744

 ******    1 imaginary frequencies (negative Signs) ******

                      1                      2                      3
                      A                      A                      A
 Frequencies --   -175.5174               318.7476               319.7457
 Red. masses --      6.3217                 1.0302                 1.0301
 Frc consts  --      0.1147                 0.0617                 0.0621
 IR Inten    --     12.5887                 2.1571                 2.1752

                      4                      5                      6
                      A                      A                      A
 Frequencies --    715.5559               715.8630               835.1125
 Red. masses --      1.0403                 1.0404                 1.1091
 Frc consts  --      0.3138                 0.3141                 0.4557
 IR Inten    --     25.5096                25.5707                82.0129

                      7                      8                      9
                      A                      A                      A
 Frequencies --   1431.7381              1431.7679              1756.6076
 Red. masses --      1.0957                 1.0957                 1.0845
 Frc consts  --      1.3234                 1.3233                 1.9717
 IR Inten    --      5.7491                 5.7524               330.3446

                     10                     11                     12
                      A                      A                      A
 Frequencies --   3142.7906              3319.8015              3320.1527
 Red. masses --      1.0110                 1.1166                 1.1166
 Frc consts  --      5.8837                 7.2505                 7.2522
 IR Inten    --      2.0909                 0.0881                 0.0889

 - Thermochemistry -
 -------------------
 Temperature   298.150 Kelvin.  Pressure   1.00000 Atm.
 Atom     1 has atomic number  6 and mass  12.00000

 Molecular mass:    51.00015 amu.
 Principal axes and moments of inertia in atomic units:
                           1         2         3
     Eigenvalues --    12.49173 356.53478 356.53494
           X            1.00000   0.00000   0.00002
           Y           -0.00000   1.00000  -0.00024
           Z           -0.00002   0.00024   1.00000
 This molecule is an asymmetric top.
 Rotational symmetry number  1.
 Rotational temperatures (Kelvin)      6.93370     0.24293     0.24293
 Rotational constants (GHZ):         144.47489     5.06189     5.06189
    1 imaginary frequencies ignored.
 Zero-point vibrational energy     103524.1 (Joules/Mol)
                                   24.74286 (Kcal/Mol)
 Warning -- explicit consideration of   2 degrees of freedom as
           vibrations may cause significant error
 Vibrational temperatures:    458.61   460.04  1029.53  1029.97  1201.54
          (Kelvin)           2059.95  2059.99  2527.37  4521.77  4776.45
                             4776.96

 Zero-point correction=                           0.039430 (Hartree/Particle)
 Thermal correction to Energy=                    0.043353
 Thermal correction to Enthalpy=                  0.044297
 Thermal correction to Gibbs Free Energy=         0.013652
 Sum of electronic and zero-point Energies=           -500.372042
 Sum of electronic and thermal Energies=              -500.368120
 Sum of electronic and thermal Enthalpies=            -500.367176
 Sum of electronic and thermal Free Energies=         -500.397821

                     E (Thermal)             CV                S
                      KCal/Mol        Cal/Mol-Kelvin    Cal/Mol-Kelvin
 Total                   27.204             11.648             64.498
 Electronic               0.000              0.000              1.377
 Translational            0.889              2.981             37.711
 Rotational               0.889              2.981             21.989
 Vibrational             25.427              5.687              3.420
 Vibration     1          0.705              1.638              1.317
 Vibration     2          0.706              1.636              1.311

                           ! Non-Optimized Parameters !
 Normal termination of Gaussian 16 at Wed Oct  7 14:37:32 2020.
