 Gaussian 16, Revision A.03,

 ----------------------------------------------------------------------
 #P Opt(TS,MaxCyc=50,NoEigenTest,MaxStep=10,AddRedundant) PBE1PBE/6-31G
 * 5D 7F Integral=UltraFineGrid SCF=(NoSymm,XQC,MaxCyc=120) EmpiricalDi
 spersion=GD3BJ IOp(1/33=1)
 ----------------------------------------------------------------------

 TstMul:  Mul=     3
 TstMul:  ICh=     0
 TstMul:  Mul=     3
 Symbolic Z-matrix:
 Charge =  0 Multiplicity = 3

 SCF Done:  E(UPBE1PBE) =  -115.423148024     A.U. after   13 cycles
 SCF Done:  E(UPBE1PBE) =  -115.423482408     A.U. after   12 cycles
 SCF Done:  E(UPBE1PBE) =  -115.422944751     A.U. after   13 cycles
 SCF Done:  E(UPBE1PBE) =  -115.422546371     A.U. after   13 cycles
 SCF Done:  E(UPBE1PBE) =  -115.422558327     A.U. after   12 cycles
 SCF Done:  E(UPBE1PBE) =  -115.422584310     A.U. after   11 cycles
 SCF Done:  E(UPBE1PBE) =  -115.422608478     A.U. after   12 cycles
 Optimization completed.
    -- Stationary point found.
 Normal termination of Gaussian 16 at Wed Oct  7 14:35:29 2020.
 Gaussian 16:  ES64L-G16RevA.03 25-Dec-2016

 ----------------------------------------------------------------------
 #P Freq PBE1PBE/6-31G* 5D 7F Integral=UltraFineGrid SCF=(NoSymm,XQC,Ma
 xCyc=120) EmpiricalDispersion=GD3BJ IOp(1/33=1) Geom=Check Guess=Read
 ----------------------------------------------------------------------

 TstMul:  Mul=     3
 TstMul:  ICh=     0
 TstMul:  Mul=     3
 Structure from the checkpoint file:  "MN_87_RKT11_BH76_PBE0DBJ_631Gs.chk"
 Charge =  0 Multiplicity = 3

                         Standard orientation:
 ---------------------------------------------------------------------
 Center     Atomic      Atomic             Coordinates (Angstroms)
 Number     Number       Type             X           Y           Z
 ---------------------------------------------------------------------
      1          6           0        0.000261   -1.153916    0.000000
      2          1           0       -1.064556   -1.380991    0.000000
      3          1           0        0.524577   -1.406794    0.919503
      4          1           0        0.524577   -1.406794   -0.919503
      5          1           0        0.011748    0.216183   -0.000000
      6          8           0        0.000261    1.362737   -0.000000
 ---------------------------------------------------------------------

 SCF Done:  E(UPBE1PBE) =  -115.422608478     A.U. after    1 cycles

 The electronic state is 3-A'.
 Alpha  occ. eigenvalues --  -19.27772 -10.25648  -1.00637  -0.74314  -0.49346
 Alpha  occ. eigenvalues --   -0.44929  -0.44803  -0.41050  -0.33075  -0.28688
 Alpha virt. eigenvalues --    0.11245   0.16697   0.16792   0.26085   0.51804
 Alpha virt. eigenvalues --    0.52238   0.54736   0.72512   0.87239   0.90174
 Alpha virt. eigenvalues --    0.90225   0.90250   0.92420   0.96526   1.16766

  Beta  occ. eigenvalues --  -19.23906 -10.24478  -0.89207  -0.70780  -0.43963
  Beta  occ. eigenvalues --   -0.43927  -0.41396  -0.29213
  Beta virt. eigenvalues --   -0.10926  -0.10793   0.12214   0.17442   0.17499
  Beta virt. eigenvalues --    0.30097   0.52945   0.53032   0.60064   0.74355
  Beta virt. eigenvalues --    0.90894   0.90970   0.92208   0.94682   0.98745

 Mulliken charges and spin densities:
               1          2
     1  C   -0.705668   0.721949
     2  H    0.219428  -0.023971
     3  H    0.219934  -0.024895
     4  H    0.219934  -0.024895
     5  H    0.412556  -0.081786
     6  O   -0.366184   1.433598
 Sum of Mulliken charges =  -0.00000   2.00000

 Dipole moment (field-independent basis, Debye):
    X=              0.0016    Y=             -2.1603    Z=             -0.0000  Tot=              2.1603
 Quadrupole moment (field-independent basis, Debye-Ang):
   XX=            -12.3244   YY=            -15.2686   ZZ=            -13.4638
   XY=              0.0032   XZ=              0.0000   YZ=              0.0000

  Exact polarizability:  14.290  -0.064  31.258   0.000  -0.000  14.027
 Approx polarizability:  16.659  -0.079  36.691   0.000   0.000  16.051

 ******    1 imaginary frequencies (negative Signs) ******

                      1                      2                      3
                     A'                     A"                     A'
 Frequencies --  -1416.5238               338.6493               410.0430
 Red. masses --      1.1077                 1.0564                 1.0720
 Frc consts  --      1.3096                 0.0714                 0.1062
 IR Inten    --    412.6041                 7.3568                 3.2336

                      4                      5                      6
                     A'                     A"                     A'
 Frequencies --    579.8962               962.7156              1145.5360
 Red. masses --      3.9606                 1.0688                 1.0638
 Frc consts  --      0.7847                 0.5837                 0.8225
 IR Inten    --      0.3357                40.1569                46.4456

                      7                      8                      9
                     A'                     A'                     A"
 Frequencies --   1218.4139              1449.0318              1459.7405
 Red. masses --      1.2490                 1.0773                 1.0828
 Frc consts  --      1.0925                 1.3327                 1.3594
 IR Inten    --     23.1917                 4.7577                 5.0641

                     10                     11                     12
                     A'                     A'                     A"
 Frequencies --   3121.3180              3272.9235              3279.9081
 Red. masses --      1.0173                 1.1119                 1.1132
 Frc consts  --      5.8397                 7.0177                 7.0561
 IR Inten    --      0.0037                 3.0932                 3.0351

 - Thermochemistry -
 -------------------
 Temperature   298.150 Kelvin.  Pressure   1.00000 Atm.
 Atom     1 has atomic number  6 and mass  12.00000

 Molecular mass:    32.02621 amu.
 Principal axes and moments of inertia in atomic units:
                           1         2         3
     Eigenvalues --    12.14576 188.73821 188.76410
           X           -0.00003   0.00000   1.00000
           Y            1.00000   0.00000   0.00003
           Z           -0.00000   1.00000   0.00000
 This molecule is an asymmetric top.
 Rotational symmetry number  1.
 Rotational temperatures (Kelvin)      7.13121     0.45891     0.45885
 Rotational constants (GHZ):         148.59020     9.56214     9.56083
    1 imaginary frequencies ignored.
 Zero-point vibrational energy     103107.2 (Joules/Mol)
                                   24.64321 (Kcal/Mol)
 Warning -- explicit consideration of   3 degrees of freedom as
           vibrations may cause significant error
 Vibrational temperatures:    487.24   589.96   834.34  1385.13  1648.17
          (Kelvin)           1753.03  2084.83  2100.24  4490.88  4709.01
                             4719.06

 Zero-point correction=                           0.039271 (Hartree/Particle)
 Thermal correction to Energy=                    0.043040
 Thermal correction to Enthalpy=                  0.043984
 Thermal correction to Gibbs Free Energy=         0.014496
 Sum of electronic and zero-point Energies=           -115.383337
 Sum of electronic and thermal Energies=              -115.379569
 Sum of electronic and thermal Enthalpies=            -115.378624
 Sum of electronic and thermal Free Energies=         -115.408112

                     E (Thermal)             CV                S
                      KCal/Mol        Cal/Mol-Kelvin    Cal/Mol-Kelvin
 Total                   27.008             11.115             62.063
 Electronic               0.000              0.000              2.183
 Translational            0.889              2.981             36.324
 Rotational               0.889              2.981             20.698
 Vibrational             25.230              5.154              2.858
 Vibration     1          0.719              1.598              1.219
 Vibration     2          0.774              1.448              0.926
 Vibration     3          0.937              1.075              0.486

                           ! Non-Optimized Parameters !
 Normal termination of Gaussian 16 at Wed Oct  7 14:35:50 2020.
