 Gaussian 16, Revision A.03,

 ----------------------------------------------------------------------
 #P Opt(TS,MaxCyc=50,NoEigenTest,MaxStep=10,AddRedundant) PBE1PBE/6-31G
 * 5D 7F Integral=UltraFineGrid SCF=(NoSymm,XQC,MaxCyc=120) EmpiricalDi
 spersion=GD3BJ IOp(1/33=1)
 ----------------------------------------------------------------------

 TstMul:  Mul=     2
 TstMul:  ICh=     0
 TstMul:  Mul=     2
 Symbolic Z-matrix:
 Charge =  0 Multiplicity = 2

 SCF Done:  E(UPBE1PBE) =  -100.790079955     A.U. after   18 cycles
 SCF Done:  E(UPBE1PBE) =  -100.790075346     A.U. after   12 cycles
 SCF Done:  E(UPBE1PBE) =  -100.790072397     A.U. after   11 cycles
 SCF Done:  E(UPBE1PBE) =  -100.790062632     A.U. after   12 cycles
 SCF Done:  E(UPBE1PBE) =  -100.790143019     A.U. after   13 cycles
 SCF Done:  E(UPBE1PBE) =  -100.789994306     A.U. after   18 cycles
 SCF Done:  E(UPBE1PBE) =  -100.789892783     A.U. after   13 cycles
 SCF Done:  E(UPBE1PBE) =  -100.789823299     A.U. after   13 cycles
 SCF Done:  E(UPBE1PBE) =  -100.789777587     A.U. after   14 cycles
 SCF Done:  E(UPBE1PBE) =  -100.789749270     A.U. after   13 cycles
 SCF Done:  E(UPBE1PBE) =  -100.789733315     A.U. after   17 cycles
 SCF Done:  E(UPBE1PBE) =  -100.789726624     A.U. after   17 cycles
 SCF Done:  E(UPBE1PBE) =  -100.789726448     A.U. after   11 cycles
 SCF Done:  E(UPBE1PBE) =  -100.789726587     A.U. after   10 cycles
 SCF Done:  E(UPBE1PBE) =  -100.789727446     A.U. after   17 cycles
 SCF Done:  E(UPBE1PBE) =  -100.789726730     A.U. after   17 cycles
 SCF Done:  E(UPBE1PBE) =  -100.789726832     A.U. after   11 cycles
 Optimization completed.
    -- Stationary point found.
 Normal termination of Gaussian 16 at Wed Oct  7 14:36:25 2020.
 Gaussian 16:  ES64L-G16RevA.03 25-Dec-2016

 ----------------------------------------------------------------------
 #P Freq PBE1PBE/6-31G* 5D 7F Integral=UltraFineGrid SCF=(NoSymm,XQC,Ma
 xCyc=120) EmpiricalDispersion=GD3BJ IOp(1/33=1) Geom=Check Guess=Read
 ----------------------------------------------------------------------

 TstMul:  Mul=     2
 TstMul:  ICh=     0
 TstMul:  Mul=     2
 Structure from the checkpoint file:  "MN_86_RKT10_BH76_PBE0DBJ_631Gs.chk"
 Charge =  0 Multiplicity = 2

                         Standard orientation:
 ---------------------------------------------------------------------
 Center     Atomic      Atomic             Coordinates (Angstroms)
 Number     Number       Type             X           Y           Z
 ---------------------------------------------------------------------
      1          1           0        0.291175   -1.280853    0.000000
      2          9           0        0.000000    0.339360    0.000000
      3          1           0       -0.291175   -1.773383    0.000000
 ---------------------------------------------------------------------

 SCF Done:  E(UPBE1PBE) =  -100.789726832     A.U. after    1 cycles

 The electronic state is 2-A'.
 Alpha  occ. eigenvalues --  -24.82506  -1.21270  -0.56378  -0.44088  -0.43667
 Alpha  occ. eigenvalues --   -0.42787
 Alpha virt. eigenvalues --    0.11525   0.61065   1.01281   1.18098   1.20831
 Alpha virt. eigenvalues --    1.23141   1.46359   1.81211   1.82320   1.85188
 Alpha virt. eigenvalues --    1.86041   1.86097
  Beta  occ. eigenvalues --  -24.79553  -1.12585  -0.47197  -0.40766  -0.40751
  Beta virt. eigenvalues --   -0.19363   0.12961   0.62415   1.04660   1.19778
  Beta virt. eigenvalues --    1.22661   1.31568   1.51020   1.86497   1.86679
  Beta virt. eigenvalues --    1.86869   1.88137   1.92447

 Mulliken charges and spin densities:
               1          2
     1  H    0.060057  -0.031633
     2  F   -0.092823   0.877291
     3  H    0.032766   0.154342
 Sum of Mulliken charges =  -0.00000   1.00000

 Dipole moment (field-independent basis, Debye):
    X=              0.0112    Y=             -0.7346    Z=              0.0000  Tot=              0.7347
 Quadrupole moment (field-independent basis, Debye-Ang):
   XX=             -6.4415   YY=             -4.8953   ZZ=             -6.6960
   XY=              0.1869   XZ=              0.0000   YZ=              0.0000

  Exact polarizability:   5.290   2.674  15.078   0.000   0.000   1.563
 Approx polarizability:   6.070   3.319  16.397   0.000   0.000   1.707

 ******    1 imaginary frequencies (negative Signs) ******

                      1                      2                      3
                     A'                     A'                     A'
 Frequencies --   -240.3622               279.9534              4049.5473
 Red. masses --      1.0295                 1.0879                 1.0080
 Frc consts  --      0.0350                 0.0502                 9.7388
 IR Inten    --     43.7952                29.5423               199.5269

 - Thermochemistry -
 -------------------
 Temperature   298.150 Kelvin.  Pressure   1.00000 Atm.
 Atom     1 has atomic number  1 and mass   1.00783

 Molecular mass:    21.01405 amu.
 Principal axes and moments of inertia in atomic units:
                           1         2         3
     Eigenvalues --     0.59843  23.11910  23.71754
           X            0.02292   0.99974   0.00000
           Y            0.99974  -0.02292   0.00000
           Z            0.00000   0.00000   1.00000
 This molecule is an asymmetric top.
 Rotational symmetry number  1.
 Rotational temperatures (Kelvin)    144.73414     3.74642     3.65189
 Rotational constants (GHZ):        3015.76998    78.06277    76.09312
    1 imaginary frequencies ignored.
 Zero-point vibrational energy      25896.2 (Joules/Mol)
                                    6.18933 (Kcal/Mol)
 Warning -- explicit consideration of   1 degrees of freedom as
           vibrations may cause significant error
 Vibrational temperatures:    402.79  5826.40
          (Kelvin)

 Zero-point correction=                           0.009863 (Hartree/Particle)
 Thermal correction to Energy=                    0.013142
 Thermal correction to Enthalpy=                  0.014086
 Thermal correction to Gibbs Free Energy=        -0.010402
 Sum of electronic and zero-point Energies=           -100.779864
 Sum of electronic and thermal Energies=              -100.776585
 Sum of electronic and thermal Enthalpies=            -100.775641
 Sum of electronic and thermal Free Energies=         -100.800129

                     E (Thermal)             CV                S
                      KCal/Mol        Cal/Mol-Kelvin    Cal/Mol-Kelvin
 Total                    8.247              7.672             51.539
 Electronic               0.000              0.000              1.377
 Translational            0.889              2.981             35.068
 Rotational               0.889              2.981             13.559
 Vibrational              6.469              1.711              1.534
 Vibration     1          0.680              1.711              1.534

 Optimization completed.
    -- Stationary point found.
 Normal termination of Gaussian 16 at Wed Oct  7 14:36:45 2020.
