 Gaussian 16, Revision A.03,

 ----------------------------------------------------------------------
 #P Opt(TS,MaxCyc=50,NoEigenTest,MaxStep=10,AddRedundant) PBE1PBE/6-31G
 * 5D 7F Integral=UltraFineGrid SCF=(NoSymm,XQC,MaxCyc=120) EmpiricalDi
 spersion=GD3BJ IOp(1/33=1)
 ----------------------------------------------------------------------

 TstMul:  Mul=     2
 TstMul:  ICh=     0
 TstMul:  Mul=     2
 Symbolic Z-matrix:
 Charge =  0 Multiplicity = 2

 SCF Done:  E(UPBE1PBE) =  -132.122744447     A.U. after   19 cycles
 SCF Done:  E(UPBE1PBE) =  -132.122742908     A.U. after   11 cycles
 SCF Done:  E(UPBE1PBE) =  -132.122750536     A.U. after   14 cycles
 SCF Done:  E(UPBE1PBE) =  -132.122999368     A.U. after   18 cycles
 SCF Done:  E(UPBE1PBE) =  -132.123186063     A.U. after   15 cycles
 SCF Done:  E(UPBE1PBE) =  -132.123239894     A.U. after   14 cycles
 SCF Done:  E(UPBE1PBE) =  -132.123278298     A.U. after   15 cycles
 SCF Done:  E(UPBE1PBE) =  -132.123297832     A.U. after   14 cycles
 SCF Done:  E(UPBE1PBE) =  -132.123307011     A.U. after   12 cycles
 SCF Done:  E(UPBE1PBE) =  -132.123315376     A.U. after   12 cycles
 SCF Done:  E(UPBE1PBE) =  -132.123323248     A.U. after   12 cycles
 SCF Done:  E(UPBE1PBE) =  -132.123328320     A.U. after   12 cycles
 SCF Done:  E(UPBE1PBE) =  -132.123329239     A.U. after   12 cycles
 SCF Done:  E(UPBE1PBE) =  -132.123329465     A.U. after   11 cycles
 Optimization completed.
    -- Stationary point found.
 Normal termination of Gaussian 16 at Sun Oct 11 11:30:41 2020.
 Gaussian 16:  ES64L-G16RevA.03 25-Dec-2016

 ----------------------------------------------------------------------
 #P Freq PBE1PBE/6-31G* 5D 7F Integral=UltraFineGrid SCF=(NoSymm,XQC,Ma
 xCyc=120) EmpiricalDispersion=GD3BJ IOp(1/33=1) Geom=Check Guess=Read
 ----------------------------------------------------------------------

 TstMul:  Mul=     2
 TstMul:  ICh=     0
 TstMul:  Mul=     2
 Structure from the checkpoint file:  "MN_83_RKT07_BH76_PBE0DBJ_631Gs.chk"
 Charge =  0 Multiplicity = 2

                         Standard orientation:
 ---------------------------------------------------------------------
 Center     Atomic      Atomic             Coordinates (Angstroms)
 Number     Number       Type             X           Y           Z
 ---------------------------------------------------------------------
      1          7           0       -1.140909   -0.015677   -0.111662
      2          8           0        1.158583   -0.104067    0.013685
      3          1           0       -1.298165   -0.686598    0.641827
      4          1           0       -1.302319    0.906378    0.296458
      5          1           0       -0.018337   -0.120163   -0.410638
      6          1           0        1.336524    0.842658    0.144507
 ---------------------------------------------------------------------

 SCF Done:  E(UPBE1PBE) =  -132.123329465     A.U. after    1 cycles

 The electronic state is 2-A.
 Alpha  occ. eigenvalues --  -19.22023 -14.41562  -1.01034  -0.89667  -0.53597
 Alpha  occ. eigenvalues --   -0.50387  -0.43034  -0.35555  -0.30691  -0.29510
 Alpha virt. eigenvalues --    0.07419   0.13164   0.16117   0.29125   0.64005
 Alpha virt. eigenvalues --    0.65765   0.70496   0.83465   0.85217   0.85640
 Alpha virt. eigenvalues --    0.90330   0.97262   0.99516   1.11823   1.25506

  Beta  occ. eigenvalues --  -19.20524 -14.40309  -0.97221  -0.86250  -0.51087
  Beta  occ. eigenvalues --   -0.49262  -0.41012  -0.29563  -0.28798
  Beta virt. eigenvalues --   -0.11948   0.08136   0.13777   0.16462   0.30216
  Beta virt. eigenvalues --    0.65556   0.66526   0.74861   0.84270   0.86005
  Beta virt. eigenvalues --    0.87776   0.90958   0.98355   1.01799   1.13887

 Mulliken charges and spin densities:
               1          2
     1  N   -0.839114   0.579218
     2  O   -0.707538   0.525328
     3  H    0.352397  -0.020546
     4  H    0.336456  -0.021171
     5  H    0.456912  -0.047941
     6  H    0.400886  -0.014888
 Sum of Mulliken charges =  -0.00000   1.00000

 Dipole moment (field-independent basis, Debye):
    X=             -1.0986    Y=              1.8859    Z=              1.4637  Tot=              2.6279
 Quadrupole moment (field-independent basis, Debye-Ang):
   XX=            -14.2462   YY=            -10.6505   ZZ=            -13.9617
   XY=              1.8810   XZ=             -2.2691   YZ=             -0.0150

  Exact polarizability:  46.199   0.965  14.722   0.647   0.157   9.948
 Approx polarizability:  57.947  -0.814  18.176   2.577   0.160  11.701

 ******    1 imaginary frequencies (negative Signs) ******

                      1                      2                      3
                      A                      A                      A
 Frequencies --  -1353.5801               240.0257               432.4631
 Red. masses --      1.0489                 1.0644                 2.1529
 Frc consts  --      1.1322                 0.0361                 0.2372
 IR Inten    --    601.3723                80.5054                23.0644

                      4                      5                      6
                      A                      A                      A
 Frequencies --    536.7270               842.6322               911.6122
 Red. masses --      1.0274                 1.5821                 1.1575
 Frc consts  --      0.1744                 0.6619                 0.5668
 IR Inten    --     39.1019               146.8726                88.7686

                      7                      8                      9
                      A                      A                      A
 Frequencies --   1535.6911              1639.5771              1716.8368
 Red. masses --      1.1430                 1.0699                 1.0216
 Frc consts  --      1.5882                 1.6945                 1.7741
 IR Inten    --    216.1716                49.2115                32.6406

                     10                     11                     12
                      A                      A                      A
 Frequencies --   3494.6803              3599.1399              3767.9084
 Red. masses --      1.0503                 1.0909                 1.0664
 Frc consts  --      7.5577                 8.3260                 8.9203
 IR Inten    --      6.3926                 3.5488                31.5899

 - Thermochemistry -
 -------------------
 Temperature   298.150 Kelvin.  Pressure   1.00000 Atm.
 Atom     1 has atomic number  7 and mass  14.00307

 Molecular mass:    34.02929 amu.
 Principal axes and moments of inertia in atomic units:
                           1         2         3
     Eigenvalues --    10.72825 163.31630 168.08182
           X            0.99955   0.01864  -0.02354
           Y           -0.01867   0.99983  -0.00098
           Z            0.02351   0.00142   0.99972
 This molecule is an asymmetric top.
 Rotational symmetry number  1.
 Rotational temperatures (Kelvin)      8.07345     0.53034     0.51531
 Rotational constants (GHZ):         168.22329    11.05059    10.73728
    1 imaginary frequencies ignored.
 Zero-point vibrational energy     111954.3 (Joules/Mol)
                                   26.75771 (Kcal/Mol)
 Warning -- explicit consideration of   3 degrees of freedom as
           vibrations may cause significant error
 Vibrational temperatures:    345.34   622.22   772.23  1212.36  1311.61
          (Kelvin)           2209.52  2358.99  2470.15  5028.07  5178.36
                             5421.18

 Zero-point correction=                           0.042641 (Hartree/Particle)
 Thermal correction to Energy=                    0.046579
 Thermal correction to Enthalpy=                  0.047524
 Thermal correction to Gibbs Free Energy=         0.018183
 Sum of electronic and zero-point Energies=           -132.080688
 Sum of electronic and thermal Energies=              -132.076750
 Sum of electronic and thermal Enthalpies=            -132.075806
 Sum of electronic and thermal Free Energies=         -132.105147

                     E (Thermal)             CV                S
                      KCal/Mol        Cal/Mol-Kelvin    Cal/Mol-Kelvin
 Total                   29.229             11.523             61.753
 Electronic               0.000              0.000              1.377
 Translational            0.889              2.981             36.505
 Rotational               0.889              2.981             20.315
 Vibrational             27.452              5.561              3.556
 Vibration     1          0.657              1.779              1.803
 Vibration     2          0.793              1.400              0.851
 Vibration     3          0.892              1.169              0.572

 Optimization completed.
    -- Stationary point found.
 Normal termination of Gaussian 16 at Sun Oct 11 11:30:54 2020.
