 Gaussian 16, Revision A.03,

 ----------------------------------------------------------------------
 #P Opt(TS,MaxCyc=50,NoEigenTest,MaxStep=10,AddRedundant) PBE1PBE/6-31G
 * 5D 7F Integral=UltraFineGrid SCF=(NoSymm,XQC,MaxCyc=120) EmpiricalDi
 spersion=GD3BJ IOp(1/33=1)
 ----------------------------------------------------------------------

 TstMul:  Mul=     2
 TstMul:  ICh=     0
 TstMul:  Mul=     2
 Symbolic Z-matrix:
 Charge =  0 Multiplicity = 2

 SCF Done:  E(UPBE1PBE) =  -343.478608843     A.U. after   14 cycles
 SCF Done:  E(UPBE1PBE) =  -343.478682475     A.U. after   11 cycles
 SCF Done:  E(UPBE1PBE) =  -343.478960125     A.U. after   13 cycles
 SCF Done:  E(UPBE1PBE) =  -343.478641118     A.U. after   13 cycles
 SCF Done:  E(UPBE1PBE) =  -343.478353193     A.U. after   13 cycles
 SCF Done:  E(UPBE1PBE) =  -343.478215704     A.U. after   12 cycles
 SCF Done:  E(UPBE1PBE) =  -343.478180235     A.U. after   12 cycles
 SCF Done:  E(UPBE1PBE) =  -343.478179304     A.U. after   10 cycles
 Optimization completed.
    -- Stationary point found.
 Normal termination of Gaussian 16 at Wed Oct  7 14:35:36 2020.
 Gaussian 16:  ES64L-G16RevA.03 25-Dec-2016

 ----------------------------------------------------------------------
 #P Freq PBE1PBE/6-31G* 5D 7F Integral=UltraFineGrid SCF=(NoSymm,XQC,Ma
 xCyc=120) EmpiricalDispersion=GD3BJ IOp(1/33=1) Geom=Check Guess=Read
 ----------------------------------------------------------------------

 TstMul:  Mul=     2
 TstMul:  ICh=     0
 TstMul:  Mul=     2
 Structure from the checkpoint file:  "MN_88_RKT12_BH76_PBE0DBJ_631Gs.chk"
 Charge =  0 Multiplicity = 2

                         Standard orientation:
 ---------------------------------------------------------------------
 Center     Atomic      Atomic             Coordinates (Angstroms)
 Number     Number       Type             X           Y           Z
 ---------------------------------------------------------------------
      1         15           0        0.222930   -0.000002   -0.113188
      2          1           0        0.275595    1.032769    0.864353
      3          1           0        0.275001   -1.033152    0.863985
      4          1           0       -1.243905    0.000415   -0.126689
      5          1           0       -2.650642   -0.000005    0.096167
 ---------------------------------------------------------------------

 SCF Done:  E(UPBE1PBE) =  -343.478179304     A.U. after    1 cycles

 The electronic state is 2-A.
 Alpha  occ. eigenvalues --  -77.20638  -6.61171  -4.74765  -4.74621  -4.74269
 Alpha  occ. eigenvalues --   -0.67253  -0.43435  -0.40207  -0.31624  -0.26829
 Alpha virt. eigenvalues --    0.03682   0.04235   0.13993   0.29388   0.30494
 Alpha virt. eigenvalues --    0.33062   0.38457   0.66327   0.66835   0.68454
 Alpha virt. eigenvalues --    0.69313   0.73759   0.79493   1.01429   1.16368

  Beta  occ. eigenvalues --  -77.20521  -6.61043  -4.74547  -4.74445  -4.74091
  Beta  occ. eigenvalues --   -0.66401  -0.40707  -0.40064  -0.29123
  Beta virt. eigenvalues --   -0.08013   0.03777   0.05910   0.15193   0.29545
  Beta virt. eigenvalues --    0.30656   0.35055   0.39174   0.67333   0.67703
  Beta virt. eigenvalues --    0.69339   0.69410   0.75977   0.91669   1.03235

 Mulliken charges and spin densities:
               1          2
     1  P   -0.055841   0.220029
     2  H    0.050472  -0.007006
     3  H    0.050475  -0.007007
     4  H   -0.044021  -0.091898
     5  H   -0.001085   0.885882
 Sum of Mulliken charges =   0.00000   1.00000

 Dipole moment (field-independent basis, Debye):
    X=             -0.2395    Y=             -0.0001    Z=              0.8654  Tot=              0.8979
 Quadrupole moment (field-independent basis, Debye-Ang):
   XX=            -17.6396   YY=            -15.8388   ZZ=            -17.5347
   XY=              0.0001   XZ=              1.1575   YZ=              0.0000

  Exact polarizability:  40.523   0.001  21.738  -0.365  -0.000  19.763
 Approx polarizability:  47.979   0.002  29.620   0.522  -0.000  25.448

 ******    1 imaginary frequencies (negative Signs) ******

                      1                      2                      3
                      A                      A                      A
 Frequencies --   -629.0427               337.0479               338.2672
 Red. masses --      1.0197                 1.0224                 1.0079
 Frc consts  --      0.2377                 0.0684                 0.0679
 IR Inten    --     72.5741                 3.5533                 2.9095

                      4                      5                      6
                      A                      A                      A
 Frequencies --   1029.7315              1153.6016              1160.3889
 Red. masses --      1.0778                 1.0242                 1.0270
 Frc consts  --      0.6733                 0.8031                 0.8148
 IR Inten    --     13.4983                16.4136                 7.2190

                      7                      8                      9
                      A                      A                      A
 Frequencies --   1805.0288              2440.0761              2451.6821
 Red. masses --      1.0491                 1.0353                 1.0409
 Frc consts  --      2.0139                 3.6317                 3.6863
 IR Inten    --     95.9813                66.4333               101.5966

 - Thermochemistry -
 -------------------
 Temperature   298.150 Kelvin.  Pressure   1.00000 Atm.
 Atom     1 has atomic number 15 and mass  30.97376

 Molecular mass:    35.00506 amu.
 Principal axes and moments of inertia in atomic units:
                           1         2         3
     Eigenvalues --    14.21424  42.17780  43.32423
           X            0.99964   0.00000   0.02686
           Y           -0.00000   1.00000  -0.00001
           Z           -0.02686   0.00001   0.99964
 This molecule is an asymmetric top.
 Rotational symmetry number  1.
 Rotational temperatures (Kelvin)      6.09346     2.05354     1.99920
 Rotational constants (GHZ):         126.96710    42.78889    41.65662
    1 imaginary frequencies ignored.
 Zero-point vibrational energy      64094.9 (Joules/Mol)
                                   15.31904 (Kcal/Mol)
 Warning -- explicit consideration of   2 degrees of freedom as
           vibrations may cause significant error
 Vibrational temperatures:    484.94   486.69  1481.55  1659.78  1669.54
          (Kelvin)           2597.03  3510.73  3527.42

 Zero-point correction=                           0.024412 (Hartree/Particle)
 Thermal correction to Energy=                    0.028069
 Thermal correction to Enthalpy=                  0.029014
 Thermal correction to Gibbs Free Energy=         0.001218
 Sum of electronic and zero-point Energies=           -343.453767
 Sum of electronic and thermal Energies=              -343.450110
 Sum of electronic and thermal Enthalpies=            -343.449166
 Sum of electronic and thermal Free Energies=         -343.476961

                     E (Thermal)             CV                S
                      KCal/Mol        Cal/Mol-Kelvin    Cal/Mol-Kelvin
 Total                   17.614             10.006             58.501
 Electronic               0.000              0.000              1.377
 Translational            0.889              2.981             36.589
 Rotational               0.889              2.981             17.903
 Vibrational             15.836              4.045              2.632
 Vibration     1          0.718              1.601              1.226
 Vibration     2          0.719              1.599              1.220

 Optimization completed.
    -- Stationary point found.
 Normal termination of Gaussian 16 at Wed Oct  7 14:35:58 2020.
