 Gaussian 16, Revision A.03,

 ----------------------------------------------------------------------
 #P Opt(TS,MaxCyc=50,NoEigenTest,MaxStep=10,AddRedundant) PBE1PBE/6-31G
 * 5D 7F Integral=UltraFineGrid SCF=(NoSymm,XQC,MaxCyc=120) EmpiricalDi
 spersion=GD3BJ IOp(1/33=1)
 ----------------------------------------------------------------------

 TstMul:  Mul=     2
 TstMul:  ICh=     0
 TstMul:  Mul=     2
 Symbolic Z-matrix:
 Charge =  0 Multiplicity = 2

 SCF Done:  E(UPBE1PBE) =  -116.092261983     A.U. after   17 cycles
 SCF Done:  E(UPBE1PBE) =  -116.092381287     A.U. after   15 cycles
 SCF Done:  E(UPBE1PBE) =  -116.092590462     A.U. after   17 cycles
 SCF Done:  E(UPBE1PBE) =  -116.092716299     A.U. after   17 cycles
 SCF Done:  E(UPBE1PBE) =  -116.092880958     A.U. after   17 cycles
 SCF Done:  E(UPBE1PBE) =  -116.092887893     A.U. after   15 cycles
 SCF Done:  E(UPBE1PBE) =  -116.092679391     A.U. after   17 cycles
 SCF Done:  E(UPBE1PBE) =  -116.092507409     A.U. after   17 cycles
 SCF Done:  E(UPBE1PBE) =  -116.092365671     A.U. after   17 cycles
 SCF Done:  E(UPBE1PBE) =  -116.092334079     A.U. after   18 cycles
 SCF Done:  E(UPBE1PBE) =  -116.092338829     A.U. after   16 cycles
 SCF Done:  E(UPBE1PBE) =  -116.092342097     A.U. after   12 cycles
 SCF Done:  E(UPBE1PBE) =  -116.092342365     A.U. after   13 cycles
 SCF Done:  E(UPBE1PBE) =  -116.092342317     A.U. after   11 cycles
 Optimization completed.
    -- Stationary point found.
 Normal termination of Gaussian 16 at Wed Oct  7 14:36:27 2020.
 Gaussian 16:  ES64L-G16RevA.03 25-Dec-2016

 ----------------------------------------------------------------------
 #P Freq PBE1PBE/6-31G* 5D 7F Integral=UltraFineGrid SCF=(NoSymm,XQC,Ma
 xCyc=120) EmpiricalDispersion=GD3BJ IOp(1/33=1) Geom=Check Guess=Read
 ----------------------------------------------------------------------

 TstMul:  Mul=     2
 TstMul:  ICh=     0
 TstMul:  Mul=     2
 Structure from the checkpoint file:  "MN_81_RKT04_BH76_PBE0DBJ_631Gs.chk"
 Charge =  0 Multiplicity = 2

                         Standard orientation:
 ---------------------------------------------------------------------
 Center     Atomic      Atomic             Coordinates (Angstroms)
 Number     Number       Type             X           Y           Z
 ---------------------------------------------------------------------
      1          6           0       -1.205415    0.009433   -0.000326
      2          8           0        1.283762   -0.108982   -0.000043
      3          1           0        0.038218   -0.158235   -0.012820
      4          1           0       -1.562906   -0.738163    0.708164
      5          1           0       -1.394845    1.030494    0.331194
      6          1           0       -1.530212   -0.175145   -1.024246
      7          1           0        1.412135    0.856307    0.000009
 ---------------------------------------------------------------------

 SCF Done:  E(UPBE1PBE) =  -116.092342317     A.U. after    1 cycles

 The electronic state is 2-A.
 Alpha  occ. eigenvalues --  -19.22921 -10.23928  -1.01192  -0.73576  -0.50698
 Alpha  occ. eigenvalues --   -0.43718  -0.43216  -0.42351  -0.30926  -0.28464
 Alpha virt. eigenvalues --    0.09964   0.13990   0.17296   0.17583   0.29741
 Alpha virt. eigenvalues --    0.53079   0.53200   0.56280   0.78562   0.84294
 Alpha virt. eigenvalues --    0.90641   0.90775   0.92546   0.94055   0.99540

  Beta  occ. eigenvalues --  -19.21207 -10.23008  -0.96656  -0.71031  -0.47238
  Beta  occ. eigenvalues --   -0.42586  -0.42468  -0.38016  -0.29250
  Beta virt. eigenvalues --   -0.11281   0.10609   0.14720   0.17890   0.18188
  Beta virt. eigenvalues --    0.32201   0.53592   0.53700   0.60313   0.79221
  Beta virt. eigenvalues --    0.86061   0.91286   0.91445   0.93519   0.95071

 Mulliken charges and spin densities:
               1          2
     1  C   -0.733765   0.539897
     2  O   -0.659438   0.603871
     3  H    0.367309  -0.080263
     4  H    0.213624  -0.013881
     5  H    0.198595  -0.018955
     6  H    0.210284  -0.015239
     7  H    0.403390  -0.015429
 Sum of Mulliken charges =  -0.00000   1.00000

 Dipole moment (field-independent basis, Debye):
    X=             -1.3573    Y=              1.5599    Z=             -0.0015  Tot=              2.0678
 Quadrupole moment (field-independent basis, Debye-Ang):
   XX=            -14.5844   YY=            -12.4974   ZZ=            -14.3946
   XY=              2.6393   XZ=              0.0023   YZ=             -0.0166

  Exact polarizability:  35.722   1.033  17.840   0.047   0.008  14.487
 Approx polarizability:  40.587   0.033  21.670   0.103   0.018  16.644

 ******    1 imaginary frequencies (negative Signs) ******

                      1                      2                      3
                      A                      A                      A
 Frequencies --  -1394.8070                22.0445               309.8990
 Red. masses --      1.0809                 1.0474                 1.0692
 Frc consts  --      1.2390                 0.0003                 0.0605
 IR Inten    --    735.9798                86.0880                 8.8294

                      4                      5                      6
                      A                      A                      A
 Frequencies --    373.0877               650.1509               916.2040
 Red. masses --      1.1422                 3.1978                 1.1875
 Frc consts  --      0.0937                 0.7964                 0.5873
 IR Inten    --     10.4289                46.0809               115.8397

                      7                      8                      9
                      A                      A                      A
 Frequencies --   1123.3971              1258.6115              1447.1412
 Red. masses --      1.0971                 1.1452                 1.1071
 Frc consts  --      0.8158                 1.0688                 1.3661
 IR Inten    --     46.5103                 5.3412                37.9399

                     10                     11                     12
                      A                      A                      A
 Frequencies --   1467.3791              1505.7459              3111.2576
 Red. masses --      1.0612                 1.0217                 1.0220
 Frc consts  --      1.3463                 1.3648                 5.8289
 IR Inten    --      3.0605                44.8785                 1.8084

                     13                     14                     15
                      A                      A                      A
 Frequencies --   3245.0947              3249.4535              3751.5841
 Red. masses --      1.1086                 1.1092                 1.0664
 Frc consts  --      6.8782                 6.9003                 8.8433
 IR Inten    --      7.9049                 6.2485                19.2203

 - Thermochemistry -
 -------------------
 Temperature   298.150 Kelvin.  Pressure   1.00000 Atm.
 Atom     1 has atomic number  6 and mass  12.00000

 Molecular mass:    33.03404 amu.
 Principal axes and moments of inertia in atomic units:
                           1         2         3
     Eigenvalues --    15.12245 192.88920 196.05984
           X            0.99975   0.02218  -0.00004
           Y           -0.02218   0.99975  -0.00001
           Z            0.00004   0.00001   1.00000
 This molecule is an asymmetric top.
 Rotational symmetry number  1.
 Rotational temperatures (Kelvin)      5.72751     0.44903     0.44177
 Rotational constants (GHZ):         119.34184     9.35636     9.20505
    1 imaginary frequencies ignored.
 Zero-point vibrational energy     134167.5 (Joules/Mol)
                                   32.06680 (Kcal/Mol)
 Warning -- explicit consideration of   3 degrees of freedom as
           vibrations may cause significant error
 Vibrational temperatures:     31.72   445.88   536.79   935.42  1318.21
          (Kelvin)           1616.32  1810.86  2082.11  2111.23  2166.43
                             4476.41  4668.97  4675.24  5397.69

 Zero-point correction=                           0.051102 (Hartree/Particle)
 Thermal correction to Energy=                    0.055811
 Thermal correction to Enthalpy=                  0.056755
 Thermal correction to Gibbs Free Energy=         0.024318
 Sum of electronic and zero-point Energies=           -116.041241
 Sum of electronic and thermal Energies=              -116.036531
 Sum of electronic and thermal Enthalpies=            -116.035587
 Sum of electronic and thermal Free Energies=         -116.068024

                     E (Thermal)             CV                S
                      KCal/Mol        Cal/Mol-Kelvin    Cal/Mol-Kelvin
 Total                   35.022             13.213             68.270
 Electronic               0.000              0.000              1.377
 Translational            0.889              2.981             36.416
 Rotational               0.889              2.981             20.975
 Vibrational             33.245              7.251              9.502
 Vibration     1          0.593              1.985              6.441
 Vibration     2          0.699              1.655              1.363
 Vibration     3          0.744              1.527              1.067

                           ! Non-Optimized Parameters !
 Normal termination of Gaussian 16 at Wed Oct  7 14:36:55 2020.
