 Gaussian 16, Revision A.03,

 ----------------------------------------------------------------------
 #P Opt(TS,MaxCyc=50,NoEigenTest,MaxStep=10,AddRedundant) PBE1PBE/6-31G
 * 5D 7F Integral=UltraFineGrid SCF=(NoSymm,XQC,MaxCyc=120) EmpiricalDi
 spersion=GD3BJ IOp(1/33=1)
 ----------------------------------------------------------------------

 TstMul:  Mul=     3
 TstMul:  ICh=     0
 TstMul:  Mul=     3
 Symbolic Z-matrix:
 Charge =  0 Multiplicity = 3

 SCF Done:  E(UPBE1PBE) =  -76.1321051176     A.U. after   12 cycles
 SCF Done:  E(UPBE1PBE) =  -76.1321631640     A.U. after    9 cycles
 SCF Done:  E(UPBE1PBE) =  -76.1324764833     A.U. after   12 cycles
 SCF Done:  E(UPBE1PBE) =  -76.1320862168     A.U. after   12 cycles
 SCF Done:  E(UPBE1PBE) =  -76.1320381600     A.U. after   12 cycles
 SCF Done:  E(UPBE1PBE) =  -76.1320400536     A.U. after    8 cycles
 Optimization completed.
    -- Stationary point found.
 Normal termination of Gaussian 16 at Wed Oct  7 14:35:09 2020.
 Gaussian 16:  ES64L-G16RevA.03 25-Dec-2016

 ----------------------------------------------------------------------
 #P Freq PBE1PBE/6-31G* 5D 7F Integral=UltraFineGrid SCF=(NoSymm,XQC,Ma
 xCyc=120) EmpiricalDispersion=GD3BJ IOp(1/33=1) Geom=Check Guess=Read
 ----------------------------------------------------------------------

 TstMul:  Mul=     3
 TstMul:  ICh=     0
 TstMul:  Mul=     3
 Structure from the checkpoint file:  "MN_89_RKT14_BH76_PBE0DBJ_631Gs.chk"
 Charge =  0 Multiplicity = 3

                         Standard orientation:
 ---------------------------------------------------------------------
 Center     Atomic      Atomic             Coordinates (Angstroms)
 Number     Number       Type             X           Y           Z
 ---------------------------------------------------------------------
      1          1           0        0.000000    0.000000   -0.840085
      2          8           0        0.000000    0.000000    0.327909
      3          1           0        0.000000    0.000000   -1.783184
 ---------------------------------------------------------------------

 SCF Done:  E(UPBE1PBE) =  -76.1320400536     A.U. after    1 cycles

 Unable to determine electronic state:  partially filled degenerate orbitals.
 Alpha  occ. eigenvalues --  -19.31270  -1.03361  -0.54921  -0.44094  -0.35915
 Alpha  occ. eigenvalues --   -0.34337
 Alpha virt. eigenvalues --    0.18591   0.64124   0.80404   0.82464   0.87660
 Alpha virt. eigenvalues --    0.94848   1.38432   1.68759   1.73921   1.74854
 Alpha virt. eigenvalues --    1.74900   2.19925
  Beta  occ. eigenvalues --  -19.27182  -0.91081  -0.46005  -0.31836
  Beta virt. eigenvalues --   -0.13802  -0.13175   0.23978   0.67459   0.88432
  Beta virt. eigenvalues --    0.90052   0.94461   1.00409   1.45435   1.78019
  Beta virt. eigenvalues --    1.79818   1.82279   1.83468   2.26189

 Mulliken charges and spin densities:
               1          2
     1  H    0.222272  -0.123548
     2  O   -0.260985   1.516361
     3  H    0.038713   0.607187
 Sum of Mulliken charges =   0.00000   2.00000

 Dipole moment (field-independent basis, Debye):
    X=              0.0000    Y=              0.0000    Z=             -1.1838  Tot=              1.1838
 Quadrupole moment (field-independent basis, Debye-Ang):
   XX=             -7.7214   YY=             -6.5735   ZZ=             -6.1181
   XY=             -0.0000   XZ=              0.0000   YZ=             -0.0000

  Exact polarizability:   2.296   0.000   2.652   0.000   0.000  20.597
 Approx polarizability:   2.341   0.000   3.035   0.000   0.000  24.988

 ******    1 imaginary frequencies (negative Signs) ******

                      1                      2                      3
                     SG                     PI                     PI
 Frequencies --  -1517.2828               530.9529               903.5260
 Red. masses --      1.0409                 1.0169                 1.0169
 Frc consts  --      1.4119                 0.1689                 0.4891
 IR Inten    --    388.8550                16.5945                13.0702

                      4
                     SG
 Frequencies --   1573.4110
 Red. masses --      1.0873
 Frc consts  --      1.5859
 IR Inten    --     41.5801

 - Thermochemistry -
 -------------------
 Temperature   298.150 Kelvin.  Pressure   1.00000 Atm.
 Atom     1 has atomic number  1 and mass   1.00783

 Molecular mass:    18.01056 amu.
 Principal axes and moments of inertia in atomic units:
                           1         2         3
     Eigenvalues --     0.00000  18.78411  18.78411
           X            0.00000   0.00000   1.00000
           Y            0.00000   1.00000   0.00000
           Z            1.00000   0.00000   0.00000
 This molecule is a prolate symmetric top.
 Rotational symmetry number  1.
 Rotational temperature (Kelvin)      4.61102
 Rotational constant (GHZ):          96.078078
    1 imaginary frequencies ignored.
 Zero-point vibrational energy      17991.2 (Joules/Mol)
                                    4.29999 (Kcal/Mol)
 Warning -- explicit consideration of   1 degrees of freedom as
           vibrations may cause significant error
 Vibrational temperatures:    763.92  1299.97  2263.79
          (Kelvin)

 Zero-point correction=                           0.006852 (Hartree/Particle)
 Thermal correction to Energy=                    0.009472
 Thermal correction to Enthalpy=                  0.010416
 Thermal correction to Gibbs Free Energy=        -0.012293
 Sum of electronic and zero-point Energies=            -76.125188
 Sum of electronic and thermal Energies=               -76.122568
 Sum of electronic and thermal Enthalpies=             -76.121624
 Sum of electronic and thermal Free Energies=          -76.144333

                     E (Thermal)             CV                S
                      KCal/Mol        Cal/Mol-Kelvin    Cal/Mol-Kelvin
 Total                    5.944              6.703             47.795
 Electronic               0.000              0.000              2.183
 Translational            0.889              2.981             34.608
 Rotational               0.592              1.987             10.272
 Vibrational              4.463              1.735              0.731
 Vibration     1          0.886              1.182              0.585

 Optimization completed.
    -- Stationary point found.
 Normal termination of Gaussian 16 at Wed Oct  7 14:35:27 2020.
