 Gaussian 16, Revision A.03,

 ----------------------------------------------------------------------
 #P Opt(TS,MaxCyc=50,NoEigenTest,MaxStep=10,AddRedundant) PBE1PBE/6-31G
 * 5D 7F Integral=UltraFineGrid SCF=(NoSymm,XQC,MaxCyc=120) EmpiricalDi
 spersion=GD3BJ IOp(1/33=1)
 ----------------------------------------------------------------------

 TstMul:  Mul=     2
 TstMul:  ICh=     0
 TstMul:  Mul=     2
 Symbolic Z-matrix:
 Charge =  0 Multiplicity = 2

 SCF Done:  E(UPBE1PBE) =  -155.361593294     A.U. after   17 cycles
 SCF Done:  E(UPBE1PBE) =  -155.361748147     A.U. after   15 cycles
 SCF Done:  E(UPBE1PBE) =  -155.361819716     A.U. after   17 cycles
 SCF Done:  E(UPBE1PBE) =  -155.361848249     A.U. after   14 cycles
 SCF Done:  E(UPBE1PBE) =  -155.361842334     A.U. after   14 cycles
 SCF Done:  E(UPBE1PBE) =  -155.361839707     A.U. after   18 cycles
 SCF Done:  E(UPBE1PBE) =  -155.361867919     A.U. after   14 cycles
 SCF Done:  E(UPBE1PBE) =  -155.361872268     A.U. after   14 cycles
 SCF Done:  E(UPBE1PBE) =  -155.361883810     A.U. after   15 cycles
 SCF Done:  E(UPBE1PBE) =  -155.361873148     A.U. after   15 cycles
 SCF Done:  E(UPBE1PBE) =  -155.361913314     A.U. after   20 cycles
 SCF Done:  E(UPBE1PBE) =  -155.361938146     A.U. after   18 cycles
 SCF Done:  E(UPBE1PBE) =  -155.361925788     A.U. after   15 cycles
 SCF Done:  E(UPBE1PBE) =  -155.361951789     A.U. after   15 cycles
 SCF Done:  E(UPBE1PBE) =  -155.361956942     A.U. after   16 cycles
 SCF Done:  E(UPBE1PBE) =  -155.361959312     A.U. after   12 cycles
 SCF Done:  E(UPBE1PBE) =  -155.361960288     A.U. after   14 cycles
 SCF Done:  E(UPBE1PBE) =  -155.361960367     A.U. after   12 cycles
 SCF Done:  E(UPBE1PBE) =  -155.361960317     A.U. after   12 cycles
 Optimization completed.
    -- Stationary point found.
 Normal termination of Gaussian 16 at Wed Oct  7 14:40:26 2020.
 Gaussian 16:  ES64L-G16RevA.03 25-Dec-2016

 ----------------------------------------------------------------------
 #P Freq PBE1PBE/6-31G* 5D 7F Integral=UltraFineGrid SCF=(NoSymm,XQC,Ma
 xCyc=120) EmpiricalDispersion=GD3BJ IOp(1/33=1) Geom=Check Guess=Read
 ----------------------------------------------------------------------

 TstMul:  Mul=     2
 TstMul:  ICh=     0
 TstMul:  Mul=     2
 Structure from the checkpoint file:  "MN_85_RKT09_BH76_PBE0DBJ_631Gs.chk"
 Charge =  0 Multiplicity = 2

                         Standard orientation:
 ---------------------------------------------------------------------
 Center     Atomic      Atomic             Coordinates (Angstroms)
 Number     Number       Type             X           Y           Z
 ---------------------------------------------------------------------
      1          6           0        1.426912   -0.466058    0.015646
      2          6           0        0.480006    0.706350   -0.010640
      3          8           0       -1.854526   -0.253406   -0.101362
      4          1           0        1.206389   -1.139633    0.849989
      5          1           0        1.367624   -1.046533   -0.910241
      6          1           0        2.464776   -0.124912    0.129321
      7          1           0        0.457090    1.284438    0.917828
      8          1           0        0.606536    1.371677   -0.869718
      9          1           0       -0.643100    0.272675   -0.160539
     10          1           0       -2.064613   -0.032215    0.824220
 ---------------------------------------------------------------------

 SCF Done:  E(UPBE1PBE) =  -155.361960317     A.U. after    1 cycles

 The electronic state is 2-A.
 Alpha  occ. eigenvalues --  -19.22855 -10.23964 -10.22253  -1.00498  -0.79233
 Alpha  occ. eigenvalues --   -0.64744  -0.50085  -0.46529  -0.43877  -0.41060
 Alpha  occ. eigenvalues --   -0.39269  -0.36712  -0.30608  -0.27698
 Alpha virt. eigenvalues --    0.09716   0.13245   0.15888   0.16292   0.18124
 Alpha virt. eigenvalues --    0.19764   0.24125   0.30530   0.51015   0.54498
 Alpha virt. eigenvalues --    0.56239   0.62507   0.64539   0.69031   0.83343

  Beta  occ. eigenvalues --  -19.21002 -10.23183 -10.22273  -0.95552  -0.78094
  Beta  occ. eigenvalues --   -0.63440  -0.47066  -0.45955  -0.42392  -0.39446
  Beta  occ. eigenvalues --   -0.36492  -0.35643  -0.28769
  Beta virt. eigenvalues --   -0.10881   0.10243   0.13662   0.16306   0.16620
  Beta virt. eigenvalues --    0.18415   0.20116   0.24704   0.32796   0.51339
  Beta virt. eigenvalues --    0.54740   0.57034   0.64867   0.65223   0.69538

 Mulliken charges and spin densities:
               1          2
     1  C   -0.518127  -0.019917
     2  C   -0.543157   0.439563
     3  O   -0.630898   0.664970
     4  H    0.186433   0.004395
     5  H    0.194033   0.003337
     6  H    0.184915   0.025010
     7  H    0.186320  -0.013895
     8  H    0.200615  -0.008113
     9  H    0.336994  -0.077278
    10  H    0.402871  -0.018071
 Sum of Mulliken charges =   0.00000   1.00000

 Dipole moment (field-independent basis, Debye):
    X=              1.2648    Y=              0.7930    Z=              1.4670  Tot=              2.0930
 Quadrupole moment (field-independent basis, Debye-Ang):
   XX=            -21.6440   YY=            -20.8921   ZZ=            -18.9875
   XY=             -0.8671   XZ=             -3.5399   YZ=             -0.0378

  Exact polarizability:  49.201   4.950  27.372  -1.406   0.414  27.147
 Approx polarizability:  56.616   8.261  33.206  -0.503   1.135  34.698

 ******    1 imaginary frequencies (negative Signs) ******

                      1                      2                      3
                      A                      A                      A
 Frequencies --   -851.5777                57.7553               109.5027
 Red. masses --      1.3053                 1.0788                 2.8269
 Frc consts  --      0.5577                 0.0021                 0.0200
 IR Inten    --    704.6073                87.4850                17.0474

                      4                      5                      6
                      A                      A                      A
 Frequencies --    176.1494               391.7024               762.9814
 Red. masses --      1.1070                 1.1019                 1.4019
 Frc consts  --      0.0202                 0.0996                 0.4808
 IR Inten    --      5.9614                 6.0343                36.5603

                      7                      8                      9
                      A                      A                      A
 Frequencies --    801.9347               881.9440               978.9655
 Red. masses --      1.1700                 1.1546                 1.3939
 Frc consts  --      0.4433                 0.5292                 0.7871
 IR Inten    --     36.9956                65.5434               447.3244

                     10                     11                     12
                      A                      A                      A
 Frequencies --   1054.1579              1152.3801              1243.1954
 Red. masses --      2.4590                 1.3767                 1.4034
 Frc consts  --      1.6100                 1.0772                 1.2779
 IR Inten    --      3.9983                 6.8323                 1.2029

                     13                     14                     15
                      A                      A                      A
 Frequencies --   1311.7239              1430.7932              1470.3711
 Red. masses --      1.1996                 1.2191                 1.0307
 Frc consts  --      1.2162                 1.4704                 1.3129
 IR Inten    --     12.4481                 3.1911                17.4221

                     16                     17                     18
                      A                      A                      A
 Frequencies --   1495.3764              1514.6294              1522.6305
 Red. masses --      1.1325                 1.0403                 1.0487
 Frc consts  --      1.4920                 1.4061                 1.4325
 IR Inten    --      7.8667                 9.4575                 4.7421

                     19                     20                     21
                      A                      A                      A
 Frequencies --   3062.0042              3110.0109              3136.6138
 Red. masses --      1.0408                 1.0573                 1.0939
 Frc consts  --      5.7495                 6.0252                 6.3409
 IR Inten    --     14.7103                12.5573                20.5970

                     22                     23                     24
                      A                      A                      A
 Frequencies --   3158.0073              3187.7620              3741.9124
 Red. masses --      1.1034                 1.1074                 1.0666
 Frc consts  --      6.4834                 6.6305                 8.7995
 IR Inten    --      4.6072                29.1457                19.6981

 - Thermochemistry -
 -------------------
 Temperature   298.150 Kelvin.  Pressure   1.00000 Atm.
 Atom     1 has atomic number  6 and mass  12.00000

 Molecular mass:    47.04969 amu.
 Principal axes and moments of inertia in atomic units:
                           1         2         3
     Eigenvalues --    70.24885 360.07889 401.53193
           X            0.99963  -0.02164  -0.01647
           Y            0.02153   0.99975  -0.00664
           Z            0.01661   0.00628   0.99984
 This molecule is an asymmetric top.
 Rotational symmetry number  1.
 Rotational temperatures (Kelvin)      1.23296     0.24054     0.21571
 Rotational constants (GHZ):          25.69069     5.01207     4.49464
    1 imaginary frequencies ignored.
 Zero-point vibrational energy     213847.5 (Joules/Mol)
                                   51.11077 (Kcal/Mol)
 Warning -- explicit consideration of   4 degrees of freedom as
           vibrations may cause significant error
 Vibrational temperatures:     83.10   157.55   253.44   563.57  1097.76
          (Kelvin)           1153.81  1268.92  1408.51  1516.70  1658.02
                             1788.68  1887.28  2058.59  2115.54  2151.51
                             2179.21  2190.73  4405.54  4474.61  4512.89
                             4543.67  4586.48  5383.78

 Zero-point correction=                           0.081450 (Hartree/Particle)
 Thermal correction to Energy=                    0.087101
 Thermal correction to Enthalpy=                  0.088045
 Thermal correction to Gibbs Free Energy=         0.052505
 Sum of electronic and zero-point Energies=           -155.280510
 Sum of electronic and thermal Energies=              -155.274859
 Sum of electronic and thermal Enthalpies=            -155.273915
 Sum of electronic and thermal Free Energies=         -155.309455

                     E (Thermal)             CV                S
                      KCal/Mol        Cal/Mol-Kelvin    Cal/Mol-Kelvin
 Total                   54.657             16.800             74.800
 Electronic               0.000              0.000              1.377
 Translational            0.889              2.981             37.471
 Rotational               0.889              2.981             23.833
 Vibrational             52.879             10.839             12.119
 Vibration     1          0.596              1.974              4.532
 Vibration     2          0.606              1.942              3.278
 Vibration     3          0.628              1.872              2.369
 Vibration     4          0.759              1.488              0.994

                           ! Non-Optimized Parameters !
 Normal termination of Gaussian 16 at Wed Oct  7 14:41:09 2020.
