 Gaussian 16, Revision A.03,

 ----------------------------------------------------------------------
 #P Opt(TS,MaxCyc=50,NoEigenTest,MaxStep=10,AddRedundant) PBE1PBE/6-31G
 * 5D 7F Integral=UltraFineGrid SCF=(NoSymm,XQC,MaxCyc=120) EmpiricalDi
 spersion=GD3BJ IOp(1/33=1)
 ----------------------------------------------------------------------

 TstMul:  Mul=     2
 TstMul:  ICh=     0
 TstMul:  Mul=     2
 Symbolic Z-matrix:
 Charge =  0 Multiplicity = 2

 SCF Done:  E(UPBE1PBE) =  -40.9358464324     A.U. after   13 cycles
 SCF Done:  E(UPBE1PBE) =  -40.9360511860     A.U. after   11 cycles
 SCF Done:  E(UPBE1PBE) =  -40.9356984875     A.U. after   12 cycles
 SCF Done:  E(UPBE1PBE) =  -40.9355344269     A.U. after   12 cycles
 SCF Done:  E(UPBE1PBE) =  -40.9355691917     A.U. after    9 cycles
 SCF Done:  E(UPBE1PBE) =  -40.9355802858     A.U. after    9 cycles
 SCF Done:  E(UPBE1PBE) =  -40.9355808917     A.U. after    8 cycles
 Optimization completed.
    -- Stationary point found.
 Normal termination of Gaussian 16 at Wed Oct  7 14:34:48 2020.
 Gaussian 16:  ES64L-G16RevA.03 25-Dec-2016

 ----------------------------------------------------------------------
 #P Freq PBE1PBE/6-31G* 5D 7F Integral=UltraFineGrid SCF=(NoSymm,XQC,Ma
 xCyc=120) EmpiricalDispersion=GD3BJ IOp(1/33=1) Geom=Check Guess=Read
 ----------------------------------------------------------------------

 TstMul:  Mul=     2
 TstMul:  ICh=     0
 TstMul:  Mul=     2
 Structure from the checkpoint file:  "MN_80_RKT03_BH76_PBE0DBJ_631Gs.chk"
 Charge =  0 Multiplicity = 2

                         Standard orientation:
 ---------------------------------------------------------------------
 Center     Atomic      Atomic             Coordinates (Angstroms)
 Number     Number       Type             X           Y           Z
 ---------------------------------------------------------------------
      1          6           0        0.000000    0.279226    0.000000
      2          1           0        1.061774    0.515132    0.000000
      3          1           0       -0.531181    0.514122    0.919637
      4          1           0       -0.531181    0.514122   -0.919637
      5          1           0        0.000059   -1.170755    0.000000
      6          1           0        0.000528   -2.047978    0.000000
 ---------------------------------------------------------------------

 SCF Done:  E(UPBE1PBE) =  -40.9355808917     A.U. after    1 cycles

 The electronic state is 2-A'.
 Alpha  occ. eigenvalues --  -10.23653  -0.72233  -0.45892  -0.42804  -0.42802
 Alpha  occ. eigenvalues --   -0.22365
 Alpha virt. eigenvalues --    0.12792   0.18313   0.18314   0.20601   0.54374
 Alpha virt. eigenvalues --    0.54375   0.57477   0.71197   0.92145   0.92148
 Alpha virt. eigenvalues --    0.94895   1.03716   1.21526   1.64137   1.64137

  Beta  occ. eigenvalues --  -10.22387  -0.68977  -0.41945  -0.41942  -0.41402
  Beta virt. eigenvalues --   -0.05966   0.13816   0.19049   0.19050   0.24365
  Beta virt. eigenvalues --    0.54981   0.54982   0.63359   0.74870   0.92917
  Beta virt. eigenvalues --    0.92920   0.97043   1.04857   1.24377   1.68940

 Mulliken charges and spin densities:
               1          2
     1  C   -0.602441   0.785025
     2  H    0.203558  -0.028740
     3  H    0.203562  -0.028733
     4  H    0.203562  -0.028733
     5  H   -0.012917  -0.170439
     6  H    0.004676   0.471619
 Sum of Mulliken charges =  -0.00000   1.00000

 Dipole moment (field-independent basis, Debye):
    X=             -0.0004    Y=              0.7279    Z=              0.0000  Tot=              0.7279
 Quadrupole moment (field-independent basis, Debye-Ang):
   XX=             -9.2029   YY=            -11.1609   ZZ=             -9.2033
   XY=              0.0012   XZ=              0.0000   YZ=              0.0000

  Exact polarizability:  12.228  -0.003  28.137  -0.000   0.000  12.228
 Approx polarizability:  13.861  -0.002  31.807   0.000  -0.000  13.861

 ******    1 imaginary frequencies (negative Signs) ******

                      1                      2                      3
                     A'                     A'                     A"
 Frequencies --  -1049.6417               560.5167               560.7208
 Red. masses --      1.1895                 1.0463                 1.0463
 Frc consts  --      0.7721                 0.1937                 0.1938
 IR Inten    --      4.8920                 2.0427                 2.0452

                      4                      5                      6
                     A'                     A'                     A"
 Frequencies --   1053.7162              1153.0725              1153.0897
 Red. masses --      1.0790                 1.0423                 1.0424
 Frc consts  --      0.7058                 0.8165                 0.8166
 IR Inten    --     11.9063                 0.4700                 0.4739

                      7                      8                      9
                     A"                     A'                     A'
 Frequencies --   1451.0013              1451.0610              2080.6672
 Red. masses --      1.0786                 1.0786                 1.0542
 Frc consts  --      1.3379                 1.3381                 2.6890
 IR Inten    --      4.6726                 4.6688                34.0316

                     10                     11                     12
                     A'                     A"                     A'
 Frequencies --   3126.7361              3282.3586              3282.5638
 Red. masses --      1.0162                 1.1131                 1.1132
 Frc consts  --      5.8535                 7.0660                 7.0670
 IR Inten    --      0.1037                 7.4427                 7.4330

 - Thermochemistry -
 -------------------
 Temperature   298.150 Kelvin.  Pressure   1.00000 Atm.
 Atom     1 has atomic number  6 and mass  12.00000

 Molecular mass:    17.03913 amu.
 Principal axes and moments of inertia in atomic units:
                           1         2         3
     Eigenvalues --    12.17594  31.73530  31.73604
           X           -0.00007   1.00000   0.00000
           Y            1.00000   0.00007   0.00000
           Z            0.00000   0.00000   1.00000
 This molecule is an asymmetric top.
 Rotational symmetry number  1.
 Rotational temperatures (Kelvin)      7.11353     2.72926     2.72920
 Rotational constants (GHZ):         148.22197    56.86857    56.86724
    1 imaginary frequencies ignored.
 Zero-point vibrational energy     114575.4 (Joules/Mol)
                                   27.38417 (Kcal/Mol)
 Warning -- explicit consideration of   2 degrees of freedom as
           vibrations may cause significant error
 Vibrational temperatures:    806.46   806.75  1516.06  1659.01  1659.04
          (Kelvin)           2087.67  2087.75  2993.62  4498.68  4722.58
                             4722.88

 Zero-point correction=                           0.043639 (Hartree/Particle)
 Thermal correction to Energy=                    0.046921
 Thermal correction to Enthalpy=                  0.047865
 Thermal correction to Gibbs Free Energy=         0.022099
 Sum of electronic and zero-point Energies=            -40.891941
 Sum of electronic and thermal Energies=               -40.888660
 Sum of electronic and thermal Enthalpies=             -40.887716
 Sum of electronic and thermal Free Energies=          -40.913482

                     E (Thermal)             CV                S
                      KCal/Mol        Cal/Mol-Kelvin    Cal/Mol-Kelvin
 Total                   29.443              9.178             54.228
 Electronic               0.000              0.000              1.377
 Translational            0.889              2.981             34.443
 Rotational               0.889              2.981             17.157
 Vibrational             27.666              3.217              1.251
 Vibration     1          0.916              1.117              0.523
 Vibration     2          0.916              1.116              0.522

 Optimization completed.
    -- Stationary point found.
 Normal termination of Gaussian 16 at Wed Oct  7 14:35:10 2020.
