 Gaussian 16, Revision A.03,

 ----------------------------------------------------------------------
 #P Opt(TS,MaxCyc=50,NoEigenTest,MaxStep=10,AddRedundant) PBE1PBE/6-31G
 * 5D 7F Integral=UltraFineGrid SCF=(NoSymm,XQC,MaxCyc=120) EmpiricalDi
 spersion=GD3BJ IOp(1/33=1)
 ----------------------------------------------------------------------

 TstMul:  Mul=     2
 TstMul:  ICh=     0
 TstMul:  Mul=     2
 Symbolic Z-matrix:
 Charge =  0 Multiplicity = 2

 SCF Done:  E(UPBE1PBE) =  -1.65360532268     A.U. after    9 cycles
 SCF Done:  E(UPBE1PBE) =  -1.65361364288     A.U. after    7 cycles
 Optimization completed.
    -- Stationary point found.
 Normal termination of Gaussian 16 at Wed Oct  7 14:33:58 2020.
 Gaussian 16:  ES64L-G16RevA.03 25-Dec-2016

 ----------------------------------------------------------------------
 #P Freq PBE1PBE/6-31G* 5D 7F Integral=UltraFineGrid SCF=(NoSymm,XQC,Ma
 xCyc=120) EmpiricalDispersion=GD3BJ IOp(1/33=1) Geom=Check Guess=Read
 ----------------------------------------------------------------------

 TstMul:  Mul=     2
 TstMul:  ICh=     0
 TstMul:  Mul=     2
 Structure from the checkpoint file:  "MN_82_RKT06_BH76_PBE0DBJ_631Gs.chk"
 Charge =  0 Multiplicity = 2

                         Standard orientation:
 ---------------------------------------------------------------------
 Center     Atomic      Atomic             Coordinates (Angstroms)
 Number     Number       Type             X           Y           Z
 ---------------------------------------------------------------------
      1          1           0        0.000000    0.000000    0.000000
      2          1           0        0.000000    0.000000    0.932433
      3          1           0        0.000000    0.000000   -0.932433
 ---------------------------------------------------------------------

 SCF Done:  E(UPBE1PBE) =  -1.65361364288     A.U. after    1 cycles

 The electronic state is 2-SGU.
 Alpha  occ. eigenvalues --   -0.52255  -0.26524
 Alpha virt. eigenvalues --    0.15975   0.69070   0.76897   1.04749
  Beta  occ. eigenvalues --   -0.46704
  Beta virt. eigenvalues --   -0.07771   0.21408   0.73854   0.86114   1.08885

 Mulliken charges and spin densities:
               1          2
     1  H   -0.124818  -0.218949
     2  H    0.062409   0.609475
     3  H    0.062409   0.609475
 Sum of Mulliken charges =  -0.00000   1.00000

 Dipole moment (field-independent basis, Debye):
    X=              0.0000    Y=              0.0000    Z=              0.0000  Tot=              0.0000
 Quadrupole moment (field-independent basis, Debye-Ang):
   XX=             -3.3213   YY=             -3.3213   ZZ=             -3.3009
   XY=              0.0000   XZ=             -0.0000   YZ=              0.0000

  Exact polarizability:   0.000   0.000   0.000  -0.000   0.000  18.505
 Approx polarizability:   0.000  -0.000  -0.000  -0.000  -0.000  21.451

 ******    1 imaginary frequencies (negative Signs) ******

                      1                      2                      3
                     SGU                    PIU                    PIU
 Frequencies --   -983.5232              1096.7657              1096.7657
 Red. masses --      1.0078                 1.0078                 1.0078
 Frc consts  --      0.5744                 0.7143                 0.7143
 IR Inten    --     87.1411                12.7821                12.7821

                      4
                     SGG
 Frequencies --   2090.6465
 Red. masses --      1.0078
 Frc consts  --      2.5954
 IR Inten    --      0.0000

 - Thermochemistry -
 -------------------
 Temperature   298.150 Kelvin.  Pressure   1.00000 Atm.
 Atom     1 has atomic number  1 and mass   1.00783

 Molecular mass:     3.02348 amu.
 Principal axes and moments of inertia in atomic units:
                           1         2         3
     Eigenvalues --     0.00000   6.25819   6.25819
           X           -0.00000   1.00000   0.00000
           Y            0.00000   0.00000   1.00000
           Z            1.00000   0.00000   0.00000
 This molecule is a prolate symmetric top.
 Rotational symmetry number  2.
 Rotational temperature (Kelvin)     13.84010
 Rotational constant (GHZ):         288.380852
    1 imaginary frequencies ignored.
 Zero-point vibrational energy      25625.1 (Joules/Mol)
                                    6.12454 (Kcal/Mol)
 Vibrational temperatures:   1578.00  1578.00  3007.97
          (Kelvin)

 Zero-point correction=                           0.009760 (Hartree/Particle)
 Thermal correction to Energy=                    0.012171
 Thermal correction to Enthalpy=                  0.013116
 Thermal correction to Gibbs Free Energy=        -0.004704
 Sum of electronic and zero-point Energies=             -1.643854
 Sum of electronic and thermal Energies=                -1.641442
 Sum of electronic and thermal Enthalpies=              -1.640498
 Sum of electronic and thermal Free Energies=           -1.658317

                     E (Thermal)             CV                S
                      KCal/Mol        Cal/Mol-Kelvin    Cal/Mol-Kelvin
 Total                    7.638              5.542             37.504
 Electronic               0.000              0.000              1.377
 Translational            0.889              2.981             29.289
 Rotational               0.592              1.987              6.711
 Vibrational              6.156              0.574              0.127

 Optimization completed.
    -- Stationary point found.

 1\1\GINC-NODE40\Freq\UPBE1PBE\6-31G(d)\H3(2)\RPEVERATI\07-Oct-2020\0\\
 #P Freq PBE1PBE/6-31G* 5D 7F Integral=UltraFineGrid SCF=(NoSymm,XQC,Ma
 xCyc=120) EmpiricalDispersion=GD3BJ IOp(1/33=1) Geom=Check Guess=Read\
 \TS search on BH76.\\0,2\H,0.,0.,0.\H,0.,0.,0.9324333959\H,0.,0.,-0.93
 24333959\\Version=ES64L-G16RevA.03\State=2-SGU\HF=-1.6536136\S2=0.7616
 53\S2-1=0.\S2A=0.75\RMSD=0.000e+00\RMSF=1.297e-04\ZeroPoint=0.0097601\
 Thermal=0.0121714\Dipole=0.,0.,0.\DipoleDeriv=-0.0938584,0.,0.,0.,-0.0
 938584,0.,0.,0.,0.2450659,0.0469292,0.,0.,0.,0.0469292,0.,0.,0.,-0.122

 Normal termination of Gaussian 16 at Wed Oct  7 14:34:14 2020.
