 Gaussian 16, Revision A.03,

 ----------------------------------------------------------------------
 #P Opt(TS,MaxCyc=50,NoEigenTest,MaxStep=10,AddRedundant) PBE1PBE/6-31G
 * 5D 7F Integral=UltraFineGrid SCF=(NoSymm,XQC,MaxCyc=120) EmpiricalDi
 spersion=GD3BJ IOp(1/33=1)
 ----------------------------------------------------------------------

 TstMul:  Mul=     3
 TstMul:  ICh=     0
 TstMul:  Mul=     3
 Symbolic Z-matrix:
 Charge =  0 Multiplicity = 3

 SCF Done:  E(UPBE1PBE) =  -535.602060719     A.U. after   23 cycles
 SCF Done:  E(UPBE1PBE) =  -535.601916566     A.U. after   17 cycles
 SCF Done:  E(UPBE1PBE) =  -535.601952910     A.U. after   18 cycles
 SCF Done:  E(UPBE1PBE) =  -535.601816032     A.U. after   19 cycles
 SCF Done:  E(UPBE1PBE) =  -535.602335064     A.U. after   19 cycles
 SCF Done:  E(UPBE1PBE) =  -535.601569256     A.U. after   17 cycles
 SCF Done:  E(UPBE1PBE) =  -535.601286781     A.U. after   20 cycles
 SCF Done:  E(UPBE1PBE) =  -535.601322108     A.U. after   14 cycles
 SCF Done:  E(UPBE1PBE) =  -535.601323687     A.U. after   12 cycles
 Optimization completed.
    -- Stationary point found.
 Normal termination of Gaussian 16 at Wed Oct  7 14:35:47 2020.
 Gaussian 16:  ES64L-G16RevA.03 25-Dec-2016

 ----------------------------------------------------------------------
 #P Freq PBE1PBE/6-31G* 5D 7F Integral=UltraFineGrid SCF=(NoSymm,XQC,Ma
 xCyc=120) EmpiricalDispersion=GD3BJ IOp(1/33=1) Geom=Check Guess=Read
 ----------------------------------------------------------------------

 TstMul:  Mul=     3
 TstMul:  ICh=     0
 TstMul:  Mul=     3
 Structure from the checkpoint file:  "MN_91_RKT17_BH76_PBE0DBJ_631Gs.chk"
 Charge =  0 Multiplicity = 3

                         Standard orientation:
 ---------------------------------------------------------------------
 Center     Atomic      Atomic             Coordinates (Angstroms)
 Number     Number       Type             X           Y           Z
 ---------------------------------------------------------------------
      1         17           0        0.019542   -0.824265    0.000000
      2          1           0       -0.488553    0.509348    0.000000
      3          8           0        0.019542    1.687894    0.000000
 ---------------------------------------------------------------------

 SCF Done:  E(UPBE1PBE) =  -535.601323687     A.U. after    1 cycles

 The electronic state is 3-A".
 Alpha  occ. eigenvalues -- -101.71128 -19.39400  -9.54364  -7.28073  -7.26950
 Alpha  occ. eigenvalues --   -7.26873  -1.09764  -0.86513  -0.56949  -0.50653
 Alpha  occ. eigenvalues --   -0.45357  -0.38712  -0.35256  -0.35059
 Alpha virt. eigenvalues --    0.08604   0.39435   0.44628   0.44826   0.45868
 Alpha virt. eigenvalues --    0.61951   0.76961   0.80934   0.85898   0.86182
 Alpha virt. eigenvalues --    0.86766   0.87212   0.92630   1.06416   1.25620

  Beta  occ. eigenvalues -- -101.70835 -19.34681  -9.54084  -7.27264  -7.26680
  Beta  occ. eigenvalues --   -7.26646  -0.96223  -0.83581  -0.50612  -0.36529
  Beta  occ. eigenvalues --   -0.34480  -0.34462
  Beta virt. eigenvalues --   -0.20426  -0.18770   0.10488   0.40200   0.45324
  Beta virt. eigenvalues --    0.45391   0.47930   0.64869   0.83752   0.83795
  Beta virt. eigenvalues --    0.87272   0.87363   0.90008   0.93227   0.98543

 Mulliken charges and spin densities:
               1          2
     1  Cl  -0.236511   0.340001
     2  H    0.347172  -0.050167
     3  O   -0.110661   1.710166
 Sum of Mulliken charges =  -0.00000   2.00000

 Dipole moment (field-independent basis, Debye):
    X=             -0.7230    Y=              1.1411    Z=              0.0000  Tot=              1.3508
 Quadrupole moment (field-independent basis, Debye-Ang):
   XX=            -18.8939   YY=            -18.2041   ZZ=            -18.4874
   XY=             -0.7252   XZ=              0.0000   YZ=              0.0000

  Exact polarizability:   9.419  -1.243  50.002   0.000   0.000   8.424
 Approx polarizability:  11.425  -1.402  74.643   0.000  -0.000  10.065

 ******    1 imaginary frequencies (negative Signs) ******

                      1                      2                      3
                     A'                     A'                     A'
 Frequencies --  -1294.7944               312.6611              1371.1838
 Red. masses --      1.0922                 5.5173                 1.1166
 Frc consts  --      1.0788                 0.3178                 1.2369
 IR Inten    --    114.6824                13.2694                54.2811

 - Thermochemistry -
 -------------------
 Temperature   298.150 Kelvin.  Pressure   1.00000 Atm.
 Atom     1 has atomic number 17 and mass  34.96885

 Molecular mass:    51.97159 amu.
 Principal axes and moments of inertia in atomic units:
                           1         2         3
     Eigenvalues --     0.90724 248.39246 249.29971
           X           -0.00395   0.99999   0.00000
           Y            0.99999   0.00395   0.00000
           Z            0.00000   0.00000   1.00000
 This molecule is an asymmetric top.
 Rotational symmetry number  1.
 Rotational temperatures (Kelvin)     95.46950     0.34870     0.34743
 Rotational constants (GHZ):        1989.26155     7.26568     7.23924
    1 imaginary frequencies ignored.
 Zero-point vibrational energy      10071.6 (Joules/Mol)
                                    2.40718 (Kcal/Mol)
 Warning -- explicit consideration of   1 degrees of freedom as
           vibrations may cause significant error
 Vibrational temperatures:    449.85  1972.83
          (Kelvin)

 Zero-point correction=                           0.003836 (Hartree/Particle)
 Thermal correction to Energy=                    0.007082
 Thermal correction to Enthalpy=                  0.008026
 Thermal correction to Gibbs Free Energy=        -0.020477
 Sum of electronic and zero-point Energies=           -535.597488
 Sum of electronic and thermal Energies=              -535.594242
 Sum of electronic and thermal Enthalpies=            -535.593298
 Sum of electronic and thermal Free Energies=         -535.621800

                     E (Thermal)             CV                S
                      KCal/Mol        Cal/Mol-Kelvin    Cal/Mol-Kelvin
 Total                    4.444              7.728             59.988
 Electronic               0.000              0.000              2.183
 Translational            0.889              2.981             37.767
 Rotational               0.889              2.981             18.669
 Vibrational              2.666              1.766              1.368
 Vibration     1          0.701              1.650              1.348

 Optimization completed.
    -- Stationary point found.
 Normal termination of Gaussian 16 at Wed Oct  7 14:36:04 2020.
