 Gaussian 16, Revision A.03,

 ----------------------------------------------------------------------
 #P Opt(TS,MaxCyc=50,NoEigenTest,MaxStep=10,AddRedundant) PBE1PBE/6-31G
 * 5D 7F Integral=UltraFineGrid SCF=(NoSymm,XQC,MaxCyc=120) EmpiricalDi
 spersion=GD3BJ IOp(1/33=1)
 ----------------------------------------------------------------------

 TstMul:  Mul=     1
 TstMul:  ICh=     0
 TstMul:  Mul=     1
 Symbolic Z-matrix:
 Charge =  0 Multiplicity = 1

 SCF Done:  E(RPBE1PBE) =  -195.006480727     A.U. after   12 cycles
 SCF Done:  E(RPBE1PBE) =  -195.006637283     A.U. after    9 cycles
 SCF Done:  E(RPBE1PBE) =  -195.006622210     A.U. after    8 cycles
 SCF Done:  E(RPBE1PBE) =  -195.006587903     A.U. after    8 cycles
 SCF Done:  E(RPBE1PBE) =  -195.006565296     A.U. after    8 cycles
 SCF Done:  E(RPBE1PBE) =  -195.006505890     A.U. after   11 cycles
 SCF Done:  E(RPBE1PBE) =  -195.006542518     A.U. after   12 cycles
 SCF Done:  E(RPBE1PBE) =  -195.006669923     A.U. after   11 cycles
 SCF Done:  E(RPBE1PBE) =  -195.006713836     A.U. after   12 cycles
 SCF Done:  E(RPBE1PBE) =  -195.006715938     A.U. after    9 cycles
 SCF Done:  E(RPBE1PBE) =  -195.006715746     A.U. after    8 cycles
 Optimization completed.
    -- Stationary point found.
 Normal termination of Gaussian 16 at Wed Oct  7 14:37:37 2020.
 Gaussian 16:  ES64L-G16RevA.03 25-Dec-2016

 ----------------------------------------------------------------------
 #P Freq PBE1PBE/6-31G* 5D 7F Integral=UltraFineGrid SCF=(NoSymm,XQC,Ma
 xCyc=120) EmpiricalDispersion=GD3BJ IOp(1/33=1) Geom=Check Guess=Read
 ----------------------------------------------------------------------

 TstMul:  Mul=     1
 TstMul:  ICh=     0
 TstMul:  Mul=     1
 Structure from the checkpoint file:  "MN_96_RKT22_BH76_PBE0DBJ_631Gs.chk"
 Charge =  0 Multiplicity = 1

                         Standard orientation:
 ---------------------------------------------------------------------
 Center     Atomic      Atomic             Coordinates (Angstroms)
 Number     Number       Type             X           Y           Z
 ---------------------------------------------------------------------
      1          6           0       -1.302891   -0.904358   -0.022058
      2          6           0       -1.206892    0.505515   -0.013302
      3          6           0       -0.000026    1.182564    0.154113
      4          6           0        1.206804    0.505664   -0.013491
      5          6           0        1.302963   -0.904280   -0.021861
      6          1           0        2.174452   -1.329846   -0.522762
      7          1           0        1.054372   -1.452861    0.886454
      8          1           0        2.039960    1.090320   -0.403010
      9          1           0       -0.000109    2.267779    0.089063
     10          1           0       -2.040317    1.090347   -0.401973
     11          1           0       -2.173926   -1.329977   -0.523691
     12          1           0        0.000328   -1.193091   -0.510581
     13          1           0       -1.054508   -1.453297    0.886094
 ---------------------------------------------------------------------

 SCF Done:  E(RPBE1PBE) =  -195.006715746     A.U. after    1 cycles

 The electronic state is 1-A.
 Alpha  occ. eigenvalues --  -10.23417 -10.23416 -10.22541 -10.22346 -10.22345
 Alpha  occ. eigenvalues --   -0.84778  -0.75910  -0.70978  -0.60410  -0.54332
 Alpha  occ. eigenvalues --   -0.50785  -0.43497  -0.42369  -0.41919  -0.39823
 Alpha  occ. eigenvalues --   -0.37204  -0.35759  -0.26617  -0.22777
 Alpha virt. eigenvalues --   -0.01478   0.03946   0.10747   0.14028   0.15709
 Alpha virt. eigenvalues --    0.18783   0.20070   0.20424   0.23368   0.24955
 Alpha virt. eigenvalues --    0.29044   0.30902   0.36364   0.43161   0.52373

 Mulliken charges:
               1
     1  C   -0.557415
     2  C   -0.104036
     3  C   -0.171399
     4  C   -0.104032
     5  C   -0.557460
     6  H    0.175304
     7  H    0.212370
     8  H    0.174584
     9  H    0.161871
    10  H    0.174595
    11  H    0.175297
    12  H    0.207954
    13  H    0.212368
 Sum of Mulliken charges =  -0.00000

 Dipole moment (field-independent basis, Debye):
    X=              0.0001    Y=              0.0181    Z=             -0.1558  Tot=              0.1569
 Quadrupole moment (field-independent basis, Debye-Ang):
   XX=            -29.9498   YY=            -29.6356   ZZ=            -33.6293
   XY=             -0.0012   XZ=             -0.0006   YZ=             -1.4432

  Exact polarizability:  72.952   0.003  62.280  -0.001  -0.533  29.472
 Approx polarizability: 116.566   0.014  99.003  -0.001   3.073  41.761

 ******    1 imaginary frequencies (negative Signs) ******

                      1                      2                      3
                      A                      A                      A
 Frequencies --  -1531.7850               274.0018               471.9478
 Red. masses --      1.1957                 2.1124                 2.3745
 Frc consts  --      1.6530                 0.0934                 0.3116
 IR Inten    --     13.7678                 0.1229                 0.8309

                      4                      5                      6
                      A                      A                      A
 Frequencies --    512.2836               564.0217               623.1949
 Red. masses --      2.4328                 3.5484                 1.3036
 Frc consts  --      0.3762                 0.6651                 0.2983
 IR Inten    --      3.7865                 3.6949                31.0149

                      7                      8                      9
                      A                      A                      A
 Frequencies --    747.8126               806.2784               823.3332
 Red. masses --      1.9801                 1.2422                 1.2577
 Frc consts  --      0.6524                 0.4758                 0.5023
 IR Inten    --     10.1882                 4.2853                48.7340

                     10                     11                     12
                      A                      A                      A
 Frequencies --    985.4323               994.1348              1017.7741
 Red. masses --      1.3027                 1.3069                 1.4783
 Frc consts  --      0.7453                 0.7610                 0.9022
 IR Inten    --     10.9503                 0.5787                18.7956

                     13                     14                     15
                      A                      A                      A
 Frequencies --   1022.2150              1026.1924              1115.2468
 Red. masses --      1.3418                 2.2816                 1.2871
 Frc consts  --      0.8261                 1.4156                 0.9432
 IR Inten    --      0.5205                 0.8847                 3.0276

                     16                     17                     18
                      A                      A                      A
 Frequencies --   1147.5726              1201.6968              1274.7258
 Red. masses --      1.6251                 1.1885                 1.4657
 Frc consts  --      1.2609                 1.0112                 1.4032
 IR Inten    --      1.2346                 4.5874                 7.9066

                     19                     20                     21
                      A                      A                      A
 Frequencies --   1286.6244              1432.4229              1453.6354
 Red. masses --      1.2269                 1.1122                 1.3418
 Frc consts  --      1.1966                 1.3446                 1.6705
 IR Inten    --     11.7552                12.9251                 1.5207

                     22                     23                     24
                      A                      A                      A
 Frequencies --   1489.7154              1542.8769              1566.6361
 Red. masses --      1.0727                 1.4625                 1.3913
 Frc consts  --      1.4025                 2.0512                 2.0119
 IR Inten    --      6.6082                 0.0059                 0.5885

                     25                     26                     27
                      A                      A                      A
 Frequencies --   1593.7678              1628.5887              3136.3818
 Red. masses --      5.5008                 1.9899                 1.0575
 Frc consts  --      8.2324                 3.1095                 6.1292
 IR Inten    --     12.6329                 4.5287                22.1459

                     28                     29                     30
                      A                      A                      A
 Frequencies --   3136.9152              3178.6382              3182.5368
 Red. masses --      1.0577                 1.0880                 1.0924
 Frc consts  --      6.1321                 6.4770                 6.5191
 IR Inten    --     10.0275                 0.6299                 7.0647

                     31                     32                     33
                      A                      A                      A
 Frequencies --   3202.7541              3207.5788              3219.8809
 Red. masses --      1.1114                 1.1078                 1.0952
 Frc consts  --      6.7169                 6.7156                 6.6897
 IR Inten    --     23.8698                11.7392                21.4057

 - Thermochemistry -
 -------------------
 Temperature   298.150 Kelvin.  Pressure   1.00000 Atm.
 Atom     1 has atomic number  6 and mass  12.00000

 Molecular mass:    68.06260 amu.
 Principal axes and moments of inertia in atomic units:
                           1         2         3
     Eigenvalues --   222.58683 353.03593 554.17500
           X            1.00000  -0.00002  -0.00000
           Y            0.00002   0.99976  -0.02174
           Z            0.00000   0.02174   0.99976
 This molecule is an asymmetric top.
 Rotational symmetry number  1.
 Rotational temperatures (Kelvin)      0.38912     0.24534     0.15629
 Rotational constants (GHZ):           8.10803     5.11206     3.25663
    1 imaginary frequencies ignored.
 Zero-point vibrational energy     292288.5 (Joules/Mol)
                                   69.85862 (Kcal/Mol)
 Warning -- explicit consideration of   4 degrees of freedom as
           vibrations may cause significant error
 Vibrational temperatures:    394.23   679.03   737.06   811.50   896.64
          (Kelvin)           1075.94  1160.05  1184.59  1417.82  1430.34
                             1464.35  1470.74  1476.46  1604.59  1651.10
                             1728.97  1834.05  1851.17  2060.94  2091.46
                             2143.37  2219.86  2254.04  2293.08  2343.18
                             4512.55  4513.32  4573.35  4578.96  4608.05
                             4614.99  4632.69

 Zero-point correction=                           0.111327 (Hartree/Particle)
 Thermal correction to Energy=                    0.115941
 Thermal correction to Enthalpy=                  0.116885
 Thermal correction to Gibbs Free Energy=         0.084057
 Sum of electronic and zero-point Energies=           -194.895389
 Sum of electronic and thermal Energies=              -194.890775
 Sum of electronic and thermal Enthalpies=            -194.889831
 Sum of electronic and thermal Free Energies=         -194.922659

                     E (Thermal)             CV                S
                      KCal/Mol        Cal/Mol-Kelvin    Cal/Mol-Kelvin
 Total                   72.754             17.657             69.092
 Electronic               0.000              0.000              0.000
 Translational            0.889              2.981             38.571
 Rotational               0.889              2.981             25.280
 Vibrational             70.976             11.695              5.242
 Vibration     1          0.676              1.721              1.571
 Vibration     2          0.829              1.312              0.732
 Vibration     3          0.867              1.223              0.628
 Vibration     4          0.920              1.109              0.516

                           ! Non-Optimized Parameters !
 Normal termination of Gaussian 16 at Wed Oct  7 14:38:37 2020.
