 Gaussian 16, Revision A.03,

 ----------------------------------------------------------------------
 #P Opt(TS,MaxCyc=50,NoEigenTest,MaxStep=10,AddRedundant) PBE1PBE/6-31G
 * 5D 7F Integral=UltraFineGrid SCF=(NoSymm,XQC,MaxCyc=120) EmpiricalDi
 spersion=GD3BJ IOp(1/33=1)
 ----------------------------------------------------------------------

 TstMul:  Mul=     2
 TstMul:  ICh=     0
 TstMul:  Mul=     2
 Symbolic Z-matrix:
 Charge =  0 Multiplicity = 2

 SCF Done:  E(UPBE1PBE) =  -96.2437719816     A.U. after   15 cycles
 SCF Done:  E(UPBE1PBE) =  -96.2437394483     A.U. after   13 cycles
 SCF Done:  E(UPBE1PBE) =  -96.2440226921     A.U. after   14 cycles
 SCF Done:  E(UPBE1PBE) =  -96.2441728732     A.U. after   13 cycles
 SCF Done:  E(UPBE1PBE) =  -96.2443227444     A.U. after   13 cycles
 SCF Done:  E(UPBE1PBE) =  -96.2446423403     A.U. after   14 cycles
 SCF Done:  E(UPBE1PBE) =  -96.2442734993     A.U. after   13 cycles
 SCF Done:  E(UPBE1PBE) =  -96.2439479770     A.U. after   14 cycles
 SCF Done:  E(UPBE1PBE) =  -96.2439415142     A.U. after   13 cycles
 SCF Done:  E(UPBE1PBE) =  -96.2439427026     A.U. after   10 cycles
 SCF Done:  E(UPBE1PBE) =  -96.2439434683     A.U. after   10 cycles
 SCF Done:  E(UPBE1PBE) =  -96.2439443302     A.U. after   10 cycles
 SCF Done:  E(UPBE1PBE) =  -96.2439548471     A.U. after   12 cycles
 SCF Done:  E(UPBE1PBE) =  -96.2439702957     A.U. after   14 cycles
 SCF Done:  E(UPBE1PBE) =  -96.2439711121     A.U. after   11 cycles
 SCF Done:  E(UPBE1PBE) =  -96.2439711885     A.U. after    9 cycles
 SCF Done:  E(UPBE1PBE) =  -96.2439712014     A.U. after    8 cycles
 Optimization completed.
    -- Stationary point found.
 Normal termination of Gaussian 16 at Wed Oct  7 14:41:45 2020.
 Gaussian 16:  ES64L-G16RevA.03 25-Dec-2016

 ----------------------------------------------------------------------
 #P Freq PBE1PBE/6-31G* 5D 7F Integral=UltraFineGrid SCF=(NoSymm,XQC,Ma
 xCyc=120) EmpiricalDispersion=GD3BJ IOp(1/33=1) Geom=Check Guess=Read
 ----------------------------------------------------------------------

 TstMul:  Mul=     2
 TstMul:  ICh=     0
 TstMul:  Mul=     2
 Structure from the checkpoint file:  "MN_95_RKT21_BH76_PBE0DBJ_631Gs.chk"
 Charge =  0 Multiplicity = 2

                         Standard orientation:
 ---------------------------------------------------------------------
 Center     Atomic      Atomic             Coordinates (Angstroms)
 Number     Number       Type             X           Y           Z
 ---------------------------------------------------------------------
      1          6           0       -1.255284   -0.000001    0.013707
      2          7           0        1.308880   -0.000002   -0.137646
      3          1           0       -1.600730    0.911469   -0.474648
      4          1           0       -1.422081   -0.002165    1.090494
      5          1           0       -1.601140   -0.909303   -0.478387
      6          1           0        0.063637   -0.000029   -0.213907
      7          1           0        1.464906    0.805613    0.478842
      8          1           0        1.464953   -0.805569    0.478891
 ---------------------------------------------------------------------

 SCF Done:  E(UPBE1PBE) =  -96.2439712014     A.U. after    1 cycles

 The electronic state is 2-A.
 Alpha  occ. eigenvalues --  -14.38678 -10.22522  -0.87613  -0.71512  -0.47149
 Alpha  occ. eigenvalues --   -0.46296  -0.41979  -0.41793  -0.30693  -0.23399
 Alpha virt. eigenvalues --    0.09802   0.14607   0.17220   0.18209   0.18765
 Alpha virt. eigenvalues --    0.30529   0.52262   0.53488   0.57727   0.73190
 Alpha virt. eigenvalues --    0.74558   0.74576   0.91050   0.91467   0.91998

  Beta  occ. eigenvalues --  -14.37386 -10.21502  -0.84259  -0.68912  -0.46301
  Beta  occ. eigenvalues --   -0.42553  -0.41073  -0.40992  -0.27794
  Beta virt. eigenvalues --   -0.07611   0.10528   0.15398   0.17677   0.18862
  Beta virt. eigenvalues --    0.19370   0.32766   0.52645   0.54258   0.62456
  Beta virt. eigenvalues --    0.74786   0.74851   0.77884   0.91639   0.92250

 Mulliken charges and spin densities:
               1          2
     1  C   -0.721886   0.599602
     2  N   -0.814007   0.583972
     3  H    0.201315  -0.018203
     4  H    0.189640  -0.022936
     5  H    0.201348  -0.018188
     6  H    0.310560  -0.089998
     7  H    0.316516  -0.017125
     8  H    0.316515  -0.017124
 Sum of Mulliken charges =   0.00000   1.00000

 Dipole moment (field-independent basis, Debye):
    X=             -0.6255    Y=              0.0000    Z=              1.7502  Tot=              1.8586
 Quadrupole moment (field-independent basis, Debye-Ang):
   XX=            -16.2157   YY=            -13.5305   ZZ=            -15.4940
   XY=              0.0000   XZ=              3.1302   YZ=              0.0001

  Exact polarizability:  44.027  -0.000  21.263   0.473   0.000  18.941
 Approx polarizability:  47.672  -0.001  25.653  -0.222   0.000  22.699

 ******    1 imaginary frequencies (negative Signs) ******

                      1                      2                      3
                      A                      A                      A
 Frequencies --  -1688.2346                36.6352               381.5132
 Red. masses --      1.0738                 1.0260                 1.2160
 Frc consts  --      1.8032                 0.0008                 0.1043
 IR Inten    --    544.0748                37.8003                 9.3571

                      4                      5                      6
                      A                      A                      A
 Frequencies --    400.8898               577.7001               810.3406
 Red. masses --      1.0253                 2.4243                 1.1102
 Frc consts  --      0.0971                 0.4767                 0.4295
 IR Inten    --      3.0182                 5.0972                 6.8934

                      7                      8                      9
                      A                      A                      A
 Frequencies --    887.2254              1177.9512              1406.8815
 Red. masses --      1.2589                 1.1727                 1.1180
 Frc consts  --      0.5838                 0.9587                 1.3038
 IR Inten    --    106.5815                 9.4588               163.7492

                     10                     11                     12
                      A                      A                      A
 Frequencies --   1453.9459              1467.9914              1557.8236
 Red. masses --      1.0940                 1.0531                 1.0297
 Frc consts  --      1.3626                 1.3371                 1.4723
 IR Inten    --     11.2153                13.7458                11.0457

                     13                     14                     15
                      A                      A                      A
 Frequencies --   1643.2167              3108.5618              3246.3057
 Red. masses --      1.0635                 1.0207                 1.1096
 Frc consts  --      1.6919                 5.8115                 6.8897
 IR Inten    --     25.8328                 3.1502                 9.0253

                     16                     17                     18
                      A                      A                      A
 Frequencies --   3248.0880              3419.4135              3527.5428
 Red. masses --      1.1098                 1.0499                 1.0891
 Frc consts  --      6.8984                 7.2327                 7.9845
 IR Inten    --     11.3740                 7.3241                 1.1897

 - Thermochemistry -
 -------------------
 Temperature   298.150 Kelvin.  Pressure   1.00000 Atm.
 Atom     1 has atomic number  6 and mass  12.00000

 Molecular mass:    32.05002 amu.
 Principal axes and moments of inertia in atomic units:
                           1         2         3
     Eigenvalues --    19.11902 202.68842 204.84360
           X            0.99968   0.00000   0.02520
           Y           -0.00000   1.00000  -0.00000
           Z           -0.02520   0.00000   0.99968
 This molecule is an asymmetric top.
 Rotational symmetry number  1.
 Rotational temperatures (Kelvin)      4.53025     0.42733     0.42283
 Rotational constants (GHZ):          94.39505     8.90402     8.81034
    1 imaginary frequencies ignored.
 Zero-point vibrational energy     169582.8 (Joules/Mol)
                                   40.53126 (Kcal/Mol)
 Warning -- explicit consideration of   4 degrees of freedom as
           vibrations may cause significant error
 Vibrational temperatures:     52.71   548.91   576.79   831.18  1165.90
          (Kelvin)           1276.52  1694.81  2024.19  2091.90  2112.11
                             2241.36  2364.22  4472.53  4670.71  4673.27
                             4919.77  5075.35

 Zero-point correction=                           0.064591 (Hartree/Particle)
 Thermal correction to Energy=                    0.069271
 Thermal correction to Enthalpy=                  0.070215
 Thermal correction to Gibbs Free Energy=         0.038205
 Sum of electronic and zero-point Energies=            -96.179381
 Sum of electronic and thermal Energies=               -96.174700
 Sum of electronic and thermal Enthalpies=             -96.173756
 Sum of electronic and thermal Free Energies=          -96.205766

                     E (Thermal)             CV                S
                      KCal/Mol        Cal/Mol-Kelvin    Cal/Mol-Kelvin
 Total                   43.468             13.754             67.372
 Electronic               0.000              0.000              1.377
 Translational            0.889              2.981             36.326
 Rotational               0.889              2.981             21.301
 Vibrational             41.691              7.792              8.367
 Vibration     1          0.594              1.982              5.433
 Vibration     2          0.751              1.510              1.033
 Vibration     3          0.767              1.468              0.959
 Vibration     4          0.934              1.080              0.490

                           ! Non-Optimized Parameters !
 Normal termination of Gaussian 16 at Wed Oct  7 14:42:26 2020.
