 Gaussian 16, Revision A.03,

 ----------------------------------------------------------------------
 #P Opt(TS,MaxCyc=50,NoEigenTest,MaxStep=10,AddRedundant) PBE1PBE/6-31G
 * 5D 7F Integral=UltraFineGrid SCF=(NoSymm,XQC,MaxCyc=120) EmpiricalDi
 spersion=GD3BJ IOp(1/33=1)
 ----------------------------------------------------------------------

 TstMul:  Mul=     2
 TstMul:  ICh=     0
 TstMul:  Mul=     2
 Symbolic Z-matrix:
 Charge =  0 Multiplicity = 2

 SCF Done:  E(UPBE1PBE) =  -135.512505600     A.U. after   15 cycles
 SCF Done:  E(UPBE1PBE) =  -135.512527515     A.U. after   14 cycles
 SCF Done:  E(UPBE1PBE) =  -135.512724025     A.U. after   13 cycles
 SCF Done:  E(UPBE1PBE) =  -135.512815745     A.U. after   13 cycles
 SCF Done:  E(UPBE1PBE) =  -135.512841672     A.U. after   12 cycles
 SCF Done:  E(UPBE1PBE) =  -135.512738494     A.U. after   13 cycles
 SCF Done:  E(UPBE1PBE) =  -135.512809173     A.U. after   13 cycles
 SCF Done:  E(UPBE1PBE) =  -135.512793048     A.U. after   12 cycles
 SCF Done:  E(UPBE1PBE) =  -135.512789614     A.U. after   12 cycles
 SCF Done:  E(UPBE1PBE) =  -135.512789690     A.U. after    9 cycles
 Optimization completed.
    -- Stationary point found.
 Normal termination of Gaussian 16 at Wed Oct  7 14:38:36 2020.
 Gaussian 16:  ES64L-G16RevA.03 25-Dec-2016

 ----------------------------------------------------------------------
 #P Freq PBE1PBE/6-31G* 5D 7F Integral=UltraFineGrid SCF=(NoSymm,XQC,Ma
 xCyc=120) EmpiricalDispersion=GD3BJ IOp(1/33=1) Geom=Check Guess=Read
 ----------------------------------------------------------------------

 TstMul:  Mul=     2
 TstMul:  ICh=     0
 TstMul:  Mul=     2
 Structure from the checkpoint file:  "MN_94_RKT20_BH76_PBE0DBJ_631Gs.chk"
 Charge =  0 Multiplicity = 2

                         Standard orientation:
 ---------------------------------------------------------------------
 Center     Atomic      Atomic             Coordinates (Angstroms)
 Number     Number       Type             X           Y           Z
 ---------------------------------------------------------------------
      1          6           0       -1.508350   -0.429083   -0.011520
      2          6           0       -0.492928    0.682696    0.019010
      3          7           0        1.881077   -0.338619   -0.038327
      4          1           0       -1.409737   -1.032248   -0.920141
      5          1           0       -1.393034   -1.098841    0.847337
      6          1           0       -2.533806   -0.033545    0.013868
      7          1           0       -0.505372    1.337255   -0.856719
      8          1           0       -0.479515    1.266235    0.943371
      9          1           0        0.667734    0.088418   -0.036902
     10          1           0        2.313368    0.353105   -0.662296
     11          1           0        2.180491   -0.031726    0.894828
 ---------------------------------------------------------------------

 SCF Done:  E(UPBE1PBE) =  -135.512789690     A.U. after    1 cycles

 The electronic state is 2-A.
 Alpha  occ. eigenvalues --  -14.38238 -10.22899 -10.21537  -0.86953  -0.77892
 Alpha  occ. eigenvalues --   -0.63345  -0.47220  -0.46814  -0.45295  -0.40144
 Alpha  occ. eigenvalues --   -0.38544  -0.35901  -0.30127  -0.22283
 Alpha virt. eigenvalues --    0.09762   0.13533   0.16133   0.16576   0.18211
 Alpha virt. eigenvalues --    0.18745   0.20814   0.25158   0.31594   0.51260
 Alpha virt. eigenvalues --    0.54159   0.56917   0.62005   0.62571   0.69147

  Beta  occ. eigenvalues --  -14.36904 -10.21939 -10.21566  -0.83540  -0.76622
  Beta  occ. eigenvalues --   -0.61921  -0.46038  -0.44799  -0.44411  -0.38607
  Beta  occ. eigenvalues --   -0.37541  -0.35617  -0.27280
  Beta virt. eigenvalues --   -0.07006   0.10404   0.13945   0.16487   0.17186
  Beta virt. eigenvalues --    0.18478   0.19090   0.21314   0.25832   0.33793
  Beta virt. eigenvalues --    0.51884   0.54400   0.57504   0.62718   0.65719

 Mulliken charges and spin densities:
               1          2
     1  C   -0.513421  -0.027923
     2  C   -0.516850   0.541918
     3  N   -0.807063   0.611672
     4  H    0.188975   0.004799
     5  H    0.185146   0.004821
     6  H    0.181483   0.031248
     7  H    0.184115  -0.017545
     8  H    0.181423  -0.018594
     9  H    0.290264  -0.093778
    10  H    0.313120  -0.018337
    11  H    0.312809  -0.018281
 Sum of Mulliken charges =   0.00000   1.00000

 Dipole moment (field-independent basis, Debye):
    X=             -0.2341    Y=              1.7400    Z=              0.4406  Tot=              1.8101
 Quadrupole moment (field-independent basis, Debye-Ang):
   XX=            -20.4569   YY=            -23.1143   ZZ=            -20.0783
   XY=              3.6562   XZ=              0.9030   YZ=             -0.6193

  Exact polarizability:  57.364  -5.079  31.033  -0.159  -0.547  30.588
 Approx polarizability:  62.496  -7.922  38.490  -0.511  -0.702  38.974

 ******    1 imaginary frequencies (negative Signs) ******

                      1                      2                      3
                      A                      A                      A
 Frequencies --  -1652.4909                23.2200               145.8627
 Red. masses --      1.0833                 1.0832                 2.6472
 Frc consts  --      1.7429                 0.0003                 0.0332
 IR Inten    --    748.4165                54.0310                 6.4560

                      4                      5                      6
                      A                      A                      A
 Frequencies --    169.5707               432.5899               486.0997
 Red. masses --      1.0866                 1.0453                 2.2409
 Frc consts  --      0.0184                 0.1152                 0.3120
 IR Inten    --      0.4452                 2.4165                 0.3114

                      7                      8                      9
                      A                      A                      A
 Frequencies --    762.7515               793.8863               902.1005
 Red. masses --      1.1840                 1.2643                 1.0615
 Frc consts  --      0.4059                 0.4695                 0.5090
 IR Inten    --     18.2386                46.4154                 2.6227

                     10                     11                     12
                      A                      A                      A
 Frequencies --    953.3260              1079.6234              1212.3702
 Red. masses --      1.2219                 2.9163                 1.4145
 Frc consts  --      0.6543                 2.0028                 1.2250
 IR Inten    --    111.2063                 6.3702                 6.7632

                     13                     14                     15
                      A                      A                      A
 Frequencies --   1244.1717              1374.5913              1429.8827
 Red. masses --      1.3926                 1.0888                 1.2032
 Frc consts  --      1.2701                 1.2122                 1.4494
 IR Inten    --      0.6265               112.2099                 0.6241

                     16                     17                     18
                      A                      A                      A
 Frequencies --   1492.0580              1515.9550              1519.9495
 Red. masses --      1.1471                 1.0341                 1.0481
 Frc consts  --      1.5046                 1.4002                 1.4267
 IR Inten    --      1.7481                 4.8110                 5.3842

                     19                     20                     21
                      A                      A                      A
 Frequencies --   1545.8037              1631.9788              3051.2871
 Red. masses --      1.0414                 1.0698                 1.0427
 Frc consts  --      1.4662                 1.6787                 5.7195
 IR Inten    --     11.0886                22.1208                24.2477

                     22                     23                     24
                      A                      A                      A
 Frequencies --   3112.5625              3126.8481              3152.1848
 Red. masses --      1.0598                 1.0879                 1.1029
 Frc consts  --      6.0496                 6.2669                 6.4568
 IR Inten    --      8.9831                28.7155                 8.3951

                     25                     26                     27
                      A                      A                      A
 Frequencies --   3192.5066              3410.3901              3519.8786
 Red. masses --      1.1094                 1.0498                 1.0891
 Frc consts  --      6.6622                 7.1941                 7.9499
 IR Inten    --     32.0694                 6.8075                 2.0737

 - Thermochemistry -
 -------------------
 Temperature   298.150 Kelvin.  Pressure   1.00000 Atm.
 Atom     1 has atomic number  6 and mass  12.00000

 Molecular mass:    46.06567 amu.
 Principal axes and moments of inertia in atomic units:
                           1         2         3
     Eigenvalues --    70.16668 378.00606 416.14443
           X            0.99955   0.02974   0.00418
           Y           -0.02966   0.99942  -0.01694
           Z           -0.00468   0.01680   0.99985
 This molecule is an asymmetric top.
 Rotational symmetry number  1.
 Rotational temperatures (Kelvin)      1.23440     0.22913     0.20813
 Rotational constants (GHZ):          25.72077     4.77437     4.33681
    1 imaginary frequencies ignored.
 Zero-point vibrational energy     246917.9 (Joules/Mol)
                                   59.01479 (Kcal/Mol)
 Warning -- explicit consideration of   5 degrees of freedom as
           vibrations may cause significant error
 Vibrational temperatures:     33.41   209.86   243.97   622.40   699.39
          (Kelvin)           1097.43  1142.23  1297.92  1371.62  1553.34
                             1744.33  1790.09  1977.73  2057.28  2146.74
                             2181.12  2186.87  2224.07  2348.05  4390.12
                             4478.28  4498.84  4535.29  4593.30  4906.79
                             5064.32

 Zero-point correction=                           0.094046 (Hartree/Particle)
 Thermal correction to Energy=                    0.099906
 Thermal correction to Enthalpy=                  0.100850
 Thermal correction to Gibbs Free Energy=         0.064417
 Sum of electronic and zero-point Energies=           -135.418744
 Sum of electronic and thermal Energies=              -135.412884
 Sum of electronic and thermal Enthalpies=            -135.411940
 Sum of electronic and thermal Free Energies=         -135.448373

                     E (Thermal)             CV                S
                      KCal/Mol        Cal/Mol-Kelvin    Cal/Mol-Kelvin
 Total                   62.692             17.930             76.680
 Electronic               0.000              0.000              1.377
 Translational            0.889              2.981             37.408
 Rotational               0.889              2.981             23.916
 Vibrational             60.914             11.968             13.979
 Vibration     1          0.593              1.985              6.338
 Vibration     2          0.617              1.907              2.726
 Vibration     3          0.625              1.880              2.440
 Vibration     4          0.793              1.399              0.850
 Vibration     5          0.842              1.281              0.694

                           ! Non-Optimized Parameters !
 Normal termination of Gaussian 16 at Wed Oct  7 14:39:38 2020.
