 Gaussian 16, Revision A.03,

 ----------------------------------------------------------------------
 #P Opt(TS,MaxCyc=50,NoEigenTest,MaxStep=10,AddRedundant) PBE1PBE/6-31G
 * 5D 7F Integral=UltraFineGrid SCF=(NoSymm,XQC,MaxCyc=120) EmpiricalDi
 spersion=GD3BJ IOp(1/33=1)
 ----------------------------------------------------------------------

 TstMul:  Mul=     2
 TstMul:  ICh=     0
 TstMul:  Mul=     2
 Symbolic Z-matrix:
 Charge =  0 Multiplicity = 2

 SCF Done:  E(UPBE1PBE) =  -399.717295178     A.U. after   14 cycles
 SCF Done:  E(UPBE1PBE) =  -399.717401515     A.U. after   11 cycles
 SCF Done:  E(UPBE1PBE) =  -399.717725334     A.U. after   12 cycles
 SCF Done:  E(UPBE1PBE) =  -399.717725478     A.U. after   11 cycles
 SCF Done:  E(UPBE1PBE) =  -399.717227477     A.U. after   13 cycles
 SCF Done:  E(UPBE1PBE) =  -399.716996450     A.U. after   13 cycles
 SCF Done:  E(UPBE1PBE) =  -399.716944727     A.U. after   12 cycles
 SCF Done:  E(UPBE1PBE) =  -399.716944105     A.U. after    9 cycles
 Optimization completed.
    -- Stationary point found.
 Normal termination of Gaussian 16 at Wed Oct  7 14:35:32 2020.
 Gaussian 16:  ES64L-G16RevA.03 25-Dec-2016

 ----------------------------------------------------------------------
 #P Freq PBE1PBE/6-31G* 5D 7F Integral=UltraFineGrid SCF=(NoSymm,XQC,Ma
 xCyc=120) EmpiricalDispersion=GD3BJ IOp(1/33=1) Geom=Check Guess=Read
 ----------------------------------------------------------------------

 TstMul:  Mul=     2
 TstMul:  ICh=     0
 TstMul:  Mul=     2
 Structure from the checkpoint file:  "MN_90_RKT16_BH76_PBE0DBJ_631Gs.chk"
 Charge =  0 Multiplicity = 2

                         Standard orientation:
 ---------------------------------------------------------------------
 Center     Atomic      Atomic             Coordinates (Angstroms)
 Number     Number       Type             X           Y           Z
 ---------------------------------------------------------------------
      1          1           0        1.284139   -0.178818    0.000000
      2         16           0        0.000000    0.225988    0.000000
      3          1           0       -0.466702   -1.104223    0.000000
      4          1           0       -0.817437   -2.332773    0.000000
 ---------------------------------------------------------------------

 SCF Done:  E(UPBE1PBE) =  -399.716944105     A.U. after    1 cycles

 The electronic state is 2-A'.
 Alpha  occ. eigenvalues --  -89.02255  -8.01046  -5.94858  -5.94462  -5.93627
 Alpha  occ. eigenvalues --   -0.77010  -0.49168  -0.40319  -0.30830  -0.27425
 Alpha virt. eigenvalues --    0.03471   0.09751   0.33459   0.34970   0.37272
 Alpha virt. eigenvalues --    0.38042   0.70973   0.73730   0.74320   0.76702
 Alpha virt. eigenvalues --    0.77558   0.91286   1.02443   1.19603
  Beta  occ. eigenvalues --  -89.02078  -8.00865  -5.94474  -5.94130  -5.93522
  Beta  occ. eigenvalues --   -0.75812  -0.46657  -0.38402  -0.27028
  Beta virt. eigenvalues --   -0.11431   0.04323   0.12618   0.33817   0.35633
  Beta virt. eigenvalues --    0.38236   0.39164   0.72567   0.75762   0.77522
  Beta virt. eigenvalues --    0.78598   0.83760   0.96087   1.02820   1.19919

 Mulliken charges and spin densities:
               1          2
     1  H    0.134132  -0.005644
     2  S   -0.172377   0.256383
     3  H   -0.012698  -0.099643
     4  H    0.050943   0.848904
 Sum of Mulliken charges =  -0.00000   1.00000

 Dipole moment (field-independent basis, Debye):
    X=              0.6925    Y=             -1.3106    Z=              0.0000  Tot=              1.4823
 Quadrupole moment (field-independent basis, Debye-Ang):
   XX=            -13.7083   YY=            -14.6889   ZZ=            -17.9215
   XY=              0.5376   XZ=              0.0000   YZ=              0.0000

  Exact polarizability:  18.695   5.748  31.514   0.000  -0.000  11.260
 Approx polarizability:  24.805   6.480  38.557  -0.000  -0.000  13.404

 ******    1 imaginary frequencies (negative Signs) ******

                      1                      2                      3
                     A'                     A'                     A"
 Frequencies --   -829.6640               444.6094               522.3096
 Red. masses --      1.0137                 1.0186                 1.0140
 Frc consts  --      0.4111                 0.1186                 0.1630
 IR Inten    --     22.4181                 6.5085                 8.0622

                      4                      5                      6
                     A'                     A'                     A'
 Frequencies --   1213.8543              1738.4592              2742.3187
 Red. masses --      1.0393                 1.0571                 1.0382
 Frc consts  --      0.9023                 1.8823                 4.6000
 IR Inten    --      6.5048                 0.7590                 9.2455

 - Thermochemistry -
 -------------------
 Temperature   298.150 Kelvin.  Pressure   1.00000 Atm.
 Atom     1 has atomic number  1 and mass   1.00783

 Molecular mass:    34.99555 amu.
 Principal axes and moments of inertia in atomic units:
                           1         2         3
     Eigenvalues --     6.32888  31.40554  37.73443
           X            0.33384   0.94263   0.00000
           Y            0.94263  -0.33384   0.00000
           Z            0.00000   0.00000   1.00000
 This molecule is an asymmetric top.
 Rotational symmetry number  1.
 Rotational temperatures (Kelvin)     13.68550     2.75792     2.29536
 Rotational constants (GHZ):         285.15957    57.46569    47.82744
    1 imaginary frequencies ignored.
 Zero-point vibrational energy      39844.9 (Joules/Mol)
                                    9.52317 (Kcal/Mol)
 Warning -- explicit consideration of   2 degrees of freedom as
           vibrations may cause significant error
 Vibrational temperatures:    639.69   751.49  1746.47  2501.25  3945.58
          (Kelvin)

 Zero-point correction=                           0.015176 (Hartree/Particle)
 Thermal correction to Energy=                    0.018503
 Thermal correction to Enthalpy=                  0.019447
 Thermal correction to Gibbs Free Energy=        -0.007205
 Sum of electronic and zero-point Energies=           -399.701768
 Sum of electronic and thermal Energies=              -399.698441
 Sum of electronic and thermal Enthalpies=            -399.697497
 Sum of electronic and thermal Free Energies=         -399.724149

                     E (Thermal)             CV                S
                      KCal/Mol        Cal/Mol-Kelvin    Cal/Mol-Kelvin
 Total                   11.611              8.763             56.094
 Electronic               0.000              0.000              1.377
 Translational            0.889              2.981             36.588
 Rotational               0.889              2.981             16.668
 Vibrational              9.833              2.802              1.460
 Vibration     1          0.804              1.373              0.812
 Vibration     2          0.877              1.201              0.605

 Optimization completed.
    -- Stationary point found.
 Normal termination of Gaussian 16 at Wed Oct  7 14:35:51 2020.
