 Gaussian 16, Revision A.03,

 ----------------------------------------------------------------------
 #P Opt(TS,MaxCyc=50,NoEigenTest,MaxStep=10,AddRedundant) PBE1PBE/6-31G
 * 5D 7F Integral=UltraFineGrid SCF=(NoSymm,XQC,MaxCyc=120) EmpiricalDi
 spersion=GD3BJ IOp(1/33=1)
 ----------------------------------------------------------------------

 TstMul:  Mul=     3
 TstMul:  ICh=     0
 TstMul:  Mul=     3
 Symbolic Z-matrix:
 Charge =  0 Multiplicity = 3

 SCF Done:  E(UPBE1PBE) =  -95.5815896769     A.U. after   14 cycles
 SCF Done:  E(UPBE1PBE) =  -95.5816668179     A.U. after   13 cycles
 SCF Done:  E(UPBE1PBE) =  -95.5818833268     A.U. after   14 cycles
 SCF Done:  E(UPBE1PBE) =  -95.5815894563     A.U. after   15 cycles
 SCF Done:  E(UPBE1PBE) =  -95.5815303264     A.U. after   16 cycles
 SCF Done:  E(UPBE1PBE) =  -95.5813833900     A.U. after   16 cycles
 SCF Done:  E(UPBE1PBE) =  -95.5812956387     A.U. after   16 cycles
 SCF Done:  E(UPBE1PBE) =  -95.5812877944     A.U. after   14 cycles
 SCF Done:  E(UPBE1PBE) =  -95.5813068857     A.U. after   13 cycles
 SCF Done:  E(UPBE1PBE) =  -95.5812969534     A.U. after   13 cycles
 SCF Done:  E(UPBE1PBE) =  -95.5813031270     A.U. after   11 cycles
 SCF Done:  E(UPBE1PBE) =  -95.5812836626     A.U. after   14 cycles
 SCF Done:  E(UPBE1PBE) =  -95.5812883400     A.U. after   13 cycles
 SCF Done:  E(UPBE1PBE) =  -95.5812970952     A.U. after   14 cycles
 SCF Done:  E(UPBE1PBE) =  -95.5813109763     A.U. after   14 cycles
 SCF Done:  E(UPBE1PBE) =  -95.5813576091     A.U. after   16 cycles
 SCF Done:  E(UPBE1PBE) =  -95.5813654782     A.U. after   14 cycles
 SCF Done:  E(UPBE1PBE) =  -95.5813686416     A.U. after   13 cycles
 SCF Done:  E(UPBE1PBE) =  -95.5813696383     A.U. after   11 cycles
 Optimization completed.
    -- Stationary point found.
 Normal termination of Gaussian 16 at Wed Oct  7 14:37:37 2020.
 Gaussian 16:  ES64L-G16RevA.03 25-Dec-2016

 ----------------------------------------------------------------------
 #P Freq PBE1PBE/6-31G* 5D 7F Integral=UltraFineGrid SCF=(NoSymm,XQC,Ma
 xCyc=120) EmpiricalDispersion=GD3BJ IOp(1/33=1) Geom=Check Guess=Read
 ----------------------------------------------------------------------

 TstMul:  Mul=     3
 TstMul:  ICh=     0
 TstMul:  Mul=     3
 Structure from the checkpoint file:  "MN_92_RKT18_BH76_PBE0DBJ_631Gs.chk"
 Charge =  0 Multiplicity = 3

                         Standard orientation:
 ---------------------------------------------------------------------
 Center     Atomic      Atomic             Coordinates (Angstroms)
 Number     Number       Type             X           Y           Z
 ---------------------------------------------------------------------
      1          6           0       -1.210516   -0.012458   -0.000019
      2          7           0        1.406326    0.128368    0.000160
      3          1           0       -1.416423   -0.494701   -0.953926
      4          1           0       -1.544863    1.020787    0.073086
      5          1           0       -1.413745   -0.623723    0.877356
      6          1           0        0.232957    0.170326    0.002615
      7          1           0        1.560886   -0.896518   -0.000138
 ---------------------------------------------------------------------

 SCF Done:  E(UPBE1PBE) =  -95.5813696383     A.U. after    1 cycles

 The electronic state is 3-A.
 Alpha  occ. eigenvalues --  -14.42571 -10.23783  -0.87115  -0.71979  -0.47822
 Alpha  occ. eigenvalues --   -0.43163  -0.43027  -0.36437  -0.32783  -0.24240
 Alpha virt. eigenvalues --    0.10702   0.14031   0.17820   0.17993   0.28707
 Alpha virt. eigenvalues --    0.52230   0.52373   0.56494   0.70591   0.71967
 Alpha virt. eigenvalues --    0.73234   0.85237   0.91580   0.91653   0.92568

  Beta  occ. eigenvalues --  -14.39529 -10.22579  -0.78669  -0.68525  -0.44066
  Beta  occ. eigenvalues --   -0.42264  -0.41993  -0.30698
  Beta virt. eigenvalues --   -0.07449  -0.06975   0.11911   0.15326   0.18575
  Beta virt. eigenvalues --    0.18739   0.32146   0.53222   0.54073   0.62186
  Beta virt. eigenvalues --    0.74163   0.76528   0.80208   0.86883   0.92385

 Mulliken charges and spin densities:
               1          2
     1  C   -0.694138   0.748989
     2  N   -0.543480   1.490745
     3  H    0.202239  -0.027445
     4  H    0.210886  -0.026014
     5  H    0.201219  -0.027774
     6  H    0.317998  -0.109873
     7  H    0.305278  -0.048627
 Sum of Mulliken charges =  -0.00000   2.00000

 Dipole moment (field-independent basis, Debye):
    X=             -1.2331    Y=             -1.4597    Z=             -0.0000  Tot=              1.9108
 Quadrupole moment (field-independent basis, Debye-Ang):
   XX=            -16.6581   YY=            -13.7624   ZZ=            -14.1568
   XY=             -2.8253   XZ=             -0.0025   YZ=              0.0033

  Exact polarizability:  40.470  -0.635  20.165  -0.020   0.001  16.043
 Approx polarizability:  45.425   0.298  24.281  -0.028   0.001  18.257

 ******    1 imaginary frequencies (negative Signs) ******

                      1                      2                      3
                      A                      A                      A
 Frequencies --  -1276.3108                64.3527               360.7730
 Red. masses --      1.1575                 1.0504                 1.0716
 Frc consts  --      1.1109                 0.0026                 0.0822
 IR Inten    --    451.0494                64.5548                12.7192

                      4                      5                      6
                      A                      A                      A
 Frequencies --    418.1155               590.4956               802.7656
 Red. masses --      1.0795                 2.3336                 1.2048
 Frc consts  --      0.1112                 0.4794                 0.4575
 IR Inten    --      5.1962                 3.9886                25.8055

                      7                      8                      9
                      A                      A                      A
 Frequencies --   1125.1078              1177.4013              1447.3407
 Red. masses --      1.0615                 1.2920                 1.0890
 Frc consts  --      0.7917                 1.0553                 1.3441
 IR Inten    --     48.2835                 7.7960                11.0851

                     10                     11                     12
                      A                      A                      A
 Frequencies --   1451.4623              1532.0882              3119.1330
 Red. masses --      1.0791                 1.0461                 1.0171
 Frc consts  --      1.3395                 1.4467                 5.8301
 IR Inten    --      4.7169               135.9346                 0.3625

                     13                     14                     15
                      A                      A                      A
 Frequencies --   3270.0390              3271.9135              3368.0282
 Red. masses --      1.1123                 1.1122                 1.0726
 Frc consts  --      7.0074                 7.0149                 7.1685
 IR Inten    --      8.2173                 5.1620                15.1586

 - Thermochemistry -
 -------------------
 Temperature   298.150 Kelvin.  Pressure   1.00000 Atm.
 Atom     1 has atomic number  6 and mass  12.00000

 Molecular mass:    31.04220 amu.
 Principal axes and moments of inertia in atomic units:
                           1         2         3
     Eigenvalues --    15.73312 199.08147 202.68537
           X            0.99969  -0.02487  -0.00003
           Y            0.02487   0.99969  -0.00008
           Z            0.00003   0.00008   1.00000
 This molecule is an asymmetric top.
 Rotational symmetry number  1.
 Rotational temperatures (Kelvin)      5.50520     0.43507     0.42733
 Rotational constants (GHZ):         114.70971     9.06534     8.90415
    1 imaginary frequencies ignored.
 Zero-point vibrational energy     131583.3 (Joules/Mol)
                                   31.44917 (Kcal/Mol)
 Warning -- explicit consideration of   4 degrees of freedom as
           vibrations may cause significant error
 Vibrational temperatures:     92.59   519.07   601.57   849.59  1155.00
          (Kelvin)           1618.78  1694.02  2082.40  2088.33  2204.33
                             4487.74  4704.86  4707.55  4845.84

 Zero-point correction=                           0.050117 (Hartree/Particle)
 Thermal correction to Energy=                    0.054697
 Thermal correction to Enthalpy=                  0.055641
 Thermal correction to Gibbs Free Energy=         0.023978
 Sum of electronic and zero-point Energies=            -95.531252
 Sum of electronic and thermal Energies=               -95.526673
 Sum of electronic and thermal Enthalpies=             -95.525728
 Sum of electronic and thermal Free Energies=          -95.557392

                     E (Thermal)             CV                S
                      KCal/Mol        Cal/Mol-Kelvin    Cal/Mol-Kelvin
 Total                   34.323             13.340             66.641
 Electronic               0.000              0.000              2.183
 Translational            0.889              2.981             36.231
 Rotational               0.889              2.981             21.079
 Vibrational             32.545              7.379              7.149
 Vibration     1          0.597              1.971              4.319
 Vibration     2          0.735              1.553              1.119
 Vibration     3          0.781              1.431              0.898
 Vibration     4          0.948              1.052              0.466

                           ! Non-Optimized Parameters !
 Normal termination of Gaussian 16 at Wed Oct  7 14:38:01 2020.
