 Gaussian 16, Revision A.03,

 ----------------------------------------------------------------------
 #P Opt(TS,MaxCyc=50,NoEigenTest,MaxStep=10,AddRedundant) PBE1PBE/6-31G
 * 5D 7F Integral=UltraFineGrid SCF=(NoSymm,XQC,MaxCyc=120) EmpiricalDi
 spersion=GD3BJ IOp(1/33=1)
 ----------------------------------------------------------------------

 TstMul:  Mul=     3
 TstMul:  ICh=     0
 TstMul:  Mul=     3
 Symbolic Z-matrix:
 Charge =  0 Multiplicity = 3

 SCF Done:  E(UPBE1PBE) =  -134.850314946     A.U. after   15 cycles
 SCF Done:  E(UPBE1PBE) =  -134.850527956     A.U. after   13 cycles
 SCF Done:  E(UPBE1PBE) =  -134.851360297     A.U. after   16 cycles
 SCF Done:  E(UPBE1PBE) =  -134.851836555     A.U. after   16 cycles
 SCF Done:  E(UPBE1PBE) =  -134.851852092     A.U. after   14 cycles
 SCF Done:  E(UPBE1PBE) =  -134.852397700     A.U. after   14 cycles
 SCF Done:  E(UPBE1PBE) =  -134.851643386     A.U. after   14 cycles
 SCF Done:  E(UPBE1PBE) =  -134.851316695     A.U. after   16 cycles
 SCF Done:  E(UPBE1PBE) =  -134.851332179     A.U. after   16 cycles
 SCF Done:  E(UPBE1PBE) =  -134.851348243     A.U. after   11 cycles
 SCF Done:  E(UPBE1PBE) =  -134.851359216     A.U. after   14 cycles
 SCF Done:  E(UPBE1PBE) =  -134.851360441     A.U. after   11 cycles
 SCF Done:  E(UPBE1PBE) =  -134.851361354     A.U. after   11 cycles
 SCF Done:  E(UPBE1PBE) =  -134.851361743     A.U. after   12 cycles
 Optimization completed.
    -- Stationary point found.
 Normal termination of Gaussian 16 at Wed Oct  7 14:37:54 2020.
 Gaussian 16:  ES64L-G16RevA.03 25-Dec-2016

 ----------------------------------------------------------------------
 #P Freq PBE1PBE/6-31G* 5D 7F Integral=UltraFineGrid SCF=(NoSymm,XQC,Ma
 xCyc=120) EmpiricalDispersion=GD3BJ IOp(1/33=1) Geom=Check Guess=Read
 ----------------------------------------------------------------------

 TstMul:  Mul=     3
 TstMul:  ICh=     0
 TstMul:  Mul=     3
 Structure from the checkpoint file:  "MN_93_RKT19_BH76_PBE0DBJ_631Gs.chk"
 Charge =  0 Multiplicity = 3

                         Standard orientation:
 ---------------------------------------------------------------------
 Center     Atomic      Atomic             Coordinates (Angstroms)
 Number     Number       Type             X           Y           Z
 ---------------------------------------------------------------------
      1          6           0       -1.412963   -0.436305    0.000155
      2          6           0       -0.435183    0.702457   -0.000143
      3          7           0        1.945805   -0.371406   -0.000300
      4          1           0       -1.292195   -1.068210   -0.886125
      5          1           0       -1.289915   -1.069879    0.884923
      6          1           0       -2.450042   -0.069012    0.001820
      7          1           0       -0.409847    1.310580   -0.907002
      8          1           0       -0.408166    1.309792    0.907209
      9          1           0        0.823952    0.080522   -0.000888
     10          1           0        2.494458    0.509132    0.002089
 ---------------------------------------------------------------------

 SCF Done:  E(UPBE1PBE) =  -134.851361743     A.U. after    1 cycles

 The electronic state is 3-A.
 Alpha  occ. eigenvalues --  -14.42103 -10.23870 -10.22119  -0.86384  -0.78374
 Alpha  occ. eigenvalues --   -0.63720  -0.48232  -0.46404  -0.41525  -0.39787
 Alpha  occ. eigenvalues --   -0.36685  -0.35543  -0.32227  -0.22588
 Alpha virt. eigenvalues --    0.10792   0.13378   0.15786   0.16176   0.18089
 Alpha virt. eigenvalues --    0.20467   0.24978   0.30032   0.50215   0.53948
 Alpha virt. eigenvalues --    0.56322   0.60524   0.62592   0.68882   0.72931

  Beta  occ. eigenvalues --  -14.38996 -10.22738 -10.22164  -0.78857  -0.75651
  Beta  occ. eigenvalues --   -0.61903  -0.45857  -0.44967  -0.39762  -0.39033
  Beta  occ. eigenvalues --   -0.36312  -0.30020
  Beta virt. eigenvalues --   -0.06540  -0.06426   0.11650   0.14363   0.16472
  Beta virt. eigenvalues --    0.16678   0.18469   0.21062   0.25776   0.33307
  Beta virt. eigenvalues --    0.50877   0.54975   0.56976   0.64827   0.65852

 Mulliken charges and spin densities:
               1          2
     1  C   -0.518535  -0.040592
     2  C   -0.497171   0.671441
     3  N   -0.537128   1.527161
     4  H    0.190723   0.006780
     5  H    0.190733   0.006816
     6  H    0.186894   0.038208
     7  H    0.190356  -0.023260
     8  H    0.190343  -0.023268
     9  H    0.301319  -0.113588
    10  H    0.302466  -0.049698
 Sum of Mulliken charges =  -0.00000   2.00000

 Dipole moment (field-independent basis, Debye):
    X=             -0.8444    Y=              1.6942    Z=              0.0033  Tot=              1.8930
 Quadrupole moment (field-independent basis, Debye-Ang):
   XX=            -21.2519   YY=            -21.7440   ZZ=            -20.5074
   XY=              3.9588   XZ=              0.0090   YZ=             -0.0008

  Exact polarizability:  53.942  -3.791  31.777   0.010   0.006  25.628
 Approx polarizability:  60.487  -6.892  39.826   0.012   0.010  31.652

 ******    1 imaginary frequencies (negative Signs) ******

                      1                      2                      3
                      A                      A                      A
 Frequencies --  -1548.1599                55.7873               137.1349
 Red. masses --      1.1025                 1.0820                 2.8141
 Frc consts  --      1.5569                 0.0020                 0.0312
 IR Inten    --    593.3212                77.2173                 5.6508

                      4                      5                      6
                      A                      A                      A
 Frequencies --    162.8074               466.1250               488.0002
 Red. masses --      1.1016                 1.0674                 2.1111
 Frc consts  --      0.0172                 0.1366                 0.2962
 IR Inten    --      1.0183                 3.3329                 7.1632

                      7                      8                      9
                      A                      A                      A
 Frequencies --    724.9172               836.4038               930.2992
 Red. masses --      1.4020                 1.0491                 1.1508
 Frc consts  --      0.4341                 0.4324                 0.5868
 IR Inten    --     12.5128                 9.1181                43.6967

                     10                     11                     12
                      A                      A                      A
 Frequencies --   1085.2005              1186.2798              1196.9475
 Red. masses --      2.9197                 1.1514                 1.5031
 Frc consts  --      2.0259                 0.9547                 1.2688
 IR Inten    --      1.2442                20.3928                 2.1698

                     13                     14                     15
                      A                      A                      A
 Frequencies --   1245.8376              1427.6717              1485.5252
 Red. masses --      1.2676                 1.2093                 1.0959
 Frc consts  --      1.1592                 1.4523                 1.4248
 IR Inten    --      8.3367                 5.7142                14.7299

                     16                     17                     18
                      A                      A                      A
 Frequencies --   1499.1614              1514.8281              1517.8597
 Red. masses --      1.1115                 1.0357                 1.0489
 Frc consts  --      1.4718                 1.4003                 1.4238
 IR Inten    --     49.9754                 7.0810                12.6175

                     19                     20                     21
                      A                      A                      A
 Frequencies --   3044.7033              3118.3659              3127.4784
 Red. masses --      1.0452                 1.0798                 1.0634
 Frc consts  --      5.7089                 6.1864                 6.1280
 IR Inten    --     21.2352                 4.0437                28.2432

                     22                     23                     24
                      A                      A                      A
 Frequencies --   3153.9253              3209.3094              3355.2418
 Red. masses --      1.1030                 1.1117                 1.0729
 Frc consts  --      6.4646                 6.7461                 7.1161
 IR Inten    --     10.6679                25.5731                16.6516

 - Thermochemistry -
 -------------------
 Temperature   298.150 Kelvin.  Pressure   1.00000 Atm.
 Atom     1 has atomic number  6 and mass  12.00000

 Molecular mass:    45.05785 amu.
 Principal axes and moments of inertia in atomic units:
                           1         2         3
     Eigenvalues --    68.81075 354.14243 399.81877
           X            0.99924   0.03902   0.00005
           Y           -0.03902   0.99924   0.00003
           Z           -0.00005  -0.00004   1.00000
 This molecule is an asymmetric top.
 Rotational symmetry number  1.
 Rotational temperatures (Kelvin)      1.25873     0.24457     0.21663
 Rotational constants (GHZ):          26.22760     5.09609     4.51390
    1 imaginary frequencies ignored.
 Zero-point vibrational energy     209165.9 (Joules/Mol)
                                   49.99185 (Kcal/Mol)
 Warning -- explicit consideration of   5 degrees of freedom as
           vibrations may cause significant error
 Vibrational temperatures:     80.27   197.31   234.24   670.65   702.12
          (Kelvin)           1042.99  1203.40  1338.49  1561.36  1706.79
                             1722.14  1792.48  2054.10  2137.34  2156.96
                             2179.50  2183.86  4380.65  4486.63  4499.74
                             4537.79  4617.48  4827.44

 Zero-point correction=                           0.079667 (Hartree/Particle)
 Thermal correction to Energy=                    0.085414
 Thermal correction to Enthalpy=                  0.086358
 Thermal correction to Gibbs Free Energy=         0.050464
 Sum of electronic and zero-point Energies=           -134.771695
 Sum of electronic and thermal Energies=              -134.765948
 Sum of electronic and thermal Enthalpies=            -134.765004
 Sum of electronic and thermal Free Energies=         -134.800897

                     E (Thermal)             CV                S
                      KCal/Mol        Cal/Mol-Kelvin    Cal/Mol-Kelvin
 Total                   53.598             17.461             75.545
 Electronic               0.000              0.000              2.183
 Translational            0.889              2.981             37.342
 Rotational               0.889              2.981             23.792
 Vibrational             51.821             11.499             12.228
 Vibration     1          0.596              1.975              4.601
 Vibration     2          0.614              1.916              2.843
 Vibration     3          0.623              1.888              2.517
 Vibration     4          0.823              1.325              0.748
 Vibration     5          0.844              1.277              0.689

                           ! Non-Optimized Parameters !
 Normal termination of Gaussian 16 at Wed Oct  7 14:38:37 2020.
