 Gaussian 16, Revision A.03,

 ----------------------------------------------------------------------
 #P Opt(TS,MaxCyc=50,NoEigenTest,MaxStep=10,AddRedundant) PBEPBE/6-31G*
  5D 7F Integral=UltraFineGrid SCF=(NoSymm,XQC,MaxCyc=120) IOp(1/33=1)
 ----------------------------------------------------------------------

 TstMul:  Mul=     2
 TstMul:  ICh=     0
 TstMul:  Mul=     2
 Symbolic Z-matrix:
 Charge =  0 Multiplicity = 2

 SCF Done:  E(UPBE-PBE) =  -78.9622268392     A.U. after   15 cycles
 SCF Done:  E(UPBE-PBE) =  -78.9635484841     A.U. after   14 cycles
 SCF Done:  E(UPBE-PBE) =  -78.9628517811     A.U. after   14 cycles
 SCF Done:  E(UPBE-PBE) =  -78.9622882047     A.U. after   14 cycles
 SCF Done:  E(UPBE-PBE) =  -78.9618891283     A.U. after   13 cycles
 SCF Done:  E(UPBE-PBE) =  -78.9616293228     A.U. after   14 cycles
 SCF Done:  E(UPBE-PBE) =  -78.9614759047     A.U. after   14 cycles
 SCF Done:  E(UPBE-PBE) =  -78.9613988448     A.U. after   14 cycles
 SCF Done:  E(UPBE-PBE) =  -78.9613769599     A.U. after   13 cycles
 SCF Done:  E(UPBE-PBE) =  -78.9613769042     A.U. after   10 cycles
 SCF Done:  E(UPBE-PBE) =  -78.9613780511     A.U. after    9 cycles
 SCF Done:  E(UPBE-PBE) =  -78.9613783099     A.U. after   13 cycles
 SCF Done:  E(UPBE-PBE) =  -78.9613800654     A.U. after   10 cycles
 SCF Done:  E(UPBE-PBE) =  -78.9613833035     A.U. after   10 cycles
 SCF Done:  E(UPBE-PBE) =  -78.9613848740     A.U. after   12 cycles
 SCF Done:  E(UPBE-PBE) =  -78.9613850376     A.U. after    9 cycles
 Optimization completed.
    -- Stationary point found.

 1\1\GINC-NODE62\FTS\UPBEPBE\6-31G(d)\C2H5(2)\RPEVERATI\07-Oct-2020\0\\
 #P Opt(TS,MaxCyc=50,NoEigenTest,MaxStep=10,AddRedundant) PBEPBE/6-31G*
  5D 7F Integral=UltraFineGrid SCF=(NoSymm,XQC,MaxCyc=120) IOp(1/33=1)\
 \TS search on BH76.\\0,2\C,-0.533636261,0.0004271822,-0.2813638208\C,0
 .7777862893,0.0005868223,0.0163121535\H,-1.6615502535,-0.0032812827,1.
 7353594193\H,-1.0879418552,0.9310343646,-0.4438426201\H,-1.0870690561,
 -0.9301363538,-0.4470158269\H,1.3385651248,-0.9305398827,0.1511419061\
 H,1.3375386288,0.9318330328,0.1545391671\\Version=ES64L-G16RevA.03\Sta

 Normal termination of Gaussian 16 at Wed Oct  7 16:11:42 2020.
 Gaussian 16:  ES64L-G16RevA.03 25-Dec-2016

 ----------------------------------------------------------------------
 #P Freq PBEPBE/6-31G* 5D 7F Integral=UltraFineGrid SCF=(NoSymm,XQC,Max
 Cyc=120) IOp(1/33=1) Geom=Check Guess=Read
 ----------------------------------------------------------------------

 TstMul:  Mul=     2
 TstMul:  ICh=     0
 TstMul:  Mul=     2
 Structure from the checkpoint file:  "MN_13_c2h5ts_BH76_PBE_631Gs.chk"
 Charge =  0 Multiplicity = 2

                         Standard orientation:
 ---------------------------------------------------------------------
 Center     Atomic      Atomic             Coordinates (Angstroms)
 Number     Number       Type             X           Y           Z
 ---------------------------------------------------------------------
      1          6           0       -0.537727    0.283405    0.000410
      2          6           0        0.756716   -0.081090   -0.000112
      3          1           0       -1.767517   -1.672863   -0.002538
      4          1           0       -1.082474    0.474124    0.931302
      5          1           0       -1.082445    0.477157   -0.929869
      6          1           0        1.309345   -0.244529   -0.931529
      7          1           0        1.309152   -0.247777    0.930844
 ---------------------------------------------------------------------

 SCF Done:  E(UPBE-PBE) =  -78.9613850376     A.U. after    1 cycles

 The electronic state is 2-A.
 Alpha  occ. eigenvalues --   -9.89462  -9.89324  -0.68296  -0.52053  -0.41416
 Alpha  occ. eigenvalues --   -0.36765  -0.30984  -0.27415  -0.20847
 Alpha virt. eigenvalues --   -0.01694   0.09410   0.10877   0.12632   0.21510
 Alpha virt. eigenvalues --    0.29241   0.44653   0.51928   0.53041   0.58307
 Alpha virt. eigenvalues --    0.62882   0.65318   0.77917   0.79748   0.81143

  Beta  occ. eigenvalues --   -9.89520  -9.89123  -0.68100  -0.51886  -0.41349
  Beta  occ. eigenvalues --   -0.36626  -0.30933  -0.24028
  Beta virt. eigenvalues --   -0.07363   0.00094   0.09509   0.10904   0.12750
  Beta virt. eigenvalues --    0.21540   0.29321   0.44729   0.52803   0.53074
  Beta virt. eigenvalues --    0.59278   0.63553   0.67498   0.79775   0.81216

 Mulliken charges and spin densities:
               1          2
     1  C   -0.317666  -0.086290
     2  C   -0.294101   0.156548
     3  H   -0.025293   0.935142
     4  H    0.162558   0.004631
     5  H    0.162558   0.004629
     6  H    0.155972  -0.007330
     7  H    0.155972  -0.007330
 Sum of Mulliken charges =  -0.00000   1.00000

 Dipole moment (field-independent basis, Debye):
    X=              0.2359    Y=              0.2742    Z=              0.0004  Tot=              0.3617
 Quadrupole moment (field-independent basis, Debye-Ang):
   XX=            -13.8642   YY=            -16.4212   ZZ=            -13.2817
   XY=             -1.3177   XZ=             -0.0021   YZ=             -0.0053

  Exact polarizability:  36.821   1.926  18.525   0.003  -0.006  20.860
 Approx polarizability:  66.958  -2.291  23.946  -0.004  -0.012  29.939

 ******    1 imaginary frequencies (negative Signs) ******

                      1                      2                      3
                      A                      A                      A
 Frequencies --   -310.3483               213.9217               254.8470
 Red. masses --      1.0840                 1.2232                 1.0390
 Frc consts  --      0.0615                 0.0330                 0.0398
 IR Inten    --     35.3229                 1.6625                 0.0553

                      4                      5                      6
                      A                      A                      A
 Frequencies --    807.1996               899.0279               935.1831
 Red. masses --      1.0423                 1.4673                 1.1416
 Frc consts  --      0.4001                 0.6987                 0.5882
 IR Inten    --      1.3820                 3.6289                87.1966

                      7                      8                      9
                      A                      A                      A
 Frequencies --   1031.7008              1206.0342              1347.1684
 Red. masses --      1.0085                 1.5220                 1.2506
 Frc consts  --      0.6325                 1.3043                 1.3373
 IR Inten    --      0.0162                 0.0007                 0.5658

                     10                     11                     12
                      A                      A                      A
 Frequencies --   1443.0061              1644.9227              3088.5064
 Red. masses --      1.1124                 2.9680                 1.0476
 Frc consts  --      1.3648                 4.7315                 5.8877
 IR Inten    --      6.6149                 3.3453                13.2480

                     13                     14                     15
                      A                      A                      A
 Frequencies --   3101.5393              3162.6052              3188.2469
 Red. masses --      1.0711                 1.1147                 1.1178
 Frc consts  --      6.0704                 6.5689                 6.6943
 IR Inten    --      1.1910                 0.0842                23.7718

 - Thermochemistry -
 -------------------
 Temperature   298.150 Kelvin.  Pressure   1.00000 Atm.
 Atom     1 has atomic number  6 and mass  12.00000

 Molecular mass:    29.03913 amu.
 Principal axes and moments of inertia in atomic units:
                           1         2         3
     Eigenvalues --    27.73682  81.63094  84.41795
           X            0.99610   0.08824   0.00007
           Y           -0.08824   0.99610  -0.00065
           Z           -0.00012   0.00064   1.00000
 This molecule is an asymmetric top.
 Rotational symmetry number  1.
 Rotational temperatures (Kelvin)      3.12271     1.06104     1.02601
 Rotational constants (GHZ):          65.06662    22.10854    21.37864
    1 imaginary frequencies ignored.
 Zero-point vibrational energy     133526.6 (Joules/Mol)
                                   31.91363 (Kcal/Mol)
 Warning -- explicit consideration of   2 degrees of freedom as
           vibrations may cause significant error
 Vibrational temperatures:    307.79   366.67  1161.38  1293.50  1345.52
          (Kelvin)           1484.39  1735.21  1938.27  2076.16  2366.68
                             4443.67  4462.42  4550.28  4587.18

 Zero-point correction=                           0.050858 (Hartree/Particle)
 Thermal correction to Energy=                    0.054954
 Thermal correction to Enthalpy=                  0.055898
 Thermal correction to Gibbs Free Energy=         0.026615
 Sum of electronic and zero-point Energies=            -78.910527
 Sum of electronic and thermal Energies=               -78.906431
 Sum of electronic and thermal Enthalpies=             -78.905487
 Sum of electronic and thermal Free Energies=          -78.934770

                     E (Thermal)             CV                S
                      KCal/Mol        Cal/Mol-Kelvin    Cal/Mol-Kelvin
 Total                   34.484             11.938             61.632
 Electronic               0.000              0.000              1.377
 Translational            0.889              2.981             36.032
 Rotational               0.889              2.981             19.886
 Vibrational             32.707              5.976              4.336
 Vibration     1          0.644              1.820              2.010
 Vibration     2          0.665              1.755              1.697

 Optimization completed.
    -- Stationary point found.
 Normal termination of Gaussian 16 at Wed Oct  7 16:12:18 2020.
