 Gaussian 16, Revision A.03,
 Gaussian 16:  ES64L-G16RevA.03 25-Dec-2016

 ----------------------------------------------------------------------
 #P Opt(MaxCyc=100) PBEPBE/6-31G* 5D 7F Integral=UltraFineGrid SCF=(NoS
 ymm,XQC,MaxCyc=120) IOp(1/33=1)
 ----------------------------------------------------------------------

 TstMul:  Mul=     2
 TstMul:  ICh=     0
 TstMul:  Mul=     2
 Symbolic Z-matrix:
 Charge =  0 Multiplicity = 2

 SCF Done:  E(UPBE-PBE) =  -118.283034578     A.U. after   14 cycles
 SCF Done:  E(UPBE-PBE) =  -118.283941488     A.U. after   11 cycles
 SCF Done:  E(UPBE-PBE) =  -118.283949300     A.U. after    9 cycles
 SCF Done:  E(UPBE-PBE) =  -118.283950167     A.U. after    8 cycles
 Optimization completed.
    -- Stationary point found.

                         Standard orientation:
 ---------------------------------------------------------------------
 Center     Atomic      Atomic             Coordinates (Angstroms)
 Number     Number       Type             X           Y           Z
 ---------------------------------------------------------------------
      1          6           0        1.217718   -0.286858    0.000059
      2          6           0       -0.071111    0.574823   -0.000057
      3          6           0       -1.323188   -0.237812   -0.000013
      4          1           0        1.257690   -0.936480    0.891159
      5          1           0        1.257714   -0.936682   -0.890893
      6          1           0        2.118911    0.352304   -0.000004
      7          1           0       -0.047838    1.236734   -0.887205
      8          1           0       -0.047896    1.236926    0.886943
      9          1           0       -1.739733   -0.626546    0.934148
     10          1           0       -1.739363   -0.627169   -0.934082
 ---------------------------------------------------------------------

 The electronic state is 2-A.
 Alpha  occ. eigenvalues --   -9.89002  -9.88941  -9.87901  -0.70155  -0.60034
 Alpha  occ. eigenvalues --   -0.51394  -0.40781  -0.37581  -0.34153  -0.33048
 Alpha  occ. eigenvalues --   -0.30132  -0.28436  -0.15670
 Alpha virt. eigenvalues --    0.08109   0.11377   0.11398   0.13127   0.14946
 Alpha virt. eigenvalues --    0.15051   0.19499   0.19601   0.23967   0.48397
 Alpha virt. eigenvalues --    0.50080   0.50602   0.52173   0.55301   0.57576

  Beta  occ. eigenvalues --   -9.89014  -9.87762  -9.87669  -0.69265  -0.58488
  Beta  occ. eigenvalues --   -0.50218  -0.40348  -0.37061  -0.33651  -0.32162
  Beta  occ. eigenvalues --   -0.29650  -0.28240
  Beta virt. eigenvalues --   -0.06883   0.08520   0.11601   0.12669   0.13360
  Beta virt. eigenvalues --    0.15190   0.15386   0.19969   0.20148   0.24961
  Beta virt. eigenvalues --    0.49130   0.50824   0.52677   0.53282   0.57976

 Mulliken charges and spin densities:
               1          2
     1  C   -0.474899   0.051453
     2  C   -0.300485  -0.067778
     3  C   -0.312927   1.076490
     4  H    0.160277  -0.000518
     5  H    0.160275  -0.000521
     6  H    0.155922   0.015194
     7  H    0.156527   0.013486
     8  H    0.156523   0.013459
     9  H    0.149396  -0.050633
    10  H    0.149392  -0.050633
 Sum of Mulliken charges =  -0.00000   1.00000

 Dipole moment (field-independent basis, Debye):
    X=              0.2609    Y=             -0.0077    Z=              0.0000  Tot=              0.2610
 Quadrupole moment (field-independent basis, Debye-Ang):
   XX=            -21.5176   YY=            -21.0587   ZZ=            -19.8475
   XY=              0.7565   XZ=             -0.0005   YZ=              0.0004

 Normal termination of Gaussian 16 at Wed Oct  7 16:09:10 2020.
