 Gaussian 16, Revision A.03,
 Gaussian 16:  ES64L-G16RevA.03 25-Dec-2016

 ----------------------------------------------------------------------
 #P Opt(MaxCyc=100) PBEPBE/6-31G* 5D 7F Integral=UltraFineGrid SCF=(NoS
 ymm,XQC,MaxCyc=120) IOp(1/33=1)
 ----------------------------------------------------------------------

 TstMul:  Mul=     1
 TstMul:  ICh=     0
 TstMul:  Mul=     1
 Symbolic Z-matrix:
 Charge =  0 Multiplicity = 1

 SCF Done:  E(RPBE-PBE) =  -499.835727648     A.U. after   11 cycles
 SCF Done:  E(RPBE-PBE) =  -499.836266486     A.U. after   10 cycles
 SCF Done:  E(RPBE-PBE) =  -499.836268151     A.U. after    7 cycles
 Optimization completed.
    -- Stationary point found.

                         Standard orientation:
 ---------------------------------------------------------------------
 Center     Atomic      Atomic             Coordinates (Angstroms)
 Number     Number       Type             X           Y           Z
 ---------------------------------------------------------------------
      1          6           0        0.000000    0.000000   -1.134934
      2         17           0        0.000000    0.000000    0.663235
      3          1           0        0.000000    1.040597   -1.488466
      4          1           0        0.901184   -0.520299   -1.488466
      5          1           0       -0.901184   -0.520299   -1.488466
 ---------------------------------------------------------------------

 The electronic state is 1-A1.
 Alpha  occ. eigenvalues -- -100.64751  -9.94564  -9.16241  -6.98843  -6.97598
 Alpha  occ. eigenvalues --   -6.97598  -0.77358  -0.61078  -0.39927  -0.39927
 Alpha  occ. eigenvalues --   -0.37363  -0.25341  -0.25341
 Alpha virt. eigenvalues --   -0.00548   0.08151   0.11448   0.11448   0.37625
 Alpha virt. eigenvalues --    0.41093   0.43001   0.43001   0.49353   0.49353
 Alpha virt. eigenvalues --    0.51988   0.78174   0.78174   0.81750   0.83557

 Mulliken charges:
               1
     1  C   -0.576761
     2  Cl  -0.069521
     3  H    0.215427
     4  H    0.215427
     5  H    0.215427
 Sum of Mulliken charges =  -0.00000

 Dipole moment (field-independent basis, Debye):
    X=             -0.0000    Y=             -0.0000    Z=             -2.0140  Tot=              2.0140
 Quadrupole moment (field-independent basis, Debye-Ang):
   XX=            -19.7442   YY=            -19.7442   ZZ=            -17.9331
   XY=             -0.0000   XZ=              0.0000   YZ=              0.0000

 Normal termination of Gaussian 16 at Wed Oct  7 16:09:00 2020.
