 Gaussian 16, Revision A.03,
 Gaussian 16:  ES64L-G16RevA.03 25-Dec-2016

 ----------------------------------------------------------------------
 #P Opt(MaxCyc=100) PBEPBE/6-31G* 5D 7F Integral=UltraFineGrid SCF=(NoS
 ymm,XQC,MaxCyc=120) IOp(1/33=1)
 ----------------------------------------------------------------------

 TstMul:  Mul=     1
 TstMul:  ICh=     0
 TstMul:  Mul=     1
 Symbolic Z-matrix:
 Charge =  0 Multiplicity = 1

 SCF Done:  E(RPBE-PBE) =  -78.4636042392     A.U. after    9 cycles
 SCF Done:  E(RPBE-PBE) =  -78.4642116108     A.U. after    9 cycles
 SCF Done:  E(RPBE-PBE) =  -78.4642156370     A.U. after    6 cycles
 Optimization completed.
    -- Stationary point found.

                         Standard orientation:
 ---------------------------------------------------------------------
 Center     Atomic      Atomic             Coordinates (Angstroms)
 Number     Number       Type             X           Y           Z
 ---------------------------------------------------------------------
      1          6           0        0.000000    0.000000    0.669783
      2          6           0        0.000000    0.000000   -0.669783
      3          1           0        0.000000    0.931150    1.247067
      4          1           0       -0.000000   -0.931150    1.247067
      5          1           0        0.000000    0.931150   -1.247067
      6          1           0       -0.000000   -0.931150   -1.247067
 ---------------------------------------------------------------------

 The electronic state is 1-AG.
 Alpha  occ. eigenvalues --   -9.88766  -9.88715  -0.67751  -0.51480  -0.41020
 Alpha  occ. eigenvalues --   -0.36245  -0.30532  -0.23165
 Alpha virt. eigenvalues --   -0.01612   0.09698   0.11152   0.12958   0.21835
 Alpha virt. eigenvalues --    0.29826   0.45118   0.51219   0.53592   0.59466
 Alpha virt. eigenvalues --    0.62451   0.64844   0.79992   0.81664   0.87547

 Mulliken charges:
               1
     1  C   -0.304580
     2  C   -0.304580
     3  H    0.152290
     4  H    0.152290
     5  H    0.152290
     6  H    0.152290
 Sum of Mulliken charges =   0.00000

 Dipole moment (field-independent basis, Debye):
    X=             -0.0000    Y=             -0.0000    Z=             -0.0000  Tot=              0.0000
 Quadrupole moment (field-independent basis, Debye-Ang):
   XX=            -15.0806   YY=            -12.0478   ZZ=            -11.9612
   XY=              0.0000   XZ=             -0.0000   YZ=              0.0000

 Normal termination of Gaussian 16 at Wed Oct  7 16:08:07 2020.
