 Gaussian 16, Revision A.03,
 Gaussian 16:  ES64L-G16RevA.03 25-Dec-2016

 ----------------------------------------------------------------------
 #P Opt(MaxCyc=100) PBEPBE/6-31G* 5D 7F Integral=UltraFineGrid SCF=(NoS
 ymm,XQC,MaxCyc=120) IOp(1/33=1)
 ----------------------------------------------------------------------

 TstMul:  Mul=     1
 TstMul:  ICh=     0
 TstMul:  Mul=     1
 Symbolic Z-matrix:
 Charge =  0 Multiplicity = 1

 SCF Done:  E(RPBE-PBE) =  -79.6963472624     A.U. after    9 cycles
 SCF Done:  E(RPBE-PBE) =  -79.6970503838     A.U. after    9 cycles
 SCF Done:  E(RPBE-PBE) =  -79.6970532257     A.U. after    6 cycles
 Optimization completed.
    -- Stationary point found.

                         Standard orientation:
 ---------------------------------------------------------------------
 Center     Atomic      Atomic             Coordinates (Angstroms)
 Number     Number       Type             X           Y           Z
 ---------------------------------------------------------------------
      1          6           0       -0.765958   -0.000000   -0.000000
      2          6           0        0.765958    0.000000    0.000000
      3          1           0        1.168613   -0.088156   -1.024015
      4          1           0       -1.168608   -0.930700   -0.436098
      5          1           0        1.168612   -0.842746    0.588354
      6          1           0        1.168608    0.930904    0.435662
      7          1           0       -1.168613    0.087676    1.024056
      8          1           0       -1.168612    0.843022   -0.587958
 ---------------------------------------------------------------------

 The electronic state is 1-A.
 Alpha  occ. eigenvalues --   -9.87514  -9.87512  -0.67233  -0.54465  -0.37788
 Alpha  occ. eigenvalues --   -0.37788  -0.31731  -0.29176  -0.29176
 Alpha virt. eigenvalues --    0.08210   0.13134   0.13410   0.13410   0.16305
 Alpha virt. eigenvalues --    0.16305   0.20708   0.48138   0.51279   0.51279
 Alpha virt. eigenvalues --    0.60283   0.60283   0.62095   0.83245   0.83245

 Mulliken charges:
               1
     1  C   -0.477914
     2  C   -0.477914
     3  H    0.159305
     4  H    0.159305
     5  H    0.159305
     6  H    0.159305
     7  H    0.159305
     8  H    0.159305
 Sum of Mulliken charges =  -0.00000

 Dipole moment (field-independent basis, Debye):
    X=             -0.0000    Y=             -0.0000    Z=              0.0000  Tot=              0.0000
 Quadrupole moment (field-independent basis, Debye-Ang):
   XX=            -15.1770   YY=            -14.6852   ZZ=            -14.6852
   XY=             -0.0000   XZ=             -0.0000   YZ=              0.0000

 Normal termination of Gaussian 16 at Wed Oct  7 16:08:38 2020.
