 Gaussian 16, Revision A.03,
 Gaussian 16:  ES64L-G16RevA.03 25-Dec-2016

 ----------------------------------------------------------------------
 #P Opt(MaxCyc=100) PBEPBE/6-31G* 5D 7F Integral=UltraFineGrid SCF=(NoS
 ymm,XQC,MaxCyc=120) IOp(1/33=1)
 ----------------------------------------------------------------------

 TstMul:  Mul=     2
 TstMul:  ICh=     0
 TstMul:  Mul=     2
 Symbolic Z-matrix:
 Charge =  0 Multiplicity = 2

 SCF Done:  E(UPBE-PBE) =  -79.0284677930     A.U. after   13 cycles
 SCF Done:  E(UPBE-PBE) =  -79.0291308134     A.U. after   11 cycles
 SCF Done:  E(UPBE-PBE) =  -79.0291410166     A.U. after    9 cycles
 Optimization completed.
    -- Stationary point found.

                         Standard orientation:
 ---------------------------------------------------------------------
 Center     Atomic      Atomic             Coordinates (Angstroms)
 Number     Number       Type             X           Y           Z
 ---------------------------------------------------------------------
      1          6           0        0.795666   -0.000004   -0.021867
      2          6           0       -0.694094    0.000198   -0.001318
      3          1           0       -1.112793    0.900285   -0.486332
      4          1           0        1.358307   -0.934930    0.048717
      5          1           0       -1.100949   -0.012561    1.035282
      6          1           0       -1.113252   -0.888242   -0.507434
      7          1           0        1.359254    0.934282    0.048877
 ---------------------------------------------------------------------

 The electronic state is 2-A.
 Alpha  occ. eigenvalues --   -9.89123  -9.88344  -0.67590  -0.53797  -0.39383
 Alpha  occ. eigenvalues --   -0.35839  -0.33952  -0.30589  -0.15481
 Alpha virt. eigenvalues --    0.09103   0.11281   0.11862   0.14758   0.19300
 Alpha virt. eigenvalues --    0.22590   0.47924   0.50772   0.51419   0.57407
 Alpha virt. eigenvalues --    0.58230   0.70437   0.74571   0.81382   0.82409

  Beta  occ. eigenvalues --   -9.88423  -9.87781  -0.66148  -0.51758  -0.38750
  Beta  occ. eigenvalues --   -0.34716  -0.33155  -0.30164
  Beta virt. eigenvalues --   -0.06505   0.09602   0.12112   0.12737   0.15537
  Beta virt. eigenvalues --    0.19798   0.23569   0.48639   0.51107   0.56207
  Beta virt. eigenvalues --    0.59118   0.61336   0.71234   0.76482   0.82076

 Mulliken charges and spin densities:
               1          2
     1  C   -0.312379   1.080026
     2  C   -0.502295  -0.075881
     3  H    0.169395   0.014786
     4  H    0.151994  -0.051049
     5  H    0.171612   0.067177
     6  H    0.169531   0.016026
     7  H    0.152142  -0.051085
 Sum of Mulliken charges =  -0.00000   1.00000

 Dipole moment (field-independent basis, Debye):
    X=             -0.2506    Y=             -0.0006    Z=              0.1354  Tot=              0.2848
 Quadrupole moment (field-independent basis, Debye-Ang):
   XX=            -13.9023   YY=            -13.3778   ZZ=            -14.9501
   XY=              0.0014   XZ=              0.1547   YZ=              0.0002

 Normal termination of Gaussian 16 at Wed Oct  7 16:08:41 2020.
