 Gaussian 16, Revision A.03,
 Gaussian 16:  ES64L-G16RevA.03 25-Dec-2016

 ----------------------------------------------------------------------
 #P Opt(MaxCyc=100) PBEPBE/6-31G* 5D 7F Integral=UltraFineGrid SCF=(NoS
 ymm,XQC,MaxCyc=120) IOp(1/33=1)
 ----------------------------------------------------------------------

 TstMul:  Mul=     1
 TstMul:  ICh=     0
 TstMul:  Mul=     1
 Symbolic Z-matrix:
 Charge =  0 Multiplicity = 1

 SCF Done:  E(RPBE-PBE) =  -195.022259084     A.U. after   14 cycles
 SCF Done:  E(RPBE-PBE) =  -195.023839079     A.U. after   12 cycles
 SCF Done:  E(RPBE-PBE) =  -195.023865700     A.U. after    9 cycles
 SCF Done:  E(RPBE-PBE) =  -195.023868127     A.U. after    8 cycles
 Optimization completed.
    -- Stationary point found.

                         Standard orientation:
 ---------------------------------------------------------------------
 Center     Atomic      Atomic             Coordinates (Angstroms)
 Number     Number       Type             X           Y           Z
 ---------------------------------------------------------------------
      1          6           0       -2.076408   -0.608543    0.000001
      2          6           0       -1.241710    0.638900    0.000050
      3          6           0        0.112381    0.730327    0.000034
      4          6           0        1.064823   -0.369208   -0.000035
      5          6           0        2.406471   -0.201957   -0.000044
      6          1           0       -2.740224   -0.637378    0.885094
      7          1           0       -2.740256   -0.637287   -0.885071
      8          1           0       -1.475760   -1.531553   -0.000057
      9          1           0       -1.808984    1.579478    0.000104
     10          1           0        0.556694    1.735396    0.000077
     11          1           0        0.663500   -1.390746   -0.000081
     12          1           0        3.094440   -1.052429   -0.000097
     13          1           0        2.857245    0.797409   -0.000000
 ---------------------------------------------------------------------

 The electronic state is 1-A.
 Alpha  occ. eigenvalues --   -9.89472  -9.89261  -9.88812  -9.88697  -9.88240
 Alpha  occ. eigenvalues --   -0.72569  -0.67597  -0.60994  -0.52634  -0.46966
 Alpha  occ. eigenvalues --   -0.41979  -0.39174  -0.36262  -0.35080  -0.32985
 Alpha  occ. eigenvalues --   -0.31809  -0.28522  -0.27091  -0.18829
 Alpha virt. eigenvalues --   -0.04728   0.05337   0.07794   0.08460   0.10855
 Alpha virt. eigenvalues --    0.13553   0.14405   0.14673   0.16570   0.19823
 Alpha virt. eigenvalues --    0.22196   0.29809   0.34546   0.39796   0.44332

 Mulliken charges:
               1
     1  C   -0.535842
     2  C   -0.118317
     3  C   -0.121482
     4  C   -0.064842
     5  C   -0.374634
     6  H    0.175297
     7  H    0.175297
     8  H    0.170817
     9  H    0.136424
    10  H    0.127735
    11  H    0.131057
    12  H    0.150266
    13  H    0.148224
 Sum of Mulliken charges =  -0.00000

 Dipole moment (field-independent basis, Debye):
    X=             -0.5614    Y=             -0.1460    Z=              0.0000  Tot=              0.5801
 Quadrupole moment (field-independent basis, Debye-Ang):
   XX=            -28.6476   YY=            -29.3157   ZZ=            -34.2283
   XY=              0.0954   XZ=             -0.0001   YZ=              0.0002

 Normal termination of Gaussian 16 at Wed Oct  7 16:09:50 2020.
