 Gaussian 16, Revision A.03,

 ----------------------------------------------------------------------
 #P Opt(TS,MaxCyc=50,NoEigenTest,MaxStep=10,AddRedundant) PBEPBE/6-31G*
  5D 7F Integral=UltraFineGrid SCF=(NoSymm,XQC,MaxCyc=120) IOp(1/33=1)
 ----------------------------------------------------------------------

 TstMul:  Mul=     2
 TstMul:  ICh=     0
 TstMul:  Mul=     2
 Symbolic Z-matrix:
 Charge =  0 Multiplicity = 2

 SCF Done:  E(UPBE-PBE) =  -118.231153511     A.U. after   15 cycles
 SCF Done:  E(UPBE-PBE) =  -118.233241251     A.U. after   14 cycles
 SCF Done:  E(UPBE-PBE) =  -118.232030286     A.U. after   14 cycles
 SCF Done:  E(UPBE-PBE) =  -118.231075190     A.U. after   14 cycles
 SCF Done:  E(UPBE-PBE) =  -118.230433872     A.U. after   14 cycles
 SCF Done:  E(UPBE-PBE) =  -118.230059324     A.U. after   14 cycles
 SCF Done:  E(UPBE-PBE) =  -118.229899623     A.U. after   14 cycles
 SCF Done:  E(UPBE-PBE) =  -118.229886110     A.U. after   13 cycles
 SCF Done:  E(UPBE-PBE) =  -118.229887639     A.U. after   10 cycles
 SCF Done:  E(UPBE-PBE) =  -118.229901793     A.U. after   11 cycles
 SCF Done:  E(UPBE-PBE) =  -118.229920442     A.U. after   13 cycles
 SCF Done:  E(UPBE-PBE) =  -118.229925942     A.U. after   11 cycles
 SCF Done:  E(UPBE-PBE) =  -118.229929673     A.U. after   10 cycles
 SCF Done:  E(UPBE-PBE) =  -118.229930708     A.U. after   10 cycles
 SCF Done:  E(UPBE-PBE) =  -118.229931217     A.U. after   10 cycles
 SCF Done:  E(UPBE-PBE) =  -118.229931350     A.U. after    9 cycles
 SCF Done:  E(UPBE-PBE) =  -118.229931428     A.U. after    9 cycles
 Optimization completed.
    -- Stationary point found.

 1\1\GINC-NODE27\FTS\UPBEPBE\6-31G(d)\C3H7(2)\RPEVERATI\07-Oct-2020\0\\
 #P Opt(TS,MaxCyc=50,NoEigenTest,MaxStep=10,AddRedundant) PBEPBE/6-31G*
  5D 7F Integral=UltraFineGrid SCF=(NoSymm,XQC,MaxCyc=120) IOp(1/33=1)\
 \TS search on BH76.\\0,2\C,-0.5592121944,0.6549104369,0.0036662944\C,-
 1.4652556083,-0.3536277182,-0.0024719746\H,-0.2626321964,1.1583562321,
 -0.9218143228\H,-0.2626494135,1.1471131652,0.935179721\H,-1.8305033056
 ,-0.8051427241,0.9259461121\H,-1.8304558871,-0.7937854493,-0.936347465
 3\C,1.7561256202,-0.2616156316,-0.0009622807\H,2.2890246609,0.69191356

 Normal termination of Gaussian 16 at Wed Oct  7 16:13:04 2020.
 Gaussian 16:  ES64L-G16RevA.03 25-Dec-2016

 ----------------------------------------------------------------------
 #P Freq PBEPBE/6-31G* 5D 7F Integral=UltraFineGrid SCF=(NoSymm,XQC,Max
 Cyc=120) IOp(1/33=1) Geom=Check Guess=Read
 ----------------------------------------------------------------------

 TstMul:  Mul=     2
 TstMul:  ICh=     0
 TstMul:  Mul=     2
 Structure from the checkpoint file:  "MN_17_c3h7ts_BH76_PBE_631Gs.chk"
 Charge =  0 Multiplicity = 2

                         Standard orientation:
 ---------------------------------------------------------------------
 Center     Atomic      Atomic             Coordinates (Angstroms)
 Number     Number       Type             X           Y           Z
 ---------------------------------------------------------------------
      1          6           0       -0.565138    0.645451    0.000042
      2          6           0       -1.453916   -0.378353   -0.000052
      3          1           0       -0.277347    1.148558   -0.928393
      4          1           0       -0.276786    1.147944    0.928635
      5          1           0       -1.811246   -0.830688    0.931044
      6          1           0       -1.811780   -0.829989   -0.931284
      7          6           0        1.765437   -0.231619   -0.000053
      8          1           0        2.282056    0.730730   -0.019680
      9          1           0        1.703316   -0.806071   -0.925510
     10          1           0        1.713484   -0.773351    0.945566
 ---------------------------------------------------------------------

 SCF Done:  E(UPBE-PBE) =  -118.229931428     A.U. after    1 cycles

 The electronic state is 2-A.
 Alpha  occ. eigenvalues --   -9.88952  -9.88904  -9.88307  -0.67505  -0.60139
 Alpha  occ. eigenvalues --   -0.51216  -0.40669  -0.36372  -0.35474  -0.35085
 Alpha  occ. eigenvalues --   -0.30217  -0.24639  -0.15260
 Alpha virt. eigenvalues --   -0.00085   0.07776   0.11239   0.11469   0.14008
 Alpha virt. eigenvalues --    0.15660   0.15665   0.21863   0.29710   0.43015
 Alpha virt. eigenvalues --    0.50208   0.50404   0.52374   0.56486   0.56598

  Beta  occ. eigenvalues --   -9.89098  -9.87912  -9.87670  -0.67099  -0.57341
  Beta  occ. eigenvalues --   -0.50864  -0.40519  -0.35931  -0.34614  -0.34445
  Beta  occ. eigenvalues --   -0.30105  -0.22984
  Beta virt. eigenvalues --   -0.08093   0.01500   0.08472   0.11537   0.11915
  Beta virt. eigenvalues --    0.14332   0.16319   0.16325   0.21956   0.29947
  Beta virt. eigenvalues --    0.43616   0.50802   0.51912   0.54876   0.57105

 Mulliken charges and spin densities:
               1          2
     1  C   -0.288396  -0.131106
     2  C   -0.311092   0.311564
     3  H    0.158107   0.007469
     4  H    0.158126   0.007466
     5  H    0.148166  -0.014897
     6  H    0.148161  -0.014898
     7  C   -0.516489   0.951574
     8  H    0.163686  -0.037945
     9  H    0.169961  -0.039612
    10  H    0.169770  -0.039616
 Sum of Mulliken charges =  -0.00000   1.00000

 Dipole moment (field-independent basis, Debye):
    X=              0.1722    Y=              0.0526    Z=              0.0004  Tot=              0.1801
 Quadrupole moment (field-independent basis, Debye-Ang):
   XX=            -21.9986   YY=            -20.3605   ZZ=            -19.1895
   XY=              1.5365   XZ=              0.0000   YZ=             -0.0000

  Exact polarizability:  53.092   7.534  32.299  -0.003  -0.004  31.573
 Approx polarizability:  95.910  20.135  53.545  -0.004  -0.004  46.699

 ******    1 imaginary frequencies (negative Signs) ******

                      1                      2                      3
                      A                      A                      A
 Frequencies --   -250.2151                73.3003               187.3783
 Red. masses --      8.5903                 1.0916                 2.4766
 Frc consts  --      0.3169                 0.0035                 0.0512
 IR Inten    --      0.7896                 0.0037                 0.9410

                      4                      5                      6
                      A                      A                      A
 Frequencies --    302.2365               393.7087               408.9138
 Red. masses --      1.0638                 1.1010                 1.0801
 Frc consts  --      0.0573                 0.1006                 0.1064
 IR Inten    --      0.1302                 1.7161                 0.7099

                      7                      8                      9
                      A                      A                      A
 Frequencies --    669.7109               802.8090               844.4856
 Red. masses --      1.0864                 1.0425                 1.4509
 Frc consts  --      0.2871                 0.3959                 0.6096
 IR Inten    --     14.9206                 1.1680                18.3794

                     10                     11                     12
                      A                      A                      A
 Frequencies --    899.7699              1003.3750              1205.6419
 Red. masses --      1.1330                 1.0147                 1.5066
 Frc consts  --      0.5404                 0.6019                 1.2903
 IR Inten    --     64.1446                 0.0241                 0.0412

                     13                     14                     15
                      A                      A                      A
 Frequencies --   1318.4184              1391.3194              1396.4814
 Red. masses --      1.3990                 1.0981                 1.0973
 Frc consts  --      1.4327                 1.2524                 1.2608
 IR Inten    --      0.5412                 2.5095                 2.2708

                     16                     17                     18
                      A                      A                      A
 Frequencies --   1440.5340              1596.8255              3072.2642
 Red. masses --      1.1129                 2.3649                 1.0107
 Frc consts  --      1.3607                 3.5528                 5.6208
 IR Inten    --      4.7040                 0.1725                 0.0720

                     19                     20                     21
                      A                      A                      A
 Frequencies --   3090.2539              3102.1121              3164.0540
 Red. masses --      1.0485                 1.0666                 1.1146
 Frc consts  --      5.8996                 6.0472                 6.5746
 IR Inten    --     14.1741                 0.6704                 0.7632

                     22                     23                     24
                      A                      A                      A
 Frequencies --   3190.1774              3236.0439              3245.8924
 Red. masses --      1.1179                 1.1165                 1.1167
 Frc consts  --      6.7031                 6.8886                 6.9318
 IR Inten    --     23.7160                 7.6991                 7.6610

 - Thermochemistry -
 -------------------
 Temperature   298.150 Kelvin.  Pressure   1.00000 Atm.
 Atom     1 has atomic number  6 and mass  12.00000

 Molecular mass:    43.05478 amu.
 Principal axes and moments of inertia in atomic units:
                           1         2         3
     Eigenvalues --    65.80940 320.40620 348.71782
           X            0.99983   0.01857   0.00000
           Y           -0.01857   0.99983  -0.00004
           Z           -0.00000   0.00004   1.00000
 This molecule is an asymmetric top.
 Rotational symmetry number  1.
 Rotational temperatures (Kelvin)      1.31613     0.27033     0.24838
 Rotational constants (GHZ):          27.42376     5.63267     5.17536
    1 imaginary frequencies ignored.
 Zero-point vibrational energy     215541.4 (Joules/Mol)
                                   51.51563 (Kcal/Mol)
 Warning -- explicit consideration of   5 degrees of freedom as
           vibrations may cause significant error
 Vibrational temperatures:    105.46   269.60   434.85   566.46   588.34
          (Kelvin)            963.56  1155.06  1215.03  1294.57  1443.63
                             1734.65  1896.91  2001.80  2009.23  2072.61
                             2297.48  4420.30  4446.19  4463.25  4552.37
                             4589.95  4655.95  4670.12

 Zero-point correction=                           0.082095 (Hartree/Particle)
 Thermal correction to Energy=                    0.087741
 Thermal correction to Enthalpy=                  0.088685
 Thermal correction to Gibbs Free Energy=         0.054089
 Sum of electronic and zero-point Energies=           -118.147836
 Sum of electronic and thermal Energies=              -118.142190
 Sum of electronic and thermal Enthalpies=            -118.141246
 Sum of electronic and thermal Free Energies=         -118.175843

                     E (Thermal)             CV                S
                      KCal/Mol        Cal/Mol-Kelvin    Cal/Mol-Kelvin
 Total                   55.058             18.081             72.814
 Electronic               0.000              0.000              1.377
 Translational            0.889              2.981             37.206
 Rotational               0.889              2.981             23.512
 Vibrational             53.281             12.119             10.718
 Vibration     1          0.599              1.967              4.063
 Vibration     2          0.632              1.857              2.254
 Vibration     3          0.694              1.669              1.404
 Vibration     4          0.761              1.484              0.986
 Vibration     5          0.773              1.451              0.930

                           ! Non-Optimized Parameters !
 Normal termination of Gaussian 16 at Wed Oct  7 16:13:57 2020.
