 Gaussian 16, Revision A.03,
 Gaussian 16:  ES64L-G16RevA.03 25-Dec-2016

 ----------------------------------------------------------------------
 #P Opt(MaxCyc=100) PBEPBE/6-31G* 5D 7F Integral=UltraFineGrid SCF=(NoS
 ymm,XQC,MaxCyc=120) IOp(1/33=1)
 ----------------------------------------------------------------------

 TstMul:  Mul=     2
 TstMul:  ICh=     0
 TstMul:  Mul=     2
 Symbolic Z-matrix:
 Charge =  0 Multiplicity = 2

 SCF Done:  E(UPBE-PBE) =  -79.0284406317     A.U. after   13 cycles
 SCF Done:  E(UPBE-PBE) =  -79.0291278684     A.U. after   11 cycles
 SCF Done:  E(UPBE-PBE) =  -79.0291408683     A.U. after    9 cycles
 SCF Done:  E(UPBE-PBE) =  -79.0291425240     A.U. after    8 cycles
 Optimization completed.
    -- Stationary point found.

                         Standard orientation:
 ---------------------------------------------------------------------
 Center     Atomic      Atomic             Coordinates (Angstroms)
 Number     Number       Type             X           Y           Z
 ---------------------------------------------------------------------
      1          6           0       -0.011041   -0.693323   -0.000000
      2          6           0       -0.011041    0.795546    0.000000
      3          1           0        1.019610   -1.116174   -0.000000
      4          1           0       -0.511740   -1.106737    0.894108
      5          1           0       -0.511740   -1.106737   -0.894108
      6          1           0        0.068183    1.358154   -0.934135
      7          1           0        0.068183    1.358154    0.934135
 ---------------------------------------------------------------------

 The electronic state is 2-A'.
 Alpha  occ. eigenvalues --   -9.89119  -9.88344  -0.67605  -0.53804  -0.39382
 Alpha  occ. eigenvalues --   -0.35826  -0.33988  -0.30578  -0.15480
 Alpha virt. eigenvalues --    0.09111   0.11284   0.11852   0.14749   0.19305
 Alpha virt. eigenvalues --    0.22640   0.47902   0.50769   0.51415   0.57448
 Alpha virt. eigenvalues --    0.58240   0.70448   0.74605   0.81348   0.82397

  Beta  occ. eigenvalues --   -9.88424  -9.87777  -0.66162  -0.51767  -0.38749
  Beta  occ. eigenvalues --   -0.34698  -0.33192  -0.30153
  Beta virt. eigenvalues --   -0.06512   0.09608   0.12106   0.12738   0.15533
  Beta virt. eigenvalues --    0.19803   0.23619   0.48618   0.51105   0.56205
  Beta virt. eigenvalues --    0.59162   0.61342   0.71244   0.76516   0.82045

 Mulliken charges and spin densities:
               1          2
     1  C   -0.502409  -0.076020
     2  C   -0.312148   1.079487
     3  H    0.171488   0.067647
     4  H    0.169477   0.015472
     5  H    0.169477   0.015472
     6  H    0.152057  -0.051030
     7  H    0.152057  -0.051030
 Sum of Mulliken charges =  -0.00000   1.00000

 Dipole moment (field-independent basis, Debye):
    X=              0.1330    Y=             -0.2531    Z=              0.0000  Tot=              0.2859
 Quadrupole moment (field-independent basis, Debye-Ang):
   XX=            -14.9486   YY=            -13.8984   ZZ=            -13.3810
   XY=              0.1705   XZ=              0.0000   YZ=              0.0000

 Normal termination of Gaussian 16 at Wed Oct  7 16:08:23 2020.
