 Gaussian 16, Revision A.03,
 Gaussian 16:  ES64L-G16RevA.03 25-Dec-2016

 ----------------------------------------------------------------------
 #P Opt(MaxCyc=100) PBEPBE/6-31G* 5D 7F Integral=UltraFineGrid SCF=(NoS
 ymm,XQC,MaxCyc=120) IOp(1/33=1)
 ----------------------------------------------------------------------

 TstMul:  Mul=     2
 TstMul:  ICh=     0
 TstMul:  Mul=     2
 Symbolic Z-matrix:
 Charge =  0 Multiplicity = 2

 SCF Done:  E(UPBE-PBE) =  -39.7670577588     A.U. after   10 cycles
 SCF Done:  E(UPBE-PBE) =  -39.7673987274     A.U. after    9 cycles
 Optimization completed.
    -- Stationary point found.

                         Standard orientation:
 ---------------------------------------------------------------------
 Center     Atomic      Atomic             Coordinates (Angstroms)
 Number     Number       Type             X           Y           Z
 ---------------------------------------------------------------------
      1          6           0        0.000000    0.000000    0.000000
      2          1           0        0.000000    1.090857    0.000000
      3          1           0        0.944710   -0.545429    0.000000
      4          1           0       -0.944710   -0.545429    0.000000
 ---------------------------------------------------------------------

 The electronic state is 2-A2".
 Alpha  occ. eigenvalues --   -9.89588  -0.60910  -0.36535  -0.36535  -0.18287
 Alpha virt. eigenvalues --    0.08888   0.15362   0.15362   0.49796   0.51364
 Alpha virt. eigenvalues --    0.51364   0.64568   0.85682   0.85682   0.91316
 Alpha virt. eigenvalues --    1.57718   1.57718   1.92683   2.10029   2.10029
  Beta  occ. eigenvalues --   -9.88197  -0.57400  -0.35524  -0.35524
  Beta virt. eigenvalues --   -0.07977   0.10630   0.16018   0.16018   0.52563
  Beta virt. eigenvalues --    0.52563   0.57766   0.67675   0.86188   0.86188
  Beta virt. eigenvalues --    0.94946   1.65561   1.65561   2.03331   2.11276

 Mulliken charges and spin densities:
               1          2
     1  C   -0.513987   1.156713
     2  H    0.171329  -0.052238
     3  H    0.171329  -0.052238
     4  H    0.171329  -0.052238
 Sum of Mulliken charges =  -0.00000   1.00000

 Dipole moment (field-independent basis, Debye):
    X=             -0.0000    Y=              0.0000    Z=             -0.0000  Tot=              0.0000
 Quadrupole moment (field-independent basis, Debye-Ang):
   XX=             -6.9911   YY=             -6.9911   ZZ=             -8.7018
   XY=             -0.0000   XZ=              0.0000   YZ=              0.0000

 Normal termination of Gaussian 16 at Wed Oct  7 16:09:12 2020.
