 Gaussian 16, Revision A.03,
 Gaussian 16:  ES64L-G16RevA.03 25-Dec-2016

 ----------------------------------------------------------------------
 #P Opt(MaxCyc=100) PBEPBE/6-31G* 5D 7F Integral=UltraFineGrid SCF=(NoS
 ymm,XQC,MaxCyc=120) IOp(1/33=1)
 ----------------------------------------------------------------------

 TstMul:  Mul=     1
 TstMul:  ICh=     0
 TstMul:  Mul=     1
 Symbolic Z-matrix:
 Charge =  0 Multiplicity = 1

 SCF Done:  E(RPBE-PBE) =  -139.571369638     A.U. after   10 cycles
 SCF Done:  E(RPBE-PBE) =  -139.572140392     A.U. after   10 cycles
 SCF Done:  E(RPBE-PBE) =  -139.572150355     A.U. after    7 cycles
 SCF Done:  E(RPBE-PBE) =  -139.572151666     A.U. after    7 cycles
 Optimization completed.
    -- Stationary point found.

                         Standard orientation:
 ---------------------------------------------------------------------
 Center     Atomic      Atomic             Coordinates (Angstroms)
 Number     Number       Type             X           Y           Z
 ---------------------------------------------------------------------
      1          6           0        0.000000    0.000000   -0.630633
      2          9           0        0.000000    0.000000    0.755933
      3          1           0        0.000000    1.040096   -1.006532
      4          1           0        0.900750   -0.520048   -1.006532
      5          1           0       -0.900750   -0.520048   -1.006532
 ---------------------------------------------------------------------

 The electronic state is 1-A1.
 Alpha  occ. eigenvalues --  -24.23433  -9.95295  -1.06706  -0.62140  -0.41917
 Alpha  occ. eigenvalues --   -0.40915  -0.40915  -0.27018  -0.27018
 Alpha virt. eigenvalues --    0.07884   0.09811   0.13685   0.13685   0.47389
 Alpha virt. eigenvalues --    0.52111   0.52111   0.79067   0.79067   0.81523
 Alpha virt. eigenvalues --    0.94196   1.19373   1.20235   1.20235   1.45768

 Mulliken charges:
               1
     1  C   -0.150582
     2  F   -0.303211
     3  H    0.151264
     4  H    0.151264
     5  H    0.151264
 Sum of Mulliken charges =  -0.00000

 Dipole moment (field-independent basis, Debye):
    X=              0.0000    Y=              0.0000    Z=             -1.5889  Tot=              1.5889
 Quadrupole moment (field-independent basis, Debye-Ang):
   XX=            -11.7470   YY=            -11.7470   ZZ=            -11.9477
   XY=             -0.0000   XZ=             -0.0000   YZ=             -0.0000

 1\1\GINC-NODE52\FOpt\RPBEPBE\6-31G(d)\C1H3F1\RPEVERATI\07-Oct-2020\0\\
 #P Opt(MaxCyc=100) PBEPBE/6-31G* 5D 7F Integral=UltraFineGrid SCF=(NoS
 ymm,XQC,MaxCyc=120) IOp(1/33=1)\\TS search on BH76.\\0,1\C,0.,0.,0.051
 6798578\F,0.,0.,-1.3348853016\H,0.5200481562,-0.9007498289,0.427579489
 3\H,0.5200481562,0.9007498289,0.4275794893\H,-1.0400963124,0.,0.427579
 4893\\Version=ES64L-G16RevA.03\State=1-A1\HF=-139.5721517\RMSD=1.981e-
 09\RMSF=5.356e-05\Dipole=0.,0.,0.6251033\Quadrupole=0.049734,0.049734,
 -0.0994681,0.,0.,0.\PG=C03V [C3(C1F1),3SGV(H1)]\\@

 Normal termination of Gaussian 16 at Wed Oct  7 16:09:25 2020.
