 Gaussian 16, Revision A.03,

 ----------------------------------------------------------------------
 #P Opt(TS,MaxCyc=50,NoEigenTest,MaxStep=10,AddRedundant) PBEPBE/6-31G*
  5D 7F Integral=UltraFineGrid SCF=(NoSymm,XQC,MaxCyc=120) IOp(1/33=1)
 ----------------------------------------------------------------------

 TstMul:  Mul=     1
 TstMul:  ICh=    -1
 TstMul:  Mul=     1
 Symbolic Z-matrix:
 Charge = -1 Multiplicity = 1

 SCF Done:  E(RPBE-PBE) =  -959.887932321     A.U. after   13 cycles
 SCF Done:  E(RPBE-PBE) =  -959.888427660     A.U. after   11 cycles
 SCF Done:  E(RPBE-PBE) =  -959.888510363     A.U. after   12 cycles
 SCF Done:  E(RPBE-PBE) =  -959.888489182     A.U. after   11 cycles
 SCF Done:  E(RPBE-PBE) =  -959.888506203     A.U. after   11 cycles
 Optimization completed.
    -- Stationary point found.
 Normal termination of Gaussian 16 at Wed Oct  7 16:10:09 2020.
 Gaussian 16:  ES64L-G16RevA.03 25-Dec-2016

 ----------------------------------------------------------------------
 #P Freq PBEPBE/6-31G* 5D 7F Integral=UltraFineGrid SCF=(NoSymm,XQC,Max
 Cyc=120) IOp(1/33=1) Geom=Check Guess=Read
 ----------------------------------------------------------------------

 TstMul:  Mul=     1
 TstMul:  ICh=    -1
 TstMul:  Mul=     1
 Structure from the checkpoint file:  "MN_28_clch3clts_BH76_PBE_631Gs.chk"
 Charge = -1 Multiplicity = 1

                         Standard orientation:
 ---------------------------------------------------------------------
 Center     Atomic      Atomic             Coordinates (Angstroms)
 Number     Number       Type             X           Y           Z
 ---------------------------------------------------------------------
      1         17           0        2.350683   -0.000007   -0.000022
      2          6           0       -0.000297    0.000017    0.000075
      3          1           0       -0.000121    0.868687   -0.647314
      4          1           0       -0.000254   -0.994998   -0.428468
      5          1           0       -0.000123    0.126377    1.076059
      6         17           0       -2.350549   -0.000003   -0.000021
 ---------------------------------------------------------------------

 SCF Done:  E(RPBE-PBE) =  -959.888506203     A.U. after    1 cycles

 The electronic state is 1-A.
 Alpha  occ. eigenvalues -- -100.41423-100.41412  -9.78237  -8.92584  -8.92573
 Alpha  occ. eigenvalues --   -6.74758  -6.74746  -6.74217  -6.74217  -6.74207
 Alpha  occ. eigenvalues --   -6.74207  -0.51014  -0.48230  -0.43172  -0.22808
 Alpha  occ. eigenvalues --   -0.22808  -0.12104  -0.05006  -0.05006  -0.04296
 Alpha  occ. eigenvalues --   -0.04296  -0.04247
 Alpha virt. eigenvalues --    0.11186   0.23207   0.29770   0.29771   0.54421
 Alpha virt. eigenvalues --    0.54749   0.60757   0.60758   0.61188   0.61188
 Alpha virt. eigenvalues --    0.65548   0.69541   0.69541   0.70526   0.83850

 Mulliken charges:
               1
     1  Cl  -0.612434
     2  C   -0.436266
     3  H    0.220236
     4  H    0.220237
     5  H    0.220225
     6  Cl  -0.611998
 Sum of Mulliken charges =  -1.00000

 Dipole moment (field-independent basis, Debye):
    X=             -0.0048    Y=              0.0001    Z=              0.0002  Tot=              0.0048
 Quadrupole moment (field-independent basis, Debye-Ang):
   XX=            -71.0393   YY=            -35.4730   ZZ=            -35.4733
   XY=              0.0002   XZ=              0.0001   YZ=             -0.0000

  Exact polarizability: 101.046   0.000  22.857   0.000   0.000  22.857
 Approx polarizability: 218.733   0.001  33.061   0.000  -0.000  33.061

 ******    1 imaginary frequencies (negative Signs) ******

                      1                      2                      3
                      A                      A                      A
 Frequencies --   -306.9891               195.0344               195.2635
 Red. masses --     13.2413                 4.3434                 4.3435
 Frc consts  --      0.7352                 0.0973                 0.0976
 IR Inten    --    793.6268                11.6605                11.6600

                      4                      5                      6
                      A                      A                      A
 Frequencies --    209.5535               901.4467               901.5326
 Red. masses --     34.9626                 1.0123                 1.0123
 Frc consts  --      0.9046                 0.4847                 0.4848
 IR Inten    --      0.0002                 0.0001                 0.0000

                      7                      8                      9
                      A                      A                      A
 Frequencies --    962.4167              1370.9409              1371.0021
 Red. masses --      1.0438                 1.1050                 1.1050
 Frc consts  --      0.5696                 1.2236                 1.2237
 IR Inten    --     39.5906                 5.3435                 5.3430

                     10                     11                     12
                      A                      A                      A
 Frequencies --   3150.0454              3343.7297              3343.8042
 Red. masses --      1.0078                 1.1229                 1.1229
 Frc consts  --      5.8921                 7.3969                 7.3971
 IR Inten    --      0.0000                 0.0426                 0.0424

 - Thermochemistry -
 -------------------
 Temperature   298.150 Kelvin.  Pressure   1.00000 Atm.
 Atom     1 has atomic number 17 and mass  34.96885

 Molecular mass:    84.96118 amu.
 Principal axes and moments of inertia in atomic units:
                           1         2         3
     Eigenvalues --    12.672511386.314721386.31510
           X            1.00000   0.00000   0.00000
           Y           -0.00000   1.00000  -0.00011
           Z           -0.00000   0.00011   1.00000
 This molecule is an asymmetric top.
 Rotational symmetry number  1.
 Rotational temperatures (Kelvin)      6.83479     0.06248     0.06248
 Rotational constants (GHZ):         142.41387     1.30183     1.30183
    1 imaginary frequencies ignored.
 Zero-point vibrational energy      95370.9 (Joules/Mol)
                                   22.79419 (Kcal/Mol)
 Warning -- explicit consideration of   3 degrees of freedom as
           vibrations may cause significant error
 Vibrational temperatures:    280.61   280.94   301.50  1296.98  1297.10
          (Kelvin)           1384.70  1972.48  1972.57  4532.21  4810.88
                             4810.99

 Zero-point correction=                           0.036325 (Hartree/Particle)
 Thermal correction to Energy=                    0.041007
 Thermal correction to Enthalpy=                  0.041951
 Thermal correction to Gibbs Free Energy=         0.008328
 Sum of electronic and zero-point Energies=           -959.852181
 Sum of electronic and thermal Energies=              -959.847499
 Sum of electronic and thermal Enthalpies=            -959.846555
 Sum of electronic and thermal Free Energies=         -959.880178

                     E (Thermal)             CV                S
                      KCal/Mol        Cal/Mol-Kelvin    Cal/Mol-Kelvin
 Total                   25.732             13.131             70.766
 Electronic               0.000              0.000              0.000
 Translational            0.889              2.981             39.232
 Rotational               0.889              2.981             24.702
 Vibrational             23.955              7.169              6.831
 Vibration     1          0.636              1.847              2.179
 Vibration     2          0.636              1.846              2.177
 Vibration     3          0.642              1.826              2.048

 Optimization completed.
    -- Stationary point found.
 Normal termination of Gaussian 16 at Wed Oct  7 16:10:39 2020.
