 Gaussian 16, Revision A.03,
 Gaussian 16:  ES64L-G16RevA.03 25-Dec-2016

 ----------------------------------------------------------------------
 #P Opt(MaxCyc=100) PBEPBE/6-31G* 5D 7F Integral=UltraFineGrid SCF=(NoS
 ymm,XQC,MaxCyc=120) IOp(1/33=1)
 ----------------------------------------------------------------------

 TstMul:  Mul=     1
 TstMul:  ICh=     0
 TstMul:  Mul=     1
 Symbolic Z-matrix:
 Charge =  0 Multiplicity = 1

 SCF Done:  E(RPBE-PBE) =  -40.4433022860     A.U. after    8 cycles
 SCF Done:  E(RPBE-PBE) =  -40.4437244038     A.U. after    6 cycles
 Optimization completed.
    -- Stationary point found.

                         Standard orientation:
 ---------------------------------------------------------------------
 Center     Atomic      Atomic             Coordinates (Angstroms)
 Number     Number       Type             X           Y           Z
 ---------------------------------------------------------------------
      1          6           0        0.000000    0.000000    0.000000
      2          1           0        0.635387    0.635387    0.635387
      3          1           0       -0.635387   -0.635387    0.635387
      4          1           0        0.635387   -0.635387   -0.635387
      5          1           0       -0.635387    0.635387   -0.635387
 ---------------------------------------------------------------------

 The electronic state is 1-A1.
 Alpha  occ. eigenvalues --   -9.86788  -0.61780  -0.33883  -0.33883  -0.33883
 Alpha virt. eigenvalues --    0.09557   0.14833   0.14833   0.14833   0.50380
 Alpha virt. eigenvalues --    0.50380   0.50380   0.84434   0.84434   0.84434
 Alpha virt. eigenvalues --    0.88378   1.06862   1.58622   1.58622   2.15769

 Mulliken charges:
               1
     1  C   -0.686825
     2  H    0.171706
     3  H    0.171706
     4  H    0.171706
     5  H    0.171706
 Sum of Mulliken charges =   0.00000

 Dipole moment (field-independent basis, Debye):
    X=             -0.0000    Y=              0.0000    Z=             -0.0000  Tot=              0.0000
 Quadrupole moment (field-independent basis, Debye-Ang):
   XX=             -8.2458   YY=             -8.2458   ZZ=             -8.2458
   XY=             -0.0000   XZ=              0.0000   YZ=              0.0000

 Normal termination of Gaussian 16 at Wed Oct  7 16:09:33 2020.
