 Gaussian 16, Revision A.03,
 Gaussian 16:  ES64L-G16RevA.03 25-Dec-2016

 ----------------------------------------------------------------------
 #P Opt(MaxCyc=100) PBEPBE/6-31G* 5D 7F Integral=UltraFineGrid SCF=(NoS
 ymm,XQC,MaxCyc=120) IOp(1/33=1)
 ----------------------------------------------------------------------

 TstMul:  Mul=     1
 TstMul:  ICh=    -1
 TstMul:  Mul=     1
 Symbolic Z-matrix:
 Charge = -1 Multiplicity = 1

 SCF Done:  E(RPBE-PBE) =  -959.894956187     A.U. after   13 cycles
 SCF Done:  E(RPBE-PBE) =  -959.895958323     A.U. after   11 cycles
 SCF Done:  E(RPBE-PBE) =  -959.896182451     A.U. after   11 cycles
 SCF Done:  E(RPBE-PBE) =  -959.896424929     A.U. after   11 cycles
 SCF Done:  E(RPBE-PBE) =  -959.896485089     A.U. after   11 cycles
 SCF Done:  E(RPBE-PBE) =  -959.896492865     A.U. after    8 cycles
 SCF Done:  E(RPBE-PBE) =  -959.896494834     A.U. after    8 cycles
 SCF Done:  E(RPBE-PBE) =  -959.896495148     A.U. after    7 cycles
 Optimization completed.
    -- Stationary point found.

                         Standard orientation:
 ---------------------------------------------------------------------
 Center     Atomic      Atomic             Coordinates (Angstroms)
 Number     Number       Type             X           Y           Z
 ---------------------------------------------------------------------
      1         17           0        0.000000    0.000000   -2.351065
      2          6           0        0.000000    0.000000   -0.466091
      3          1           0       -0.000000    1.040355   -0.129483
      4          1           0       -0.900974   -0.520177   -0.129483
      5          1           0        0.900974   -0.520177   -0.129483
      6         17           0        0.000000    0.000000    2.538418
 ---------------------------------------------------------------------

 The electronic state is 1-A1.
 Alpha  occ. eigenvalues -- -100.49819-100.34555  -9.78052  -9.01268  -8.85537
 Alpha  occ. eigenvalues --   -6.83715  -6.82716  -6.82716  -6.67457  -6.67324
 Alpha  occ. eigenvalues --   -6.67324  -0.60674  -0.45276  -0.40607  -0.23063
 Alpha  occ. eigenvalues --   -0.23063  -0.20862  -0.11160  -0.11160   0.00928
 Alpha  occ. eigenvalues --    0.01383   0.01383
 Alpha virt. eigenvalues --    0.13445   0.24576   0.28468   0.28468   0.50235
 Alpha virt. eigenvalues --    0.54795   0.56128   0.56128   0.58956   0.63568
 Alpha virt. eigenvalues --    0.63568   0.68197   0.68885   0.68885   0.89192

 Mulliken charges:
               1
     1  Cl  -0.250640
     2  C   -0.519084
     3  H    0.217410
     4  H    0.217410
     5  H    0.217410
     6  Cl  -0.882507
 Sum of Mulliken charges =  -1.00000

 Dipole moment (field-independent basis, Debye):
    X=             -0.0000    Y=              0.0000    Z=             -6.8295  Tot=              6.8295
 Quadrupole moment (field-independent basis, Debye-Ang):
   XX=            -35.5491   YY=            -35.5491   ZZ=            -72.7179
   XY=              0.0000   XZ=              0.0000   YZ=              0.0000

 Normal termination of Gaussian 16 at Wed Oct  7 16:10:36 2020.
