 Gaussian 16, Revision A.03,
 Gaussian 16:  ES64L-G16RevA.03 25-Dec-2016

 ----------------------------------------------------------------------
 #P Opt(MaxCyc=100) PBEPBE/6-31G* 5D 7F Integral=UltraFineGrid SCF=(NoS
 ymm,XQC,MaxCyc=120) IOp(1/33=1)
 ----------------------------------------------------------------------

 TstMul:  Mul=     1
 TstMul:  ICh=     0
 TstMul:  Mul=     1
 Symbolic Z-matrix:
 Charge =  0 Multiplicity = 1

 SCF Done:  E(RPBE-PBE) =  -115.565625251     A.U. after   11 cycles
 SCF Done:  E(RPBE-PBE) =  -115.566720092     A.U. after   11 cycles
 SCF Done:  E(RPBE-PBE) =  -115.566733358     A.U. after    7 cycles
 Optimization completed.
    -- Stationary point found.

                         Standard orientation:
 ---------------------------------------------------------------------
 Center     Atomic      Atomic             Coordinates (Angstroms)
 Number     Number       Type             X           Y           Z
 ---------------------------------------------------------------------
      1          6           0       -0.047146    0.661077    0.000000
      2          8           0       -0.047146   -0.761303    0.000000
      3          1           0       -1.103382    0.975809    0.000000
      4          1           0        0.888132   -1.044655    0.000000
      5          1           0        0.437648    1.096404    0.899794
      6          1           0        0.437648    1.096404   -0.899794
 ---------------------------------------------------------------------

 The electronic state is 1-A'.
 Alpha  occ. eigenvalues --  -18.75597  -9.92395  -0.91853  -0.60666  -0.44606
 Alpha  occ. eigenvalues --   -0.37696  -0.36547  -0.27793  -0.20789
 Alpha virt. eigenvalues --    0.05030   0.10608   0.13684   0.14702   0.16956
 Alpha virt. eigenvalues --    0.49159   0.53894   0.54807   0.73337   0.79652
 Alpha virt. eigenvalues --    0.81544   0.84572   0.92818   0.95078   0.98649

 Mulliken charges:
               1
     1  C   -0.255689
     2  O   -0.587905
     3  H    0.171921
     4  H    0.392475
     5  H    0.139599
     6  H    0.139599
 Sum of Mulliken charges =  -0.00000

 Dipole moment (field-independent basis, Debye):
    X=              1.4013    Y=              0.8092    Z=             -0.0000  Tot=              1.6182
 Quadrupole moment (field-independent basis, Debye-Ang):
   XX=            -11.5507   YY=            -13.0334   ZZ=            -13.6382
   XY=             -2.0859   XZ=              0.0000   YZ=              0.0000

 1\1\GINC-NODE51\FOpt\RPBEPBE\6-31G(d)\C1H4O1\RPEVERATI\07-Oct-2020\0\\
 #P Opt(MaxCyc=100) PBEPBE/6-31G* 5D 7F Integral=UltraFineGrid SCF=(NoS
 ymm,XQC,MaxCyc=120) IOp(1/33=1)\\TS search on BH76.\\0,1\C,-0.04505526
 28,0.653659089,0.\O,-0.0605549659,-0.7686367903,0.\H,-1.0977983644,0.9
 798818149,0.\H,0.8715796438,-1.0621635043,0.\H,0.4444533556,1.08367719
 8,0.8997943104\H,0.4444533556,1.083677198,-0.8997943104\\Version=ES64L
 -G16RevA.03\State=1-A'\HF=-115.5667334\RMSD=8.151e-09\RMSF=1.548e-04\D
 ipole=0.5547626,0.3123499,0.\Quadrupole=0.8508814,-0.1836212,-0.667260

 Normal termination of Gaussian 16 at Wed Oct  7 16:09:15 2020.
