 Gaussian 16, Revision A.03,
 Gaussian 16:  ES64L-G16RevA.03 25-Dec-2016

 ----------------------------------------------------------------------
 #P Opt(MaxCyc=100) PBEPBE/6-31G* 5D 7F Integral=UltraFineGrid SCF=(NoS
 ymm,XQC,MaxCyc=120) IOp(1/33=1)
 ----------------------------------------------------------------------

 TstMul:  Mul=     1
 TstMul:  ICh=    -1
 TstMul:  Mul=     1
 Symbolic Z-matrix:
 Charge = -1 Multiplicity = 1

 SCF Done:  E(RPBE-PBE) =  -239.270989537     A.U. after   15 cycles
 SCF Done:  E(RPBE-PBE) =  -239.273276800     A.U. after   12 cycles
 SCF Done:  E(RPBE-PBE) =  -239.274487561     A.U. after   12 cycles
 SCF Done:  E(RPBE-PBE) =  -239.275118522     A.U. after   12 cycles
 SCF Done:  E(RPBE-PBE) =  -239.275234298     A.U. after   11 cycles
 SCF Done:  E(RPBE-PBE) =  -239.275275677     A.U. after    9 cycles
 SCF Done:  E(RPBE-PBE) =  -239.275277540     A.U. after    8 cycles
 SCF Done:  E(RPBE-PBE) =  -239.275279140     A.U. after    8 cycles
 Optimization completed.
    -- Stationary point found.

                         Standard orientation:
 ---------------------------------------------------------------------
 Center     Atomic      Atomic             Coordinates (Angstroms)
 Number     Number       Type             X           Y           Z
 ---------------------------------------------------------------------
      1          9           0        0.000000    0.000000   -1.808611
      2          6           0        0.000000    0.000000   -0.335117
      3          1           0       -0.000000    1.027058    0.049026
      4          1           0       -0.889459   -0.513529    0.049026
      5          1           0        0.889459   -0.513529    0.049026
      6          9           0        0.000000    0.000000    2.015680
 ---------------------------------------------------------------------

 The electronic state is 1-A1.
 Alpha  occ. eigenvalues --  -24.00946 -23.77052  -9.71720  -0.82445  -0.55560
 Alpha  occ. eigenvalues --   -0.38931  -0.18306  -0.17281  -0.17281  -0.05755
 Alpha  occ. eigenvalues --   -0.05755   0.11699   0.12762   0.12762
 Alpha virt. eigenvalues --    0.29323   0.31627   0.36074   0.36074   0.73099
 Alpha virt. eigenvalues --    0.73099   0.73744   1.02423   1.02423   1.06691
 Alpha virt. eigenvalues --    1.20578   1.39572   1.39572   1.39763   1.53830

 Mulliken charges:
               1
     1  F   -0.408575
     2  C   -0.210605
     3  H    0.123073
     4  H    0.123073
     5  H    0.123073
     6  F   -0.750040
 Sum of Mulliken charges =  -1.00000

 Dipole moment (field-independent basis, Debye):
    X=             -0.0000    Y=             -0.0000    Z=             -4.4793  Tot=              4.4793
 Quadrupole moment (field-independent basis, Debye-Ang):
   XX=            -18.0212   YY=            -18.0212   ZZ=            -38.8422
   XY=             -0.0000   XZ=             -0.0000   YZ=             -0.0000

 Normal termination of Gaussian 16 at Wed Oct  7 16:11:02 2020.
