 Gaussian 16, Revision A.03,
 Gaussian 16:  ES64L-G16RevA.03 25-Dec-2016

 ----------------------------------------------------------------------
 #P Opt(MaxCyc=100) PBEPBE/6-31G* 5D 7F Integral=UltraFineGrid SCF=(NoS
 ymm,XQC,MaxCyc=120) IOp(1/33=1)
 ----------------------------------------------------------------------

 TstMul:  Mul=     1
 TstMul:  ICh=     0
 TstMul:  Mul=     1
 Symbolic Z-matrix:
 Charge =  0 Multiplicity = 1

 SCF Done:  E(RPBE-PBE) =  -113.179859744     A.U. after   11 cycles
 SCF Done:  E(RPBE-PBE) =  -113.180664587     A.U. after    8 cycles
 SCF Done:  E(RPBE-PBE) =  -113.180685760     A.U. after    7 cycles
 Optimization completed.
    -- Stationary point found.

                         Standard orientation:
 ---------------------------------------------------------------------
 Center     Atomic      Atomic             Coordinates (Angstroms)
 Number     Number       Type             X           Y           Z
 ---------------------------------------------------------------------
      1          8           0        0.000000    0.000000    0.492439
      2          6           0        0.000000    0.000000   -0.656585
 ---------------------------------------------------------------------

 The electronic state is 1-SG.
 Alpha  occ. eigenvalues --  -18.87119 -10.00378  -1.05554  -0.50351  -0.41394
 Alpha  occ. eigenvalues --   -0.41394  -0.31552
 Alpha virt. eigenvalues --   -0.06067  -0.06067   0.23914   0.47970   0.47970
 Alpha virt. eigenvalues --    0.55709   0.68053   0.78654   0.86564   0.86564
 Alpha virt. eigenvalues --    1.41643   1.41643   1.45127   1.46340   1.46340

 Mulliken charges:
               1
     1  O   -0.130287
     2  C    0.130287
 Sum of Mulliken charges =   0.00000

 Dipole moment (field-independent basis, Debye):
    X=              0.0000    Y=              0.0000    Z=              0.1746  Tot=              0.1746
 Quadrupole moment (field-independent basis, Debye-Ang):
   XX=             -9.8862   YY=             -9.8862   ZZ=            -11.8923
   XY=             -0.0000   XZ=              0.0000   YZ=             -0.0000

 Normal termination of Gaussian 16 at Wed Oct  7 16:09:46 2020.
