 Gaussian 16, Revision A.03,

 ----------------------------------------------------------------------
 #P Opt(TS,MaxCyc=150,NoEigenTest,MaxStep=10,AddRedundant) PBEPBE/6-31G
 * 5D 7F Integral=UltraFineGrid SCF=(NoSymm,XQC,MaxCyc=120) IOp(1/33=1)
 ----------------------------------------------------------------------

 TstMul:  Mul=     1
 TstMul:  ICh=    -1
 TstMul:  Mul=     1
 Symbolic Z-matrix:
 Charge = -1 Multiplicity = 1

 SCF Done:  E(RPBE-PBE) =  -599.566782288     A.U. after   14 cycles
 SCF Done:  E(RPBE-PBE) =  -599.566808746     A.U. after    8 cycles
 SCF Done:  E(RPBE-PBE) =  -599.566823319     A.U. after   10 cycles
 SCF Done:  E(RPBE-PBE) =  -599.567448991     A.U. after   13 cycles
 SCF Done:  E(RPBE-PBE) =  -599.567505291     A.U. after   13 cycles
 SCF Done:  E(RPBE-PBE) =  -599.567499331     A.U. after   13 cycles
 SCF Done:  E(RPBE-PBE) =  -599.568251358     A.U. after   12 cycles
 SCF Done:  E(RPBE-PBE) =  -599.566726881     A.U. after   13 cycles
 SCF Done:  E(RPBE-PBE) =  -599.565362147     A.U. after   13 cycles
 SCF Done:  E(RPBE-PBE) =  -599.564118643     A.U. after   13 cycles
 SCF Done:  E(RPBE-PBE) =  -599.559227377     A.U. after   12 cycles
 SCF Done:  E(RPBE-PBE) =  -599.559489326     A.U. after   12 cycles
 SCF Done:  E(RPBE-PBE) =  -599.559668723     A.U. after   12 cycles
 SCF Done:  E(RPBE-PBE) =  -599.559812720     A.U. after   12 cycles
 SCF Done:  E(RPBE-PBE) =  -599.559922941     A.U. after   12 cycles
 SCF Done:  E(RPBE-PBE) =  -599.560001209     A.U. after   12 cycles
 SCF Done:  E(RPBE-PBE) =  -599.560050473     A.U. after   12 cycles
 SCF Done:  E(RPBE-PBE) =  -599.560074247     A.U. after   13 cycles
 SCF Done:  E(RPBE-PBE) =  -599.560079106     A.U. after   11 cycles
 Optimization completed.
    -- Stationary point found.
 Normal termination of Gaussian 16 at Wed Oct  7 16:17:22 2020.
 Gaussian 16:  ES64L-G16RevA.03 25-Dec-2016

 ----------------------------------------------------------------------
 #P Freq PBEPBE/6-31G* 5D 7F Integral=UltraFineGrid SCF=(NoSymm,XQC,Max
 Cyc=120) IOp(1/33=1) Geom=Check Guess=Read
 ----------------------------------------------------------------------

 TstMul:  Mul=     1
 TstMul:  ICh=    -1
 TstMul:  Mul=     1
 Structure from the checkpoint file:  "MN_37_fch3clts_BH76_PBE_631Gs.chk"
 Charge = -1 Multiplicity = 1

                         Standard orientation:
 ---------------------------------------------------------------------
 Center     Atomic      Atomic             Coordinates (Angstroms)
 Number     Number       Type             X           Y           Z
 ---------------------------------------------------------------------
      1          6           0        0.329893   -0.323796    0.000074
      2          9           0        2.634427    0.163007    0.000025
      3         17           0       -1.624190    0.108075    0.000029
      4          1           0        1.075366    0.516076   -0.000028
      5          1           0        0.423026   -0.938266   -0.904480
      6          1           0        0.423634   -0.939361    0.903352
 ---------------------------------------------------------------------

 SCF Done:  E(RPBE-PBE) =  -599.560079106     A.U. after    1 cycles

 The electronic state is 1-A.
 Alpha  occ. eigenvalues -- -100.44217 -23.85187  -9.72584  -8.95530  -6.77877
 Alpha  occ. eigenvalues --   -6.77054  -6.77052  -0.63427  -0.53482  -0.40125
 Alpha  occ. eigenvalues --   -0.18245  -0.16700  -0.14122  -0.06401  -0.06291
 Alpha  occ. eigenvalues --    0.04725   0.05181   0.05787
 Alpha virt. eigenvalues --    0.16355   0.27299   0.31328   0.38561   0.54148
 Alpha virt. eigenvalues --    0.59856   0.60547   0.63346   0.69893   0.70629
 Alpha virt. eigenvalues --    0.82343   0.97383   0.99422   1.01036   1.03609

 Mulliken charges:
               1
     1  C   -0.531692
     2  F   -0.635220
     3  Cl  -0.395789
     4  H    0.259999
     5  H    0.151288
     6  H    0.151413
 Sum of Mulliken charges =  -1.00000

 Dipole moment (field-independent basis, Debye):
    X=             -3.8053    Y=             -1.0092    Z=             -0.0003  Tot=              3.9369
 Quadrupole moment (field-independent basis, Debye-Ang):
   XX=            -54.3639   YY=            -26.9732   ZZ=            -26.6776
   XY=             -0.9129   XZ=              0.0005   YZ=             -0.0011

  Exact polarizability:  65.628  -0.658  19.401   0.001   0.001  19.518
 Approx polarizability: 174.871   0.942  28.051   0.000   0.001  28.332

 ******    1 imaginary frequencies (negative Signs) ******

                      1                      2                      3
                      A                      A                      A
 Frequencies --   -162.9839               215.7562               279.7057
 Red. masses --      2.7156                 1.7533                17.1307
 Frc consts  --      0.0425                 0.0481                 0.7896
 IR Inten    --     52.8017                 1.1177                 4.7198

                      4                      5                      6
                      A                      A                      A
 Frequencies --    377.4187               655.1456               919.8306
 Red. masses --      7.4112                 1.3099                 1.0931
 Frc consts  --      0.6220                 0.3312                 0.5449
 IR Inten    --    207.0385               206.2396                 0.6711

                      7                      8                      9
                      A                      A                      A
 Frequencies --   1138.3729              1393.7636              1410.4945
 Red. masses --      1.0794                 1.0653                 1.0771
 Frc consts  --      0.8241                 1.2193                 1.2626
 IR Inten    --      7.2149                 6.2650                 7.9441

                     10                     11                     12
                      A                      A                      A
 Frequencies --   2824.7193              3089.1735              3156.3528
 Red. masses --      1.0537                 1.0764                 1.1104
 Frc consts  --      4.9538                 6.0523                 6.5180
 IR Inten    --     88.8213                27.1070                36.9887

 - Thermochemistry -
 -------------------
 Temperature   298.150 Kelvin.  Pressure   1.00000 Atm.
 Atom     1 has atomic number  6 and mass  12.00000

 Molecular mass:    68.99073 amu.
 Principal axes and moments of inertia in atomic units:
                           1         2         3
     Eigenvalues --    20.79821 816.24052 825.27623
           X            1.00000  -0.00232  -0.00000
           Y            0.00232   1.00000   0.00003
           Z           -0.00000  -0.00003   1.00000
 This molecule is an asymmetric top.
 Rotational symmetry number  1.
 Rotational temperatures (Kelvin)      4.16449     0.10611     0.10495
 Rotational constants (GHZ):          86.77388     2.21104     2.18683
    1 imaginary frequencies ignored.
 Zero-point vibrational energy      92475.7 (Joules/Mol)
                                   22.10223 (Kcal/Mol)
 Warning -- explicit consideration of   3 degrees of freedom as
           vibrations may cause significant error
 Vibrational temperatures:    310.43   402.43   543.02   942.61  1323.43
          (Kelvin)           1637.86  2005.31  2029.39  4064.14  4444.63
                             4541.29

 Zero-point correction=                           0.035222 (Hartree/Particle)
 Thermal correction to Energy=                    0.039588
 Thermal correction to Enthalpy=                  0.040532
 Thermal correction to Gibbs Free Energy=         0.008258
 Sum of electronic and zero-point Energies=           -599.524857
 Sum of electronic and thermal Energies=              -599.520492
 Sum of electronic and thermal Enthalpies=            -599.519547
 Sum of electronic and thermal Free Energies=         -599.551821

                     E (Thermal)             CV                S
                      KCal/Mol        Cal/Mol-Kelvin    Cal/Mol-Kelvin
 Total                   24.842             12.859             67.926
 Electronic               0.000              0.000              0.000
 Translational            0.889              2.981             38.612
 Rotational               0.889              2.981             24.153
 Vibrational             23.064              6.897              5.161
 Vibration     1          0.645              1.817              1.994
 Vibration     2          0.680              1.711              1.535
 Vibration     3          0.748              1.518              1.049

 Optimization completed.
    -- Stationary point found.
 Normal termination of Gaussian 16 at Wed Oct  7 16:17:48 2020.
