 Gaussian 16, Revision A.03,
 Gaussian 16:  ES64L-G16RevA.03 25-Dec-2016

 ----------------------------------------------------------------------
 #P Opt(MaxCyc=100) PBEPBE/6-31G* 5D 7F Integral=UltraFineGrid SCF=(NoS
 ymm,XQC,MaxCyc=120) IOp(1/33=1)
 ----------------------------------------------------------------------

 TstMul:  Mul=     1
 TstMul:  ICh=    -1
 TstMul:  Mul=     1
 Symbolic Z-matrix:
 Charge = -1 Multiplicity = 1

 SCF Done:  E(RPBE-PBE) =  -599.551505096     A.U. after   18 cycles
 SCF Done:  E(RPBE-PBE) =  -599.555797433     A.U. after   14 cycles
 SCF Done:  E(RPBE-PBE) =  -599.559511894     A.U. after   13 cycles
 SCF Done:  E(RPBE-PBE) =  -599.563526321     A.U. after   15 cycles
 SCF Done:  E(RPBE-PBE) =  -599.567458519     A.U. after   13 cycles
 SCF Done:  E(RPBE-PBE) =  -599.589765531     A.U. after   13 cycles
 SCF Done:  E(RPBE-PBE) =  -599.613854754     A.U. after   13 cycles
 SCF Done:  E(RPBE-PBE) =  -599.620699001     A.U. after   12 cycles
 SCF Done:  E(RPBE-PBE) =  -599.623051608     A.U. after   11 cycles
 SCF Done:  E(RPBE-PBE) =  -599.623587319     A.U. after   11 cycles
 SCF Done:  E(RPBE-PBE) =  -599.625313967     A.U. after   11 cycles
 SCF Done:  E(RPBE-PBE) =  -599.626163198     A.U. after   10 cycles
 SCF Done:  E(RPBE-PBE) =  -599.626390382     A.U. after   10 cycles
 SCF Done:  E(RPBE-PBE) =  -599.626407206     A.U. after   10 cycles
 SCF Done:  E(RPBE-PBE) =  -599.626407761     A.U. after    7 cycles
 Optimization completed.
    -- Stationary point found.

                         Standard orientation:
 ---------------------------------------------------------------------
 Center     Atomic      Atomic             Coordinates (Angstroms)
 Number     Number       Type             X           Y           Z
 ---------------------------------------------------------------------
      1         17           0        0.000000    0.000000    1.974586
      2          6           0        0.000000    0.000000   -1.220177
      3          1           0        0.000000    1.032296   -0.836500
      4          1           0        0.893994   -0.516148   -0.836500
      5          1           0       -0.893994   -0.516148   -0.836500
      6          9           0        0.000000    0.000000   -2.637489
 ---------------------------------------------------------------------

 The electronic state is 1-A1.
 Alpha  occ. eigenvalues -- -100.32582 -24.08216  -9.78326  -8.83530  -6.65400
 Alpha  occ. eigenvalues --   -6.65346  -6.65346  -0.90749  -0.45575  -0.38725
 Alpha  occ. eigenvalues --   -0.25853  -0.24343  -0.24343  -0.11763  -0.11763
 Alpha  occ. eigenvalues --    0.02922   0.03200   0.03200
 Alpha virt. eigenvalues --    0.23723   0.26794   0.30550   0.30550   0.58206
 Alpha virt. eigenvalues --    0.65739   0.66521   0.66521   0.70104   0.70104
 Alpha virt. eigenvalues --    0.78183   0.96706   0.96706   1.04987   1.09295

 Mulliken charges:
               1
     1  Cl  -0.942563
     2  C   -0.166740
     3  H    0.156837
     4  H    0.156837
     5  H    0.156837
     6  F   -0.361208
 Sum of Mulliken charges =  -1.00000

 Dipole moment (field-independent basis, Debye):
    X=             -0.0000    Y=              0.0000    Z=             -6.3859  Tot=              6.3859
 Quadrupole moment (field-independent basis, Debye-Ang):
   XX=            -27.3791   YY=            -27.3791   ZZ=            -53.5672
   XY=             -0.0000   XZ=              0.0000   YZ=              0.0000

 Normal termination of Gaussian 16 at Wed Oct  7 16:12:30 2020.
