 Gaussian 16, Revision A.03,

 ----------------------------------------------------------------------
 #P Opt(TS,MaxCyc=50,NoEigenTest,MaxStep=10,AddRedundant) PBEPBE/6-31G*
  5D 7F Integral=UltraFineGrid SCF=(NoSymm,XQC,MaxCyc=120) IOp(1/33=1)
 ----------------------------------------------------------------------

 TstMul:  Mul=     1
 TstMul:  ICh=    -1
 TstMul:  Mul=     1
 Symbolic Z-matrix:
 Charge = -1 Multiplicity = 1

 SCF Done:  E(RPBE-PBE) =  -239.264362658     A.U. after   12 cycles
 SCF Done:  E(RPBE-PBE) =  -239.264938260     A.U. after   12 cycles
 SCF Done:  E(RPBE-PBE) =  -239.264989714     A.U. after    8 cycles
 SCF Done:  E(RPBE-PBE) =  -239.264989391     A.U. after   12 cycles
 SCF Done:  E(RPBE-PBE) =  -239.264987811     A.U. after    9 cycles
 Optimization completed.
    -- Stationary point found.
 Normal termination of Gaussian 16 at Wed Oct  7 16:10:44 2020.
 Gaussian 16:  ES64L-G16RevA.03 25-Dec-2016

 ----------------------------------------------------------------------
 #P Freq PBEPBE/6-31G* 5D 7F Integral=UltraFineGrid SCF=(NoSymm,XQC,Max
 Cyc=120) IOp(1/33=1) Geom=Check Guess=Read
 ----------------------------------------------------------------------

 TstMul:  Mul=     1
 TstMul:  ICh=    -1
 TstMul:  Mul=     1
 Structure from the checkpoint file:  "MN_39_fch3fts_BH76_PBE_631Gs.chk"
 Charge = -1 Multiplicity = 1

                         Standard orientation:
 ---------------------------------------------------------------------
 Center     Atomic      Atomic             Coordinates (Angstroms)
 Number     Number       Type             X           Y           Z
 ---------------------------------------------------------------------
      1          9           0        1.820551    0.000010   -0.000022
      2          6           0        0.000246   -0.000013    0.000032
      3          1           0       -0.000030   -0.359016    1.026597
      4          1           0        0.000038    1.068504   -0.202365
      5          1           0       -0.000077   -0.709657   -0.824049
      6          9           0       -1.820708    0.000017   -0.000020
 ---------------------------------------------------------------------

 SCF Done:  E(RPBE-PBE) =  -239.264987811     A.U. after    1 cycles

 The electronic state is 1-A.
 Alpha  occ. eigenvalues --  -23.86814 -23.86793  -9.70808  -0.66285  -0.65680
 Alpha  occ. eigenvalues --   -0.36786  -0.15432  -0.15430  -0.05838   0.03813
 Alpha  occ. eigenvalues --    0.03813   0.04430   0.05262   0.05262
 Alpha virt. eigenvalues --    0.28340   0.29720   0.35381   0.35382   0.75450
 Alpha virt. eigenvalues --    0.75453   0.82012   0.97717   1.06101   1.06105
 Alpha virt. eigenvalues --    1.29777   1.37611   1.37612   1.50742   1.51299

 Mulliken charges:
               1
     1  F   -0.601220
     2  C   -0.145139
     3  H    0.115944
     4  H    0.115954
     5  H    0.115951
     6  F   -0.601489
 Sum of Mulliken charges =  -1.00000

 Dipole moment (field-independent basis, Debye):
    X=              0.0036    Y=             -0.0001    Z=              0.0001  Tot=              0.0036
 Quadrupole moment (field-independent basis, Debye-Ang):
   XX=            -37.2468   YY=            -17.7201   ZZ=            -17.7204
   XY=              0.0001   XZ=              0.0000   YZ=              0.0000

  Exact polarizability:  31.394   0.000  15.216   0.000  -0.000  15.216
 Approx polarizability:  70.023   0.001  21.070   0.000  -0.000  21.069

 ******    1 imaginary frequencies (negative Signs) ******

                      1                      2                      3
                      A                      A                      A
 Frequencies --   -443.6980               314.4079               314.4426
 Red. masses --      8.8465                 4.3266                 4.3266
 Frc consts  --      1.0261                 0.2520                 0.2520
 IR Inten    --    570.8071                13.0590                13.0591

                      4                      5                      6
                      A                      A                      A
 Frequencies --    347.9975               927.7697               927.8223
 Red. masses --     18.9579                 1.0214                 1.0214
 Frc consts  --      1.3527                 0.5180                 0.5180
 IR Inten    --      0.0001                 0.0000                 0.0000

                      7                      8                      9
                      A                      A                      A
 Frequencies --   1040.0242              1326.8950              1327.0361
 Red. masses --      1.1086                 1.1241                 1.1241
 Frc consts  --      0.7065                 1.1661                 1.1663
 IR Inten    --      4.6411                 1.7766                 1.7743

                     10                     11                     12
                      A                      A                      A
 Frequencies --   3044.4948              3228.5564              3228.6223
 Red. masses --      1.0079                 1.1280                 1.1280
 Frc consts  --      5.5045                 6.9273                 6.9276
 IR Inten    --      0.0000                59.7682                59.7520

 - Thermochemistry -
 -------------------
 Temperature   298.150 Kelvin.  Pressure   1.00000 Atm.
 Atom     1 has atomic number  9 and mass  18.99840

 Molecular mass:    53.02028 amu.
 Principal axes and moments of inertia in atomic units:
                           1         2         3
     Eigenvalues --    12.76970 456.15171 456.15277
           X            1.00000   0.00000   0.00000
           Y           -0.00000   1.00000   0.00002
           Z           -0.00000  -0.00002   1.00000
 This molecule is an asymmetric top.
 Rotational symmetry number  1.
 Rotational temperatures (Kelvin)      6.78277     0.18988     0.18988
 Rotational constants (GHZ):         141.32999     3.95645     3.95644
    1 imaginary frequencies ignored.
 Zero-point vibrational energy      95869.1 (Joules/Mol)
                                   22.91327 (Kcal/Mol)
 Warning -- explicit consideration of   3 degrees of freedom as
           vibrations may cause significant error
 Vibrational temperatures:    452.36   452.41   500.69  1334.85  1334.93
          (Kelvin)           1496.36  1909.11  1909.31  4380.35  4645.17
                             4645.27

 Zero-point correction=                           0.036515 (Hartree/Particle)
 Thermal correction to Energy=                    0.040664
 Thermal correction to Enthalpy=                  0.041609
 Thermal correction to Gibbs Free Energy=         0.010934
 Sum of electronic and zero-point Energies=           -239.228473
 Sum of electronic and thermal Energies=              -239.224323
 Sum of electronic and thermal Enthalpies=            -239.223379
 Sum of electronic and thermal Free Energies=         -239.254053

                     E (Thermal)             CV                S
                      KCal/Mol        Cal/Mol-Kelvin    Cal/Mol-Kelvin
 Total                   25.517             12.366             64.559
 Electronic               0.000              0.000              0.000
 Translational            0.889              2.981             37.827
 Rotational               0.889              2.981             22.501
 Vibrational             23.740              6.404              4.231
 Vibration     1          0.702              1.646              1.339
 Vibration     2          0.702              1.646              1.339
 Vibration     3          0.726              1.579              1.175

                           ! Non-Optimized Parameters !
 Normal termination of Gaussian 16 at Wed Oct  7 16:11:13 2020.
