 Gaussian 16, Revision A.03,
 Gaussian 16:  ES64L-G16RevA.03 25-Dec-2016

 ----------------------------------------------------------------------
 #P PBEPBE/6-31G* 5D 7F Integral=UltraFineGrid SCF=(NoSymm,XQC,MaxCyc=1
 20) IOp(1/33=1) Stable=Opt
 ----------------------------------------------------------------------

 TstMul:  Mul=     2
 TstMul:  ICh=     0
 TstMul:  Mul=     2
 Symbolic Z-matrix:
 Charge =  0 Multiplicity = 2

                         Standard orientation:
 ---------------------------------------------------------------------
 Center     Atomic      Atomic             Coordinates (Angstroms)
 Number     Number       Type             X           Y           Z
 ---------------------------------------------------------------------
      1         17           0        0.000000    0.000000    0.000000
 ---------------------------------------------------------------------

 SCF Done:  E(UPBE-PBE) =  -459.923385401     A.U. after    9 cycles

 Unable to determine electronic state:  an orbital has unidentified symmetry.
 Alpha  occ. eigenvalues -- -100.70738  -9.21926  -7.05433  -7.03056  -7.03056
 Alpha  occ. eigenvalues --   -0.76643  -0.36276  -0.30681  -0.30681
 Alpha virt. eigenvalues --    0.29880   0.36484   0.39633   0.39633   0.71556
 Alpha virt. eigenvalues --    0.72998   0.72998   0.77840   0.77840
  Beta  occ. eigenvalues -- -100.70175  -9.21366  -7.03848  -7.02706  -7.02706
  Beta  occ. eigenvalues --   -0.72394  -0.29105  -0.29105
  Beta virt. eigenvalues --   -0.28207   0.31939   0.40487   0.40487   0.40796
  Beta virt. eigenvalues --    0.78725   0.78725   0.78912   0.78912   0.80455

 Mulliken charges and spin densities:
               1          2
     1  Cl  -0.000000   1.000000
 Sum of Mulliken charges =  -0.00000   1.00000

 Dipole moment (field-independent basis, Debye):
    X=             -0.0000    Y=             -0.0000    Z=              0.0000  Tot=              0.0000
 Quadrupole moment (field-independent basis, Debye-Ang):
   XX=            -12.9329   YY=            -12.9329   ZZ=            -10.7468
   XY=             -0.0000   XZ=             -0.0000   YZ=             -0.0022

 Normal termination of Gaussian 16 at Wed Oct  7 16:09:23 2020.
