 Gaussian 16, Revision A.03,
 Gaussian 16:  ES64L-G16RevA.03 25-Dec-2016

 ----------------------------------------------------------------------
 #P Opt(MaxCyc=100) PBEPBE/6-31G* 5D 7F Integral=UltraFineGrid SCF=(NoS
 ymm,XQC,MaxCyc=120) IOp(1/33=1)
 ----------------------------------------------------------------------

 TstMul:  Mul=     1
 TstMul:  ICh=    -1
 TstMul:  Mul=     1
 Symbolic Z-matrix:
 Charge = -1 Multiplicity = 1

 SCF Done:  E(RPBE-PBE) =  -599.625517694     A.U. after   12 cycles
 SCF Done:  E(RPBE-PBE) =  -599.626327185     A.U. after   11 cycles
 SCF Done:  E(RPBE-PBE) =  -599.626369908     A.U. after    8 cycles
 SCF Done:  E(RPBE-PBE) =  -599.626402161     A.U. after   10 cycles
 SCF Done:  E(RPBE-PBE) =  -599.626406173     A.U. after    8 cycles
 SCF Done:  E(RPBE-PBE) =  -599.626407435     A.U. after    7 cycles
 SCF Done:  E(RPBE-PBE) =  -599.626407735     A.U. after    7 cycles
 Optimization completed.
    -- Stationary point found.

                         Standard orientation:
 ---------------------------------------------------------------------
 Center     Atomic      Atomic             Coordinates (Angstroms)
 Number     Number       Type             X           Y           Z
 ---------------------------------------------------------------------
      1          9           0        0.000000    0.000000   -2.637651
      2          6           0        0.000000    0.000000   -1.220611
      3          1           0       -0.000000    1.032212   -0.836875
      4          1           0       -0.893922   -0.516106   -0.836875
      5          1           0        0.893922   -0.516106   -0.836875
      6         17           0        0.000000    0.000000    1.974891
 ---------------------------------------------------------------------

 The electronic state is 1-A1.
 Alpha  occ. eigenvalues -- -100.32580 -24.08223  -9.78326  -8.83528  -6.65398
 Alpha  occ. eigenvalues --   -6.65344  -6.65344  -0.90763  -0.45579  -0.38723
 Alpha  occ. eigenvalues --   -0.25863  -0.24351  -0.24351  -0.11766  -0.11766
 Alpha  occ. eigenvalues --    0.02924   0.03202   0.03202
 Alpha virt. eigenvalues --    0.23727   0.26798   0.30551   0.30551   0.58207
 Alpha virt. eigenvalues --    0.65735   0.66520   0.66520   0.70102   0.70102
 Alpha virt. eigenvalues --    0.78180   0.96706   0.96706   1.04993   1.09303

 Mulliken charges:
               1
     1  F   -0.361091
     2  C   -0.166728
     3  H    0.156816
     4  H    0.156816
     5  H    0.156816
     6  Cl  -0.942630
 Sum of Mulliken charges =  -1.00000

 Dipole moment (field-independent basis, Debye):
    X=             -0.0000    Y=             -0.0000    Z=             -6.3893  Tot=              6.3893
 Quadrupole moment (field-independent basis, Debye-Ang):
   XX=            -27.3793   YY=            -27.3793   ZZ=            -53.5698
   XY=             -0.0000   XZ=             -0.0000   YZ=              0.0000

 Normal termination of Gaussian 16 at Wed Oct  7 16:10:42 2020.
