 Gaussian 16, Revision A.03,
 Gaussian 16:  ES64L-G16RevA.03 25-Dec-2016

 ----------------------------------------------------------------------
 #P Opt(MaxCyc=100) PBEPBE/6-31G* 5D 7F Integral=UltraFineGrid SCF=(NoS
 ymm,XQC,MaxCyc=120) IOp(1/33=1)
 ----------------------------------------------------------------------

 TstMul:  Mul=     1
 TstMul:  ICh=     0
 TstMul:  Mul=     1
 Symbolic Z-matrix:
 Charge =  0 Multiplicity = 1

 SCF Done:  E(RPBE-PBE) =  -399.182801818     A.U. after   10 cycles
 SCF Done:  E(RPBE-PBE) =  -399.183291474     A.U. after    9 cycles
 SCF Done:  E(RPBE-PBE) =  -399.183292775     A.U. after    6 cycles
 Optimization completed.
    -- Stationary point found.

                         Standard orientation:
 ---------------------------------------------------------------------
 Center     Atomic      Atomic             Coordinates (Angstroms)
 Number     Number       Type             X           Y           Z
 ---------------------------------------------------------------------
      1         16           0       -0.000000   -0.000000    0.104703
      2          1           0        0.000000    0.978873   -0.837627
      3          1           0       -0.000000   -0.978873   -0.837627
 ---------------------------------------------------------------------

 The electronic state is 1-A1.
 Alpha  occ. eigenvalues --  -88.04659  -7.67816  -5.70134  -5.69775  -5.68882
 Alpha  occ. eigenvalues --   -0.67957  -0.40645  -0.32781  -0.22301
 Alpha virt. eigenvalues --   -0.01115   0.02675   0.29012   0.30797   0.31909
 Alpha virt. eigenvalues --    0.33829   0.63612   0.67418   0.70094   0.70846
 Alpha virt. eigenvalues --    0.70882   0.95083   1.11491

 Mulliken charges:
               1
     1  S   -0.261905
     2  H    0.130952
     3  H    0.130952
 Sum of Mulliken charges =  -0.00000

 Dipole moment (field-independent basis, Debye):
    X=             -0.0000    Y=             -0.0000    Z=             -1.4820  Tot=              1.4820
 Quadrupole moment (field-independent basis, Debye-Ang):
   XX=            -16.6287   YY=            -12.1946   ZZ=            -13.4867
   XY=              0.0000   XZ=              0.0000   YZ=             -0.0000

 Normal termination of Gaussian 16 at Wed Oct  7 16:10:12 2020.
