 Gaussian 16, Revision A.03,

 ----------------------------------------------------------------------
 #P Opt(TS,MaxCyc=50,NoEigenTest,MaxStep=10,AddRedundant) PBEPBE/6-31G*
  5D 7F Integral=UltraFineGrid SCF=(NoSymm,XQC,MaxCyc=120) IOp(1/33=1)
 ----------------------------------------------------------------------

 TstMul:  Mul=     1
 TstMul:  ICh=     0
 TstMul:  Mul=     1
 Symbolic Z-matrix:
 Charge =  0 Multiplicity = 1

 SCF Done:  E(RPBE-PBE) =  -93.2268958293     A.U. after   13 cycles
 SCF Done:  E(RPBE-PBE) =  -93.2270467538     A.U. after   11 cycles
 SCF Done:  E(RPBE-PBE) =  -93.2270337476     A.U. after   11 cycles
 SCF Done:  E(RPBE-PBE) =  -93.2270249769     A.U. after    9 cycles
 Optimization completed.
    -- Stationary point found.
 Normal termination of Gaussian 16 at Wed Oct  7 16:10:37 2020.
 Gaussian 16:  ES64L-G16RevA.03 25-Dec-2016

 ----------------------------------------------------------------------
 #P Freq PBEPBE/6-31G* 5D 7F Integral=UltraFineGrid SCF=(NoSymm,XQC,Max
 Cyc=120) IOp(1/33=1) Geom=Check Guess=Read
 ----------------------------------------------------------------------

 TstMul:  Mul=     1
 TstMul:  ICh=     0
 TstMul:  Mul=     1
 Structure from the checkpoint file:  "MN_49_hcnts_BH76_PBE_631Gs.chk"
 Charge =  0 Multiplicity = 1

                         Standard orientation:
 ---------------------------------------------------------------------
 Center     Atomic      Atomic             Coordinates (Angstroms)
 Number     Number       Type             X           Y           Z
 ---------------------------------------------------------------------
      1          6           0        0.080384    0.632955    0.000000
      2          7           0        0.080384   -0.571273    0.000000
      3          1           0       -1.044993    0.201183    0.000000
 ---------------------------------------------------------------------

 SCF Done:  E(RPBE-PBE) =  -93.2270249769     A.U. after    1 cycles

 The electronic state is 1-A'.
 Alpha  occ. eigenvalues --  -14.06722  -9.95576  -0.90053  -0.47223  -0.39991
 Alpha  occ. eigenvalues --   -0.33813  -0.28204
 Alpha virt. eigenvalues --   -0.09149  -0.02963   0.02796   0.29214   0.49076
 Alpha virt. eigenvalues --    0.49435   0.53238   0.62469   0.65579   0.69461
 Alpha virt. eigenvalues --    0.72691   0.77453   1.20061   1.40564   1.41874

 Mulliken charges:
               1
     1  C   -0.049651
     2  N   -0.218116
     3  H    0.267767
 Sum of Mulliken charges =   0.00000

 Dipole moment (field-independent basis, Debye):
    X=             -1.2213    Y=              0.0753    Z=              0.0000  Tot=              1.2236
 Quadrupole moment (field-independent basis, Debye-Ang):
   XX=             -9.4770   YY=            -14.0974   ZZ=            -11.8132
   XY=             -0.2013   XZ=              0.0000   YZ=              0.0000

  Exact polarizability:  13.164   0.400  17.724   0.000   0.000   8.718
 Approx polarizability:  23.197   2.149  44.547   0.000  -0.000  13.808

 ******    1 imaginary frequencies (negative Signs) ******

                      1                      2                      3
                     A'                     A'                     A'
 Frequencies --  -1097.4660              1985.7986              2546.1735
 Red. masses --      1.1631                11.8205                 1.0588
 Frc consts  --      0.8254                27.4636                 4.0444
 IR Inten    --     64.9285                 9.6139               103.1200

 - Thermochemistry -
 -------------------
 Temperature   298.150 Kelvin.  Pressure   1.00000 Atm.
 Atom     1 has atomic number  6 and mass  12.00000

 Molecular mass:    27.01090 amu.
 Principal axes and moments of inertia in atomic units:
                           1         2         3
     Eigenvalues --     4.36358  33.65245  38.01603
           X           -0.02886   0.99958   0.00000
           Y            0.99958   0.02886   0.00000
           Z            0.00000   0.00000   1.00000
 This molecule is an asymmetric top.
 Rotational symmetry number  1.
 Rotational temperatures (Kelvin)     19.84930     2.57378     2.27835
 Rotational constants (GHZ):         413.59227    53.62881    47.47316
    1 imaginary frequencies ignored.
 Zero-point vibrational energy      27107.2 (Joules/Mol)
                                    6.47878 (Kcal/Mol)
 Vibrational temperatures:   2857.12  3663.38
          (Kelvin)

 Zero-point correction=                           0.010325 (Hartree/Particle)
 Thermal correction to Energy=                    0.013158
 Thermal correction to Enthalpy=                  0.014102
 Thermal correction to Gibbs Free Energy=        -0.010697
 Sum of electronic and zero-point Energies=            -93.216700
 Sum of electronic and thermal Energies=               -93.213867
 Sum of electronic and thermal Enthalpies=             -93.212923
 Sum of electronic and thermal Free Energies=          -93.237722

                     E (Thermal)             CV                S
                      KCal/Mol        Cal/Mol-Kelvin    Cal/Mol-Kelvin
 Total                    8.257              5.976             52.193
 Electronic               0.000              0.000              0.000
 Translational            0.889              2.981             35.816
 Rotational               0.889              2.981             16.375
 Vibrational              6.479              0.014              0.002

 Optimization completed.
    -- Stationary point found.

 1\1\GINC-NODE13\Freq\RPBEPBE\6-31G(d)\C1H1N1\RPEVERATI\07-Oct-2020\0\\
 #P Freq PBEPBE/6-31G* 5D 7F Integral=UltraFineGrid SCF=(NoSymm,XQC,Max
 Cyc=120) IOp(1/33=1) Geom=Check Guess=Read\\TS search on BH76.\\0,1\C,
 0.0955586453,0.6371812219,0.\N,0.0622601703,-0.5665860858,0.\H,-1.0413
 267367,0.2366922492,0.\\Version=ES64L-G16RevA.03\State=1-A'\HF=-93.227
 025\RMSD=2.908e-10\RMSF=9.449e-05\ZeroPoint=0.0103246\Thermal=0.013157
 8\Dipole=-0.4794879,0.0428896,0.\DipoleDeriv=-0.2144372,0.0352346,0.,0
 .1845083,-0.0839225,0.,0.,0.,-0.131914,-0.100065,0.0603789,0.,-0.21562

 Normal termination of Gaussian 16 at Wed Oct  7 16:10:58 2020.
