 Gaussian 16, Revision A.03,
 Gaussian 16:  ES64L-G16RevA.03 25-Dec-2016

 ----------------------------------------------------------------------
 #P Opt(MaxCyc=100) PBEPBE/6-31G* 5D 7F Integral=UltraFineGrid SCF=(NoS
 ymm,XQC,MaxCyc=120) IOp(1/33=1)
 ----------------------------------------------------------------------

 TstMul:  Mul=     2
 TstMul:  ICh=     0
 TstMul:  Mul=     2
 Symbolic Z-matrix:
 Charge =  0 Multiplicity = 2

 SCF Done:  E(UPBE-PBE) =  -113.719753247     A.U. after   13 cycles
 SCF Done:  E(UPBE-PBE) =  -113.720543141     A.U. after   12 cycles
 SCF Done:  E(UPBE-PBE) =  -113.720560368     A.U. after   10 cycles
 Optimization completed.
    -- Stationary point found.

                         Standard orientation:
 ---------------------------------------------------------------------
 Center     Atomic      Atomic             Coordinates (Angstroms)
 Number     Number       Type             X           Y           Z
 ---------------------------------------------------------------------
      1          1           0       -0.891483    1.217160    0.000000
      2          6           0        0.063677    0.594646    0.000000
      3          8           0        0.063677   -0.598130    0.000000
 ---------------------------------------------------------------------

 The electronic state is 2-A'.
 Alpha  occ. eigenvalues --  -18.83319  -9.99173  -1.00755  -0.54848  -0.43309
 Alpha  occ. eigenvalues --   -0.38215  -0.37056  -0.16901
 Alpha virt. eigenvalues --   -0.08259   0.09616   0.20799   0.47287   0.48627
 Alpha virt. eigenvalues --    0.60536   0.64067   0.75707   0.82438   0.88254
 Alpha virt. eigenvalues --    0.92787   1.42634   1.43838   1.44111   1.45147

  Beta  occ. eigenvalues --  -18.82599  -9.98335  -0.99505  -0.52737  -0.41507
  Beta  occ. eigenvalues --   -0.37408  -0.33392
  Beta virt. eigenvalues --   -0.10580  -0.06484   0.12007   0.22197   0.48512
  Beta virt. eigenvalues --    0.53105   0.62000   0.66084   0.78014   0.83754
  Beta virt. eigenvalues --    0.88736   0.95168   1.43716   1.46380   1.46670

 Mulliken charges and spin densities:
               1          2
     1  H    0.150834   0.172510
     2  C    0.058351   0.570020
     3  O   -0.209185   0.257470
 Sum of Mulliken charges =   0.00000   1.00000

 Dipole moment (field-independent basis, Debye):
    X=             -0.8742    Y=              1.1066    Z=              0.0000  Tot=              1.4103
 Quadrupole moment (field-independent basis, Debye-Ang):
   XX=            -11.1329   YY=            -11.3562   ZZ=            -10.6502
   XY=             -0.9606   XZ=              0.0000   YZ=              0.0000

 Normal termination of Gaussian 16 at Wed Oct  7 16:10:42 2020.
