 Gaussian 16, Revision A.03,

 ----------------------------------------------------------------------
 #P Opt(TS,MaxCyc=50,NoEigenTest,MaxStep=10,AddRedundant) PBEPBE/6-31G*
  5D 7F Integral=UltraFineGrid SCF=(NoSymm,XQC,MaxCyc=120) IOp(1/33=1)
 ----------------------------------------------------------------------

 TstMul:  Mul=     2
 TstMul:  ICh=     0
 TstMul:  Mul=     2
 Symbolic Z-matrix:
 Charge =  0 Multiplicity = 2

 SCF Done:  E(UPBE-PBE) =  -109.890046844     A.U. after   15 cycles
 SCF Done:  E(UPBE-PBE) =  -109.890699223     A.U. after   13 cycles
 SCF Done:  E(UPBE-PBE) =  -109.890649737     A.U. after   10 cycles
 SCF Done:  E(UPBE-PBE) =  -109.890504483     A.U. after   11 cycles
 SCF Done:  E(UPBE-PBE) =  -109.890495199     A.U. after   10 cycles
 SCF Done:  E(UPBE-PBE) =  -109.889893676     A.U. after   14 cycles
 SCF Done:  E(UPBE-PBE) =  -109.889720731     A.U. after   13 cycles
 SCF Done:  E(UPBE-PBE) =  -109.889716380     A.U. after   10 cycles
 Optimization completed.
    -- Stationary point found.

 1\1\GINC-NODE53\FTS\UPBEPBE\6-31G(d)\H1N2(2)\RPEVERATI\07-Oct-2020\0\\
 #P Opt(TS,MaxCyc=50,NoEigenTest,MaxStep=10,AddRedundant) PBEPBE/6-31G*
  5D 7F Integral=UltraFineGrid SCF=(NoSymm,XQC,MaxCyc=120) IOp(1/33=1)\
 \TS search on BH76.\\0,2\N,0.1238482459,-0.6841821951,0.\N,0.116200873
 8,0.4493335798,0.\H,-1.2548088642,1.2131893259,0.\\Version=ES64L-G16Re
 vA.03\State=2-A'\HF=-109.8897164\S2=0.756644\S2-1=0.\S2A=0.750004\RMSD
 =9.389e-09\RMSF=5.958e-05\Dipole=-0.1104105,0.1128241,0.\Quadrupole=0.
 2962038,-0.6780239,0.3818201,-0.1385862,0.,0.\PG=CS [SG(H1N2)]\\@

 Normal termination of Gaussian 16 at Wed Oct  7 16:12:14 2020.
 Gaussian 16:  ES64L-G16RevA.03 25-Dec-2016

 ----------------------------------------------------------------------
 #P Freq PBEPBE/6-31G* 5D 7F Integral=UltraFineGrid SCF=(NoSymm,XQC,Max
 Cyc=120) IOp(1/33=1) Geom=Check Guess=Read
 ----------------------------------------------------------------------

 TstMul:  Mul=     2
 TstMul:  ICh=     0
 TstMul:  Mul=     2
 Structure from the checkpoint file:  "MN_59_hn2ts_BH76_PBE_631Gs.chk"
 Charge =  0 Multiplicity = 2

                         Standard orientation:
 ---------------------------------------------------------------------
 Center     Atomic      Atomic             Coordinates (Angstroms)
 Number     Number       Type             X           Y           Z
 ---------------------------------------------------------------------
      1          7           0        0.091055   -0.656095    0.000000
      2          7           0        0.091055    0.477447    0.000000
      3          1           0       -1.274770    1.250535    0.000000
 ---------------------------------------------------------------------

 SCF Done:  E(UPBE-PBE) =  -109.889716380     A.U. after    1 cycles

 The electronic state is 2-A'.
 Alpha  occ. eigenvalues --  -14.10583 -14.09196  -1.01420  -0.52162  -0.42965
 Alpha  occ. eigenvalues --   -0.40790  -0.37594  -0.21069
 Alpha virt. eigenvalues --   -0.07531  -0.04345   0.36886   0.55417   0.57105
 Alpha virt. eigenvalues --    0.58337   0.60837   0.70040   0.71736   0.74212
 Alpha virt. eigenvalues --    0.86954   1.23246   1.38911   1.40416   1.45212

  Beta  occ. eigenvalues --  -14.10485 -14.08645  -1.00880  -0.50494  -0.41012
  Beta  occ. eigenvalues --   -0.40408  -0.36312
  Beta virt. eigenvalues --   -0.12025  -0.06968   0.00065   0.37525   0.56717
  Beta virt. eigenvalues --    0.57348   0.60852   0.65842   0.70473   0.72388
  Beta virt. eigenvalues --    0.78630   0.90913   1.24384   1.39680   1.41485

 Mulliken charges and spin densities:
               1          2
     1  N    0.002075   0.264021
     2  N   -0.069791  -0.002900
     3  H    0.067716   0.738880
 Sum of Mulliken charges =   0.00000   1.00000

 Dipole moment (field-independent basis, Debye):
    X=             -0.2787    Y=              0.2887    Z=              0.0000  Tot=              0.4012
 Quadrupole moment (field-independent basis, Debye-Ang):
   XX=            -11.3754   YY=            -12.6806   ZZ=            -11.2576
   XY=             -0.1952   XZ=              0.0000   YZ=              0.0000

  Exact polarizability:  15.373  -7.350  20.181   0.000   0.000   6.161
 Approx polarizability:  26.066 -14.975  50.000   0.000   0.000   9.721

 ******    1 imaginary frequencies (negative Signs) ******

                      1                      2                      3
                     A'                     A'                     A'
 Frequencies --   -987.1030               630.9880              2172.1258
 Red. masses --      1.0870                 1.3789                10.5597
 Frc consts  --      0.6240                 0.3235                29.3544
 IR Inten    --    169.1006                 2.4527                63.2109

 - Thermochemistry -
 -------------------
 Temperature   298.150 Kelvin.  Pressure   1.00000 Atm.
 Atom     1 has atomic number  7 and mass  14.00307

 Molecular mass:    29.01397 amu.
 Principal axes and moments of inertia in atomic units:
                           1         2         3
     Eigenvalues --     5.25973  39.58421  44.84394
           X           -0.18860   0.98205   0.00000
           Y            0.98205   0.18860   0.00000
           Z            0.00000   0.00000   1.00000
 This molecule is an asymmetric top.
 Rotational symmetry number  1.
 Rotational temperatures (Kelvin)     16.46738     2.18809     1.93145
 Rotational constants (GHZ):         343.12440    45.59245    40.24493
    1 imaginary frequencies ignored.
 Zero-point vibrational energy      16766.3 (Joules/Mol)
                                    4.00725 (Kcal/Mol)
 Vibrational temperatures:    907.85  3125.20
          (Kelvin)

 Zero-point correction=                           0.006386 (Hartree/Particle)
 Thermal correction to Energy=                    0.009362
 Thermal correction to Enthalpy=                  0.010307
 Thermal correction to Gibbs Free Energy=        -0.015680
 Sum of electronic and zero-point Energies=           -109.883330
 Sum of electronic and thermal Energies=              -109.880354
 Sum of electronic and thermal Enthalpies=            -109.879410
 Sum of electronic and thermal Free Energies=         -109.905396

                     E (Thermal)             CV                S
                      KCal/Mol        Cal/Mol-Kelvin    Cal/Mol-Kelvin
 Total                    5.875              6.935             54.693
 Electronic               0.000              0.000              1.377
 Translational            0.889              2.981             36.030
 Rotational               0.889              2.981             16.886
 Vibrational              4.098              0.973              0.400

 Optimization completed.
    -- Stationary point found.
 Normal termination of Gaussian 16 at Wed Oct  7 16:12:41 2020.
