 Gaussian 16, Revision A.03,
 Gaussian 16:  ES64L-G16RevA.03 25-Dec-2016

 ----------------------------------------------------------------------
 #P Opt(MaxCyc=100) PBEPBE/6-31G* 5D 7F Integral=UltraFineGrid SCF=(NoS
 ymm,XQC,MaxCyc=120) IOp(1/33=1)
 ----------------------------------------------------------------------

 TstMul:  Mul=     1
 TstMul:  ICh=     0
 TstMul:  Mul=     1
 Symbolic Z-matrix:
 Charge =  0 Multiplicity = 1

 SCF Done:  E(RPBE-PBE) =  -100.317355317     A.U. after    9 cycles
 SCF Done:  E(RPBE-PBE) =  -100.318088534     A.U. after    9 cycles
 SCF Done:  E(RPBE-PBE) =  -100.318096885     A.U. after    7 cycles
 Optimization completed.
    -- Stationary point found.

                         Standard orientation:
 ---------------------------------------------------------------------
 Center     Atomic      Atomic             Coordinates (Angstroms)
 Number     Number       Type             X           Y           Z
 ---------------------------------------------------------------------
      1          9           0        0.000000    0.000000    0.094232
      2          1           0        0.000000    0.000000   -0.848086
 ---------------------------------------------------------------------

 The electronic state is 1-SG.
 Alpha  occ. eigenvalues --  -24.22386  -1.05501  -0.44985  -0.29844  -0.29844
 Alpha virt. eigenvalues --    0.03959   0.74843   1.12501   1.12501   1.20733
 Alpha virt. eigenvalues --    1.58445   1.73857   1.73857   1.80777   1.80777
 Alpha virt. eigenvalues --    2.51953

 Mulliken charges:
               1
     1  F   -0.473952
     2  H    0.473952
 Sum of Mulliken charges =   0.00000

 Dipole moment (field-independent basis, Debye):
    X=              0.0000    Y=              0.0000    Z=             -1.8264  Tot=              1.8264
 Quadrupole moment (field-independent basis, Debye-Ang):
   XX=             -5.4178   YY=             -5.4178   ZZ=             -3.3939
   XY=             -0.0000   XZ=              0.0000   YZ=              0.0000

 Normal termination of Gaussian 16 at Wed Oct  7 16:11:13 2020.
