 Gaussian 16, Revision A.03,

 ----------------------------------------------------------------------
 #P Opt(TS,MaxCyc=50,NoEigenTest,MaxStep=10,AddRedundant) PBEPBE/6-31G*
  5D 7F Integral=UltraFineGrid SCF=(NoSymm,XQC,MaxCyc=120) IOp(1/33=1)
 ----------------------------------------------------------------------

 TstMul:  Mul=     2
 TstMul:  ICh=     0
 TstMul:  Mul=     2
 Symbolic Z-matrix:
 Charge =  0 Multiplicity = 2

 SCF Done:  E(UPBE-PBE) =  -199.824968663     A.U. after   19 cycles
 SCF Done:  E(UPBE-PBE) =  -199.826907136     A.U. after   14 cycles
 SCF Done:  E(UPBE-PBE) =  -199.824921426     A.U. after   14 cycles
 SCF Done:  E(UPBE-PBE) =  -199.823478386     A.U. after   14 cycles
 SCF Done:  E(UPBE-PBE) =  -199.822309203     A.U. after   14 cycles
 SCF Done:  E(UPBE-PBE) =  -199.821365085     A.U. after   14 cycles
 SCF Done:  E(UPBE-PBE) =  -199.820600479     A.U. after   14 cycles
 SCF Done:  E(UPBE-PBE) =  -199.819975721     A.U. after   15 cycles
 SCF Done:  E(UPBE-PBE) =  -199.819458014     A.U. after   14 cycles
 SCF Done:  E(UPBE-PBE) =  -199.819022641     A.U. after   14 cycles
 SCF Done:  E(UPBE-PBE) =  -199.815490378     A.U. after    8 cycles
 SCF Done:  E(UPBE-PBE) =  -199.815473421     A.U. after    8 cycles
 SCF Done:  E(UPBE-PBE) =  -199.815459071     A.U. after    9 cycles
 SCF Done:  E(UPBE-PBE) =  -199.815446434     A.U. after    9 cycles
 SCF Done:  E(UPBE-PBE) =  -199.815435363     A.U. after    8 cycles
 SCF Done:  E(UPBE-PBE) =  -199.815426334     A.U. after    8 cycles
 SCF Done:  E(UPBE-PBE) =  -199.815419035     A.U. after    8 cycles
 SCF Done:  E(UPBE-PBE) =  -199.815413090     A.U. after    8 cycles
 SCF Done:  E(UPBE-PBE) =  -199.815408188     A.U. after    9 cycles
 Optimization completed.
    -- Stationary point found.

 1\1\GINC-NODE27\FTS\UPBEPBE\6-31G(d)\F2H1(2)\RPEVERATI\08-Oct-2020\0\\
 #P Opt(TS,MaxCyc=50,NoEigenTest,MaxStep=10,AddRedundant) PBEPBE/6-31G*
  5D 7F Integral=UltraFineGrid SCF=(NoSymm,XQC,MaxCyc=120) IOp(1/33=1)\
 \TS search on BH76.\\0,2\H,0.,0.,-3.8448404193\F,0.,0.,0.2206789207\F,
 0.,0.,1.6408053126\\Version=ES64L-G16RevA.03\State=2-SG\HF=-199.815408
 2\S2=0.75\S2-1=0.\S2A=0.75\RMSD=1.702e-09\RMSF=2.991e-05\Dipole=0.,0.,
 -0.0009207\Quadrupole=-0.2523602,-0.2523602,0.5047203,0.,0.,0.\PG=C*V
 [C*(H1F1F1)]\\@

 Normal termination of Gaussian 16 at Thu Oct  8 19:50:45 2020.
 Gaussian 16:  ES64L-G16RevA.03 25-Dec-2016

 ----------------------------------------------------------------------
 #P Freq PBEPBE/6-31G* 5D 7F Integral=UltraFineGrid SCF=(NoSymm,XQC,Max
 Cyc=120) IOp(1/33=1) Geom=Check Guess=Read
 ----------------------------------------------------------------------

 TstMul:  Mul=     2
 TstMul:  ICh=     0
 TstMul:  Mul=     2
 Structure from the checkpoint file:  "MN_52_hf2ts_BH76_PBE_631Gs.chk"
 Charge =  0 Multiplicity = 2

                         Standard orientation:
 ---------------------------------------------------------------------
 Center     Atomic      Atomic             Coordinates (Angstroms)
 Number     Number       Type             X           Y           Z
 ---------------------------------------------------------------------
      1          1           0        0.000000    0.000000   -4.524236
      2          9           0        0.000000    0.000000   -0.458717
      3          9           0        0.000000    0.000000    0.961410
 ---------------------------------------------------------------------

 SCF Done:  E(UPBE-PBE) =  -199.815408188     A.U. after    1 cycles

 The electronic state is 2-SG.
 Alpha  occ. eigenvalues --  -24.35356 -24.35345  -1.21535  -0.98801  -0.53575
 Alpha  occ. eigenvalues --   -0.43665  -0.43665  -0.31447  -0.31447  -0.27148
 Alpha virt. eigenvalues --   -0.18475   0.66311   1.00891   1.00891   1.03348
 Alpha virt. eigenvalues --    1.16414   1.18938   1.18938   1.20969   1.48047
 Alpha virt. eigenvalues --    1.48047   1.63919   1.63919   1.67545   1.86595

  Beta  occ. eigenvalues --  -24.35356 -24.35345  -1.21534  -0.98801  -0.53574
  Beta  occ. eigenvalues --   -0.43665  -0.43665  -0.31447  -0.31447
  Beta virt. eigenvalues --   -0.18475   0.67976   1.00892   1.00892   1.03354
  Beta virt. eigenvalues --    1.16417   1.18938   1.18938   1.20969   1.48047
  Beta virt. eigenvalues --    1.48047   1.63919   1.63919   1.67545   1.86595

 Mulliken charges and spin densities:
               1          2
     1  H    0.000101   0.999894
     2  F   -0.000062   0.000038
     3  F   -0.000039   0.000068
 Sum of Mulliken charges =  -0.00000   1.00000

 Dipole moment (field-independent basis, Debye):
    X=              0.0000    Y=             -0.0000    Z=             -0.0023  Tot=              0.0023
 Quadrupole moment (field-independent basis, Debye-Ang):
   XX=            -10.5637   YY=            -10.5637   ZZ=             -9.5454
   XY=              0.0000   XZ=              0.0000   YZ=             -0.0000

  Exact polarizability:   2.775   0.000   2.775  -0.000   0.000   9.776
 Approx polarizability:   3.553   0.000   3.553  -0.000   0.000  24.660

 ******    1 imaginary frequencies (negative Signs) ******

                      1                      2                      3
                     SG                     PI                     PI
 Frequencies --    -47.6596                13.1036                13.1036
 Red. masses --      1.0331                 2.1067                 2.1067
 Frc consts  --      0.0014                 0.0002                 0.0002
 IR Inten    --      0.0048                 0.0000                 0.0000

                      4
                     SG
 Frequencies --   1009.2874
 Red. masses --     18.9981
 Frc consts  --     11.4023
 IR Inten    --      0.0052

 - Thermochemistry -
 -------------------
 Temperature   298.150 Kelvin.  Pressure   1.00000 Atm.
 Atom     1 has atomic number  1 and mass   1.00783

 Molecular mass:    39.00463 amu.
 Principal axes and moments of inertia in atomic units:
                           1         2         3
     Eigenvalues --     0.00000 148.37188 148.37188
           X            0.00000   0.00000   1.00000
           Y            0.00000   1.00000   0.00000
           Z            1.00000   0.00000   0.00000
 This molecule is a prolate symmetric top.
 Rotational symmetry number  1.
 Rotational temperature (Kelvin)      0.58376
 Rotational constant (GHZ):          12.163634
    1 imaginary frequencies ignored.
 Zero-point vibrational energy       6193.6 (Joules/Mol)
                                    1.48031 (Kcal/Mol)
 Warning -- explicit consideration of   2 degrees of freedom as
           vibrations may cause significant error
 Vibrational temperatures:     18.85    18.85  1452.14
          (Kelvin)

 Zero-point correction=                           0.002359 (Hartree/Particle)
 Thermal correction to Energy=                    0.006584
 Thermal correction to Enthalpy=                  0.007529
 Thermal correction to Gibbs Free Energy=        -0.024641
 Sum of electronic and zero-point Energies=           -199.813049
 Sum of electronic and thermal Energies=              -199.808824
 Sum of electronic and thermal Enthalpies=            -199.807880
 Sum of electronic and thermal Free Energies=         -199.840049

                     E (Thermal)             CV                S
                      KCal/Mol        Cal/Mol-Kelvin    Cal/Mol-Kelvin
 Total                    4.132              9.308             67.706
 Electronic               0.000              0.000              1.377
 Translational            0.889              2.981             36.912
 Rotational               0.592              1.987             14.379
 Vibrational              2.651              4.340             15.038
 Vibration     1          0.593              1.987              7.474
 Vibration     2          0.593              1.987              7.474

                           ! Non-Optimized Parameters !
 Normal termination of Gaussian 16 at Thu Oct  8 19:50:52 2020.
