 Gaussian 16, Revision A.03,

 ----------------------------------------------------------------------
 #P Opt(TS,MaxCyc=50,NoEigenTest,MaxStep=10,AddRedundant) PBEPBE/6-31G*
  5D 7F Integral=UltraFineGrid SCF=(NoSymm,XQC,MaxCyc=120) IOp(1/33=1)
 ----------------------------------------------------------------------

 TstMul:  Mul=     2
 TstMul:  ICh=     0
 TstMul:  Mul=     2
 Symbolic Z-matrix:
 Charge =  0 Multiplicity = 2

 SCF Done:  E(UPBE-PBE) =  -100.769262451     A.U. after    9 cycles
 SCF Done:  E(UPBE-PBE) =  -100.770794972     A.U. after    9 cycles
 SCF Done:  E(UPBE-PBE) =  -100.771412830     A.U. after    9 cycles
 SCF Done:  E(UPBE-PBE) =  -100.771438146     A.U. after    7 cycles
 Optimization completed.
    -- Stationary point found.

 1\1\GINC-NODE52\FTS\UPBEPBE\6-31G(d)\F1H2(2)\RPEVERATI\07-Oct-2020\0\\
 #P Opt(TS,MaxCyc=50,NoEigenTest,MaxStep=10,AddRedundant) PBEPBE/6-31G*
  5D 7F Integral=UltraFineGrid SCF=(NoSymm,XQC,MaxCyc=120) IOp(1/33=1)\
 \TS search on BH76.\\0,2\H,0.,0.,1.1946643037\F,0.,0.,0.\H,0.,0.,-1.19
 46643037\\Version=ES64L-G16RevA.03\State=2-SGG\HF=-100.7714381\S2=0.75
 875\S2-1=0.\S2A=0.750001\RMSD=2.356e-09\RMSF=8.475e-05\Dipole=0.,0.,0.
 \Quadrupole=-0.5590293,-0.5590293,1.1180585,0.,0.,0.\PG=D*H [O(F1),C*(
 H1.H1)]\\@

 Normal termination of Gaussian 16 at Wed Oct  7 16:11:12 2020.
 Gaussian 16:  ES64L-G16RevA.03 25-Dec-2016

 ----------------------------------------------------------------------
 #P Freq PBEPBE/6-31G* 5D 7F Integral=UltraFineGrid SCF=(NoSymm,XQC,Max
 Cyc=120) IOp(1/33=1) Geom=Check Guess=Read
 ----------------------------------------------------------------------

 TstMul:  Mul=     2
 TstMul:  ICh=     0
 TstMul:  Mul=     2
 Structure from the checkpoint file:  "MN_54_hfhts_BH76_PBE_631Gs.chk"
 Charge =  0 Multiplicity = 2

                         Standard orientation:
 ---------------------------------------------------------------------
 Center     Atomic      Atomic             Coordinates (Angstroms)
 Number     Number       Type             X           Y           Z
 ---------------------------------------------------------------------
      1          1           0        0.000000    0.000000    1.194664
      2          9           0        0.000000    0.000000    0.000000
      3          1           0        0.000000    0.000000   -1.194664
 ---------------------------------------------------------------------

 SCF Done:  E(UPBE-PBE) =  -100.771438146     A.U. after    1 cycles

 The electronic state is 2-SGG.
 Alpha  occ. eigenvalues --  -24.26696  -1.05657  -0.52049  -0.32642  -0.32642
 Alpha  occ. eigenvalues --   -0.16471
 Alpha virt. eigenvalues --   -0.01736   0.55462   0.69153   1.09510   1.09510
 Alpha virt. eigenvalues --    1.52946   1.58698   1.71199   1.71199   1.78610
 Alpha virt. eigenvalues --    1.78610   2.23398
  Beta  occ. eigenvalues --  -24.26582  -1.05332  -0.49359  -0.32321  -0.32321
  Beta virt. eigenvalues --   -0.07177   0.04949   0.63645   0.78220   1.09938
  Beta virt. eigenvalues --    1.09938   1.53688   1.61591   1.70906   1.70906
  Beta virt. eigenvalues --    1.78748   1.78748   2.26348

 Mulliken charges and spin densities:
               1          2
     1  H    0.187706   0.550475
     2  F   -0.375413  -0.100950
     3  H    0.187706   0.550475
 Sum of Mulliken charges =  -0.00000   1.00000

 Dipole moment (field-independent basis, Debye):
    X=              0.0000    Y=             -0.0000    Z=              0.0000  Tot=              0.0000
 Quadrupole moment (field-independent basis, Debye-Ang):
   XX=             -6.9817   YY=             -6.9817   ZZ=             -4.7260
   XY=              0.0000   XZ=             -0.0000   YZ=              0.0000

  Exact polarizability:   1.959   0.000   1.959   0.000   0.000  34.183
 Approx polarizability:   2.396   0.000   2.396   0.000  -0.000  73.207

 ******    1 imaginary frequencies (negative Signs) ******

                      1                      2                      3
                     SGU                    PIU                    PIU
 Frequencies --  -2079.1701                91.2743                91.2743
 Red. masses --      1.1085                 1.1085                 1.1085
 Frc consts  --      2.8234                 0.0054                 0.0054
 IR Inten    --   3127.0660                44.1835                44.1835

                      4
                     SGG
 Frequencies --   2070.3664
 Red. masses --      1.0078
 Frc consts  --      2.5452
 IR Inten    --      0.0000

 - Thermochemistry -
 -------------------
 Temperature   298.150 Kelvin.  Pressure   1.00000 Atm.
 Atom     1 has atomic number  1 and mass   1.00783

 Molecular mass:    21.01405 amu.
 Principal axes and moments of inertia in atomic units:
                           1         2         3
     Eigenvalues --     0.00000  10.27317  10.27317
           X           -0.00000   0.70711   0.70711
           Y           -0.00000   0.70711  -0.70711
           Z            1.00000   0.00000   0.00000
 This molecule is a prolate symmetric top.
 Rotational symmetry number  2.
 Rotational temperature (Kelvin)      8.43108
 Rotational constant (GHZ):         175.675131
    1 imaginary frequencies ignored.
 Zero-point vibrational energy      13475.4 (Joules/Mol)
                                    3.22070 (Kcal/Mol)
 Warning -- explicit consideration of   2 degrees of freedom as
           vibrations may cause significant error
 Vibrational temperatures:    131.32   131.32  2978.80
          (Kelvin)

 Zero-point correction=                           0.005133 (Hartree/Particle)
 Thermal correction to Energy=                    0.008996
 Thermal correction to Enthalpy=                  0.009941
 Thermal correction to Gibbs Free Energy=        -0.014485
 Sum of electronic and zero-point Energies=           -100.766306
 Sum of electronic and thermal Energies=              -100.762442
 Sum of electronic and thermal Enthalpies=            -100.761498
 Sum of electronic and thermal Free Energies=         -100.785923

                     E (Thermal)             CV                S
                      KCal/Mol        Cal/Mol-Kelvin    Cal/Mol-Kelvin
 Total                    5.645              8.888             51.407
 Electronic               0.000              0.000              1.377
 Translational            0.889              2.981             35.068
 Rotational               0.592              1.987              7.695
 Vibrational              4.164              3.920              7.266
 Vibration     1          0.602              1.955              3.633
 Vibration     2          0.602              1.955              3.633

 Optimization completed.
    -- Stationary point found.
 Normal termination of Gaussian 16 at Wed Oct  7 16:11:37 2020.
