 Gaussian 16, Revision A.03,

 ----------------------------------------------------------------------
 #P Opt(TS,MaxCyc=50,NoEigenTest,MaxStep=10,AddRedundant) PBEPBE/6-31G*
  5D 7F Integral=UltraFineGrid SCF=(NoSymm,XQC,MaxCyc=120) IOp(1/33=1)
 ----------------------------------------------------------------------

 TstMul:  Mul=     2
 TstMul:  ICh=     0
 TstMul:  Mul=     2
 Symbolic Z-matrix:
 Charge =  0 Multiplicity = 2

 SCF Done:  E(UPBE-PBE) =  -140.029947194     A.U. after   14 cycles
 SCF Done:  E(UPBE-PBE) =  -140.030832218     A.U. after   12 cycles
 SCF Done:  E(UPBE-PBE) =  -140.031143475     A.U. after   13 cycles
 SCF Done:  E(UPBE-PBE) =  -140.030916719     A.U. after   13 cycles
 SCF Done:  E(UPBE-PBE) =  -140.030875889     A.U. after   13 cycles
 SCF Done:  E(UPBE-PBE) =  -140.030878586     A.U. after   10 cycles
 SCF Done:  E(UPBE-PBE) =  -140.030883390     A.U. after    9 cycles
 SCF Done:  E(UPBE-PBE) =  -140.030886502     A.U. after   10 cycles
 SCF Done:  E(UPBE-PBE) =  -140.030883481     A.U. after   10 cycles
 SCF Done:  E(UPBE-PBE) =  -140.030885222     A.U. after   11 cycles
 SCF Done:  E(UPBE-PBE) =  -140.030885310     A.U. after    8 cycles
 Optimization completed.
    -- Stationary point found.
 Normal termination of Gaussian 16 at Wed Oct  7 16:12:32 2020.
 Gaussian 16:  ES64L-G16RevA.03 25-Dec-2016

 ----------------------------------------------------------------------
 #P Freq PBEPBE/6-31G* 5D 7F Integral=UltraFineGrid SCF=(NoSymm,XQC,Max
 Cyc=120) IOp(1/33=1) Geom=Check Guess=Read
 ----------------------------------------------------------------------

 TstMul:  Mul=     2
 TstMul:  ICh=     0
 TstMul:  Mul=     2
 Structure from the checkpoint file:  "MN_53_hfch3ts_BH76_PBE_631Gs.chk"
 Charge =  0 Multiplicity = 2

                         Standard orientation:
 ---------------------------------------------------------------------
 Center     Atomic      Atomic             Coordinates (Angstroms)
 Number     Number       Type             X           Y           Z
 ---------------------------------------------------------------------
      1          1           0       -0.000444    2.050435    0.000000
      2          9           0        0.000019    0.775849    0.000000
      3          6           0        0.000019   -0.918377    0.000000
      4          1           0        1.063490   -1.173989    0.000000
      5          1           0       -0.531669   -1.174412    0.920921
      6          1           0       -0.531669   -1.174412   -0.920921
 ---------------------------------------------------------------------

 SCF Done:  E(UPBE-PBE) =  -140.030885310     A.U. after    1 cycles

 The electronic state is 2-A'.
 Alpha  occ. eigenvalues --  -24.23422  -9.93374  -1.01729  -0.63282  -0.43720
 Alpha  occ. eigenvalues --   -0.38670  -0.38668  -0.28279  -0.28279  -0.14940
 Alpha virt. eigenvalues --   -0.00562   0.08633   0.13924   0.13925   0.45748
 Alpha virt. eigenvalues --    0.51620   0.51621   0.64496   0.77536   0.82203
 Alpha virt. eigenvalues --    0.82206   0.96708   1.15775   1.15779   1.47668

  Beta  occ. eigenvalues --  -24.23353  -9.92578  -1.01529  -0.61622  -0.41719
  Beta  occ. eigenvalues --   -0.38080  -0.38079  -0.28068  -0.28067
  Beta virt. eigenvalues --   -0.07208   0.04575   0.09265   0.14417   0.14418
  Beta virt. eigenvalues --    0.49094   0.52098   0.52099   0.73447   0.79020
  Beta virt. eigenvalues --    0.82800   0.82802   0.98290   1.16291   1.16294

 Mulliken charges and spin densities:
               1          2
     1  H    0.109137   0.635288
     2  F   -0.321842  -0.085801
     3  C   -0.332132   0.511555
     4  H    0.181624  -0.020346
     5  H    0.181607  -0.020348
     6  H    0.181607  -0.020348
 Sum of Mulliken charges =  -0.00000   1.00000

 Dipole moment (field-independent basis, Debye):
    X=             -0.0001    Y=             -1.2846    Z=              0.0000  Tot=              1.2846
 Quadrupole moment (field-independent basis, Debye-Ang):
   XX=            -12.8126   YY=            -11.8825   ZZ=            -12.8130
   XY=             -0.0001   XZ=              0.0000   YZ=              0.0000

  Exact polarizability:  13.196  -0.004  48.542  -0.000  -0.000  13.195
 Approx polarizability:  18.015  -0.010  99.685   0.000   0.000  18.014

 ******    1 imaginary frequencies (negative Signs) ******

                      1                      2                      3
                     A'                     A'                     A"
 Frequencies --  -1275.6746               170.1340               170.1753
 Red. masses --      2.0212                 1.1607                 1.1606
 Frc consts  --      1.9380                 0.0198                 0.0198
 IR Inten    --   1174.8923                 8.8477                 8.8506

                      4                      5                      6
                     A"                     A'                     A'
 Frequencies --    777.7609               777.8807               952.9468
 Red. masses --      1.1332                 1.1332                 1.4552
 Frc consts  --      0.4039                 0.4040                 0.7786
 IR Inten    --      0.8958                 0.8969               158.9928

                      7                      8                      9
                     A'                     A'                     A"
 Frequencies --   1168.3644              1427.7097              1427.7218
 Red. masses --      1.2883                 1.0860                 1.0860
 Frc consts  --      1.0362                 1.3043                 1.3043
 IR Inten    --     55.0330                 3.4608                 3.4607

                     10                     11                     12
                     A'                     A"                     A'
 Frequencies --   3055.0475              3200.3391              3200.4802
 Red. masses --      1.0170                 1.1145                 1.1145
 Frc consts  --      5.5928                 6.7252                 6.7258
 IR Inten    --      1.2053                12.2833                12.2713

 - Thermochemistry -
 -------------------
 Temperature   298.150 Kelvin.  Pressure   1.00000 Atm.
 Atom     1 has atomic number  1 and mass   1.00783

 Molecular mass:    35.02970 amu.
 Principal axes and moments of inertia in atomic units:
                           1         2         3
     Eigenvalues --    12.20980 112.59574 112.59633
           X           -0.00002   1.00000   0.00000
           Y            1.00000   0.00002   0.00000
           Z           -0.00000   0.00000   1.00000
 This molecule is an asymmetric top.
 Rotational symmetry number  1.
 Rotational temperatures (Kelvin)      7.09380     0.76925     0.76924
 Rotational constants (GHZ):         147.81090    16.02850    16.02842
    1 imaginary frequencies ignored.
 Zero-point vibrational energy      97666.5 (Joules/Mol)
                                   23.34285 (Kcal/Mol)
 Warning -- explicit consideration of   2 degrees of freedom as
           vibrations may cause significant error
 Vibrational temperatures:    244.78   244.84  1119.02  1119.20  1371.08
          (Kelvin)           1681.02  2054.16  2054.17  4395.53  4604.57
                             4604.78

 Zero-point correction=                           0.037199 (Hartree/Particle)
 Thermal correction to Energy=                    0.041496
 Thermal correction to Enthalpy=                  0.042440
 Thermal correction to Gibbs Free Energy=         0.012433
 Sum of electronic and zero-point Energies=           -139.993686
 Sum of electronic and thermal Energies=              -139.989389
 Sum of electronic and thermal Enthalpies=            -139.988445
 Sum of electronic and thermal Free Energies=         -140.018453

                     E (Thermal)             CV                S
                      KCal/Mol        Cal/Mol-Kelvin    Cal/Mol-Kelvin
 Total                   26.039             11.947             63.157
 Electronic               0.000              0.000              1.377
 Translational            0.889              2.981             36.591
 Rotational               0.889              2.981             19.676
 Vibrational             24.262              5.985              5.512
 Vibration     1          0.625              1.879              2.434
 Vibration     2          0.625              1.879              2.434

 Optimization completed.
    -- Stationary point found.
 Normal termination of Gaussian 16 at Wed Oct  7 16:13:00 2020.
