 Gaussian 16, Revision A.03,

 ----------------------------------------------------------------------
 #P Opt(TS,MaxCyc=150,NoEigenTest,MaxStep=10,AddRedundant) PBEPBE/6-31G
 * 5D 7F Integral=UltraFineGrid SCF=(NoSymm,XQC,MaxCyc=120) IOp(1/33=1)
 ----------------------------------------------------------------------

 TstMul:  Mul=     2
 TstMul:  ICh=     0
 TstMul:  Mul=     2
 Symbolic Z-matrix:
 Charge =  0 Multiplicity = 2

 SCF Done:  E(UPBE-PBE) =  -113.680804321     A.U. after   14 cycles
 SCF Done:  E(UPBE-PBE) =  -113.681396714     A.U. after   13 cycles
 SCF Done:  E(UPBE-PBE) =  -113.681316862     A.U. after   10 cycles
 SCF Done:  E(UPBE-PBE) =  -113.681113166     A.U. after   12 cycles
 SCF Done:  E(UPBE-PBE) =  -113.680768340     A.U. after   13 cycles
 SCF Done:  E(UPBE-PBE) =  -113.680469136     A.U. after   13 cycles
 SCF Done:  E(UPBE-PBE) =  -113.680353304     A.U. after   10 cycles
 SCF Done:  E(UPBE-PBE) =  -113.680285382     A.U. after    9 cycles
 SCF Done:  E(UPBE-PBE) =  -113.680261594     A.U. after    9 cycles
 SCF Done:  E(UPBE-PBE) =  -113.680245929     A.U. after    8 cycles
 SCF Done:  E(UPBE-PBE) =  -113.679076221     A.U. after   13 cycles
 SCF Done:  E(UPBE-PBE) =  -113.678715707     A.U. after   13 cycles
 SCF Done:  E(UPBE-PBE) =  -113.678461041     A.U. after   13 cycles
 SCF Done:  E(UPBE-PBE) =  -113.678289445     A.U. after   13 cycles
 SCF Done:  E(UPBE-PBE) =  -113.678182056     A.U. after   13 cycles
 SCF Done:  E(UPBE-PBE) =  -113.678123491     A.U. after   12 cycles
 SCF Done:  E(UPBE-PBE) =  -113.678102712     A.U. after   12 cycles
 SCF Done:  E(UPBE-PBE) =  -113.678100604     A.U. after   10 cycles
 SCF Done:  E(UPBE-PBE) =  -113.678100558     A.U. after    9 cycles
 Optimization completed.
    -- Stationary point found.
 Normal termination of Gaussian 16 at Wed Oct  7 16:17:16 2020.
 Gaussian 16:  ES64L-G16RevA.03 25-Dec-2016

 ----------------------------------------------------------------------
 #P Freq PBEPBE/6-31G* 5D 7F Integral=UltraFineGrid SCF=(NoSymm,XQC,Max
 Cyc=120) IOp(1/33=1) Geom=Check Guess=Read
 ----------------------------------------------------------------------

 TstMul:  Mul=     2
 TstMul:  ICh=     0
 TstMul:  Mul=     2
 Structure from the checkpoint file:  "MN_51_hcots_BH76_PBE_631Gs.chk"
 Charge =  0 Multiplicity = 2

                         Standard orientation:
 ---------------------------------------------------------------------
 Center     Atomic      Atomic             Coordinates (Angstroms)
 Number     Number       Type             X           Y           Z
 ---------------------------------------------------------------------
      1          1           0       -1.939271    1.546279    0.000000
      2          6           0        0.138519    0.547126    0.000000
      3          8           0        0.138519   -0.603630    0.000000
 ---------------------------------------------------------------------

 SCF Done:  E(UPBE-PBE) =  -113.678100558     A.U. after    1 cycles

 The electronic state is 2-A'.
 Alpha  occ. eigenvalues --  -18.86927 -10.00534  -1.05378  -0.50329  -0.41502
 Alpha  occ. eigenvalues --   -0.41269  -0.33365  -0.25240
 Alpha virt. eigenvalues --   -0.06246  -0.05118   0.23485   0.47756   0.49874
 Alpha virt. eigenvalues --    0.58158   0.67357   0.73003   0.79119   0.86613
 Alpha virt. eigenvalues --    0.87678   1.41701   1.42216   1.45125   1.46179

  Beta  occ. eigenvalues --  -18.86854 -10.00455  -1.05264  -0.50182  -0.41192
  Beta  occ. eigenvalues --   -0.41148  -0.31885
  Beta virt. eigenvalues --   -0.09605  -0.06069  -0.00910   0.23586   0.47851
  Beta virt. eigenvalues --    0.50511   0.60168   0.67808   0.78781   0.86662
  Beta virt. eigenvalues --    0.88047   0.94109   1.41856   1.42511   1.45297

 Mulliken charges and spin densities:
               1          2
     1  H    0.007525   0.942833
     2  C    0.123880   0.030738
     3  O   -0.131405   0.026430
 Sum of Mulliken charges =  -0.00000   1.00000

 Dipole moment (field-independent basis, Debye):
    X=             -0.0727    Y=             -0.1028    Z=              0.0000  Tot=              0.1259
 Quadrupole moment (field-independent basis, Debye-Ang):
   XX=            -11.0934   YY=            -13.0198   ZZ=            -11.1689
   XY=             -0.1517   XZ=              0.0000   YZ=              0.0000

  Exact polarizability:  15.282  -3.902  15.230   0.000   0.000   8.085
 Approx polarizability:  22.740  -4.953  32.562   0.000  -0.000  13.291

 ******    1 imaginary frequencies (negative Signs) ******

                      1                      2                      3
                     A'                     A'                     A'
 Frequencies --   -283.6975               196.3321              2105.5232
 Red. masses --      1.0835                 1.6209                13.4035
 Frc consts  --      0.0514                 0.0368                35.0098
 IR Inten    --      0.5334                 0.6520                83.6394

 - Thermochemistry -
 -------------------
 Temperature   298.150 Kelvin.  Pressure   1.00000 Atm.
 Atom     1 has atomic number  1 and mass   1.00783

 Molecular mass:    29.00274 amu.
 Principal axes and moments of inertia in atomic units:
                           1         2         3
     Eigenvalues --    10.45819  46.49625  56.95444
           X           -0.35492   0.93490   0.00000
           Y            0.93490   0.35492   0.00000
           Z            0.00000   0.00000   1.00000
 This molecule is an asymmetric top.
 Rotational symmetry number  1.
 Rotational temperatures (Kelvin)      8.28192     1.86282     1.52076
 Rotational constants (GHZ):         172.56729    38.81477    31.68746
    1 imaginary frequencies ignored.
 Zero-point vibrational energy      13768.2 (Joules/Mol)
                                    3.29067 (Kcal/Mol)
 Warning -- explicit consideration of   1 degrees of freedom as
           vibrations may cause significant error
 Vibrational temperatures:    282.48  3029.38
          (Kelvin)

 Zero-point correction=                           0.005244 (Hartree/Particle)
 Thermal correction to Energy=                    0.008643
 Thermal correction to Enthalpy=                  0.009588
 Thermal correction to Gibbs Free Energy=        -0.017752
 Sum of electronic and zero-point Energies=           -113.672857
 Sum of electronic and thermal Energies=              -113.669457
 Sum of electronic and thermal Enthalpies=            -113.668513
 Sum of electronic and thermal Free Energies=         -113.695852

                     E (Thermal)             CV                S
                      KCal/Mol        Cal/Mol-Kelvin    Cal/Mol-Kelvin
 Total                    5.424              7.815             57.540
 Electronic               0.000              0.000              1.377
 Translational            0.889              2.981             36.028
 Rotational               0.889              2.981             17.966
 Vibrational              3.646              1.853              2.168
 Vibration     1          0.636              1.845              2.167

                           ! Non-Optimized Parameters !
 Normal termination of Gaussian 16 at Wed Oct  7 16:17:41 2020.
