 Gaussian 16, Revision A.03,
 Gaussian 16:  ES64L-G16RevA.03 25-Dec-2016

 ----------------------------------------------------------------------
 #P Opt(MaxCyc=100) PBEPBE/6-31G* 5D 7F Integral=UltraFineGrid SCF=(NoS
 ymm,XQC,MaxCyc=120) IOp(1/33=1)
 ----------------------------------------------------------------------

 TstMul:  Mul=     2
 TstMul:  ICh=     0
 TstMul:  Mul=     2
 Symbolic Z-matrix:
 Charge =  0 Multiplicity = 2

 SCF Done:  E(UPBE-PBE) =  -109.904376987     A.U. after   15 cycles
 SCF Done:  E(UPBE-PBE) =  -109.905099560     A.U. after   13 cycles
 SCF Done:  E(UPBE-PBE) =  -109.905140340     A.U. after   10 cycles
 SCF Done:  E(UPBE-PBE) =  -109.905143581     A.U. after    9 cycles
 Optimization completed.
    -- Stationary point found.

                         Standard orientation:
 ---------------------------------------------------------------------
 Center     Atomic      Atomic             Coordinates (Angstroms)
 Number     Number       Type             X           Y           Z
 ---------------------------------------------------------------------
      1          7           0       -0.063741    0.666434    0.000000
      2          7           0       -0.063741   -0.520796    0.000000
      3          1           0        0.892368   -1.019460    0.000000
 ---------------------------------------------------------------------

 The electronic state is 2-A'.
 Alpha  occ. eigenvalues --  -14.08141 -14.06811  -0.97731  -0.60581  -0.42218
 Alpha  occ. eigenvalues --   -0.38137  -0.35750  -0.16453
 Alpha virt. eigenvalues --   -0.08632   0.04455   0.33634   0.58280   0.58761
 Alpha virt. eigenvalues --    0.60881   0.63086   0.69333   0.70345   0.76250
 Alpha virt. eigenvalues --    0.88660   1.20470   1.40309   1.41977   1.42637

  Beta  occ. eigenvalues --  -14.07852 -14.05482  -0.96283  -0.58407  -0.38895
  Beta  occ. eigenvalues --   -0.37291  -0.33158
  Beta virt. eigenvalues --   -0.10089  -0.07316   0.06849   0.35057   0.59278
  Beta virt. eigenvalues --    0.59314   0.63150   0.67972   0.70658   0.71330
  Beta virt. eigenvalues --    0.79323   0.89823   1.22192   1.41807   1.44084

 Mulliken charges and spin densities:
               1          2
     1  N   -0.079927   0.689821
     2  N   -0.222845   0.129367
     3  H    0.302772   0.180812
 Sum of Mulliken charges =  -0.00000   1.00000

 Dipole moment (field-independent basis, Debye):
    X=              1.3498    Y=             -1.2569    Z=              0.0000  Tot=              1.8444
 Quadrupole moment (field-independent basis, Debye-Ang):
   XX=            -10.7480   YY=            -11.8806   ZZ=            -11.0001
   XY=             -1.3088   XZ=              0.0000   YZ=              0.0000

 Normal termination of Gaussian 16 at Wed Oct  7 16:11:45 2020.
