 Gaussian 16, Revision A.03,
 Gaussian 16:  ES64L-G16RevA.03 25-Dec-2016

 ----------------------------------------------------------------------
 #P Opt(MaxCyc=100) PBEPBE/6-31G* 5D 7F Integral=UltraFineGrid SCF=(NoS
 ymm,XQC,MaxCyc=120) IOp(1/33=1)
 ----------------------------------------------------------------------

 TstMul:  Mul=     1
 TstMul:  ICh=    -1
 TstMul:  Mul=     1
 Symbolic Z-matrix:
 Charge = -1 Multiplicity = 1

 SCF Done:  E(RPBE-PBE) =  -215.233711097     A.U. after   16 cycles
 SCF Done:  E(RPBE-PBE) =  -215.238481111     A.U. after   13 cycles
 SCF Done:  E(RPBE-PBE) =  -215.242262913     A.U. after   15 cycles
 SCF Done:  E(RPBE-PBE) =  -215.244134646     A.U. after   13 cycles
 SCF Done:  E(RPBE-PBE) =  -215.244525260     A.U. after   13 cycles
 SCF Done:  E(RPBE-PBE) =  -215.245097374     A.U. after   13 cycles
 SCF Done:  E(RPBE-PBE) =  -215.245224934     A.U. after   11 cycles
 SCF Done:  E(RPBE-PBE) =  -215.245311224     A.U. after   11 cycles
 SCF Done:  E(RPBE-PBE) =  -215.245344430     A.U. after   10 cycles
 SCF Done:  E(RPBE-PBE) =  -215.245408709     A.U. after   11 cycles
 SCF Done:  E(RPBE-PBE) =  -215.250322854     A.U. after   13 cycles
 SCF Done:  E(RPBE-PBE) =  -215.249648674     A.U. after   13 cycles
 SCF Done:  E(RPBE-PBE) =  -215.250634556     A.U. after   13 cycles
 SCF Done:  E(RPBE-PBE) =  -215.251013049     A.U. after   12 cycles
 SCF Done:  E(RPBE-PBE) =  -215.251268770     A.U. after   12 cycles
 SCF Done:  E(RPBE-PBE) =  -215.251317801     A.U. after   11 cycles
 SCF Done:  E(RPBE-PBE) =  -215.251328920     A.U. after    9 cycles
 SCF Done:  E(RPBE-PBE) =  -215.251332239     A.U. after    9 cycles
 SCF Done:  E(RPBE-PBE) =  -215.251333107     A.U. after    8 cycles
 SCF Done:  E(RPBE-PBE) =  -215.251333203     A.U. after    8 cycles
 Optimization completed.
    -- Stationary point found.

                         Standard orientation:
 ---------------------------------------------------------------------
 Center     Atomic      Atomic             Coordinates (Angstroms)
 Number     Number       Type             X           Y           Z
 ---------------------------------------------------------------------
      1          9           0        1.662369   -0.423939   -0.014623
      2          6           0        0.556219    0.493476    0.016202
      3          1           0        0.733832    1.238562   -0.795749
      4          1           0       -0.558723    0.028646   -0.092029
      5          1           0        0.637309    1.057319    0.976682
      6          8           0       -2.118157   -0.143029   -0.113562
      7          1           0       -2.165794   -0.325703    0.853987
 ---------------------------------------------------------------------

 The electronic state is 1-A.
 Alpha  occ. eigenvalues --  -24.02642 -18.38515  -9.71539  -0.84646  -0.49868
 Alpha  occ. eigenvalues --   -0.39068  -0.20087  -0.18822  -0.16414  -0.06684
 Alpha  occ. eigenvalues --   -0.06192  -0.02622   0.11823   0.12371
 Alpha virt. eigenvalues --    0.27483   0.28891   0.32394   0.33763   0.48158
 Alpha virt. eigenvalues --    0.68667   0.72839   0.76236   0.98785   1.00290
 Alpha virt. eigenvalues --    1.05257   1.08157   1.13365   1.20525   1.29767

 Mulliken charges:
               1
     1  F   -0.380798
     2  C   -0.244290
     3  H    0.052490
     4  H    0.246003
     5  H    0.048661
     6  O   -0.949500
     7  H    0.227434
 Sum of Mulliken charges =  -1.00000

 Dipole moment (field-independent basis, Debye):
    X=              4.9180    Y=              0.7612    Z=              1.2842  Tot=              5.1396
 Quadrupole moment (field-independent basis, Debye-Ang):
   XX=            -40.6834   YY=            -21.1065   ZZ=            -19.3810
   XY=             -0.0748   XZ=             -2.8911   YZ=             -0.5293

 Normal termination of Gaussian 16 at Wed Oct  7 16:16:43 2020.
