 Gaussian 16, Revision A.03,
 Gaussian 16:  ES64L-G16RevA.03 25-Dec-2016

 ----------------------------------------------------------------------
 #P Opt(MaxCyc=100) PBEPBE/6-31G* 5D 7F Integral=UltraFineGrid SCF=(NoS
 ymm,XQC,MaxCyc=120) IOp(1/33=1)
 ----------------------------------------------------------------------

 TstMul:  Mul=     1
 TstMul:  ICh=     0
 TstMul:  Mul=     1
 Symbolic Z-matrix:
 Charge =  0 Multiplicity = 1

 SCF Done:  E(RPBE-PBE) =  -184.483531649     A.U. after   13 cycles
 SCF Done:  E(RPBE-PBE) =  -184.485666085     A.U. after   12 cycles
 SCF Done:  E(RPBE-PBE) =  -184.485720332     A.U. after    9 cycles
 SCF Done:  E(RPBE-PBE) =  -184.485720524     A.U. after    7 cycles
 Optimization completed.
    -- Stationary point found.

                         Standard orientation:
 ---------------------------------------------------------------------
 Center     Atomic      Atomic             Coordinates (Angstroms)
 Number     Number       Type             X           Y           Z
 ---------------------------------------------------------------------
      1          7           0        0.000000    0.000000   -1.219793
      2          7           0        0.000000    0.000000   -0.069635
      3          8           0        0.000000    0.000000    1.128250
 ---------------------------------------------------------------------

 The electronic state is 1-SG.
 Alpha  occ. eigenvalues --  -18.87168 -14.21445 -14.08971  -1.14013  -0.98617
 Alpha  occ. eigenvalues --   -0.54074  -0.49611  -0.49611  -0.41233  -0.29553
 Alpha  occ. eigenvalues --   -0.29553
 Alpha virt. eigenvalues --   -0.05295  -0.05295   0.08075   0.38871   0.55677
 Alpha virt. eigenvalues --    0.56202   0.56202   0.69051   0.70092   0.70187
 Alpha virt. eigenvalues --    0.70187   0.90201   0.90201   0.97434   1.28723

 Mulliken charges:
               1
     1  N   -0.104077
     2  N    0.508190
     3  O   -0.404114
 Sum of Mulliken charges =   0.00000

 Dipole moment (field-independent basis, Debye):
    X=              0.0000    Y=             -0.0000    Z=              0.1900  Tot=              0.1900
 Quadrupole moment (field-independent basis, Debye-Ang):
   XX=            -15.0168   YY=            -15.0168   ZZ=            -18.6363
   XY=              0.0000   XZ=              0.0000   YZ=             -0.0000

 Normal termination of Gaussian 16 at Wed Oct  7 16:11:59 2020.
