 Gaussian 16, Revision A.03,
 Gaussian 16:  ES64L-G16RevA.03 25-Dec-2016

 ----------------------------------------------------------------------
 #P Opt(MaxCyc=100) PBEPBE/6-31G* 5D 7F Integral=UltraFineGrid SCF=(NoS
 ymm,XQC,MaxCyc=120) IOp(1/33=1)
 ----------------------------------------------------------------------

 TstMul:  Mul=     1
 TstMul:  ICh=     0
 TstMul:  Mul=     1
 Symbolic Z-matrix:
 Charge =  0 Multiplicity = 1

 SCF Done:  E(RPBE-PBE) =  -109.400796629     A.U. after    8 cycles
 SCF Done:  E(RPBE-PBE) =  -109.401835555     A.U. after    6 cycles
 SCF Done:  E(RPBE-PBE) =  -109.401849818     A.U. after    6 cycles
 Optimization completed.
    -- Stationary point found.

                         Standard orientation:
 ---------------------------------------------------------------------
 Center     Atomic      Atomic             Coordinates (Angstroms)
 Number     Number       Type             X           Y           Z
 ---------------------------------------------------------------------
      1          7           0        0.000000    0.000000    0.558317
      2          7           0        0.000000    0.000000   -0.558317
 ---------------------------------------------------------------------

 The electronic state is 1-SGG.
 Alpha  occ. eigenvalues --  -14.09858 -14.09778  -1.02207  -0.48872  -0.41141
 Alpha  occ. eigenvalues --   -0.41141  -0.36130
 Alpha virt. eigenvalues --   -0.06455  -0.06455   0.38057   0.57137   0.57188
 Alpha virt. eigenvalues --    0.57188   0.68635   0.70916   0.70916   0.74404
 Alpha virt. eigenvalues --    1.23076   1.38775   1.38775   1.46844   1.46844

 Mulliken charges:
               1
     1  N   -0.000000
     2  N   -0.000000
 Sum of Mulliken charges =  -0.00000

 Dipole moment (field-independent basis, Debye):
    X=             -0.0000    Y=              0.0000    Z=             -0.0000  Tot=              0.0000
 Quadrupole moment (field-independent basis, Debye-Ang):
   XX=            -10.0090   YY=            -10.0090   ZZ=            -11.6001
   XY=             -0.0000   XZ=              0.0000   YZ=             -0.0000

 Normal termination of Gaussian 16 at Wed Oct  7 16:11:20 2020.
