 Gaussian 16, Revision A.03,
 Gaussian 16:  ES64L-G16RevA.03 25-Dec-2016

 ----------------------------------------------------------------------
 #P Opt(MaxCyc=100) PBEPBE/6-31G* 5D 7F Integral=UltraFineGrid SCF=(NoS
 ymm,XQC,MaxCyc=120) IOp(1/33=1)
 ----------------------------------------------------------------------

 TstMul:  Mul=     1
 TstMul:  ICh=     0
 TstMul:  Mul=     1
 Symbolic Z-matrix:
 Charge =  0 Multiplicity = 1

 SCF Done:  E(RPBE-PBE) =  -93.2759105424     A.U. after   11 cycles
 SCF Done:  E(RPBE-PBE) =  -93.2767375743     A.U. after   10 cycles
 SCF Done:  E(RPBE-PBE) =  -93.2767416960     A.U. after    7 cycles
 Optimization completed.
    -- Stationary point found.

                         Standard orientation:
 ---------------------------------------------------------------------
 Center     Atomic      Atomic             Coordinates (Angstroms)
 Number     Number       Type             X           Y           Z
 ---------------------------------------------------------------------
      1          6           0        0.000000    0.000000   -0.750798
      2          7           0        0.000000    0.000000    0.437018
      3          1           0        0.000000    0.000000    1.445662
 ---------------------------------------------------------------------

 The electronic state is 1-SG.
 Alpha  occ. eigenvalues --  -14.03703  -9.93975  -0.85342  -0.60112  -0.32496
 Alpha  occ. eigenvalues --   -0.32496  -0.26162
 Alpha virt. eigenvalues --   -0.01234  -0.01234   0.03880   0.32519   0.46343
 Alpha virt. eigenvalues --    0.51843   0.51843   0.61219   0.68372   0.68372
 Alpha virt. eigenvalues --    0.86357   1.11970   1.37108   1.43024   1.43024

 Mulliken charges:
               1
     1  C    0.019108
     2  N   -0.377579
     3  H    0.358471
 Sum of Mulliken charges =  -0.00000

 Dipole moment (field-independent basis, Debye):
    X=              0.0000    Y=             -0.0000    Z=              2.9622  Tot=              2.9622
 Quadrupole moment (field-independent basis, Debye-Ang):
   XX=            -11.5448   YY=            -11.5448   ZZ=             -9.8950
   XY=             -0.0000   XZ=              0.0000   YZ=             -0.0000

 1\1\GINC-NODE58\FOpt\RPBEPBE\6-31G(d)\C1H1N1\RPEVERATI\07-Oct-2020\0\\
 #P Opt(MaxCyc=100) PBEPBE/6-31G* 5D 7F Integral=UltraFineGrid SCF=(NoS
 ymm,XQC,MaxCyc=120) IOp(1/33=1)\\TS search on BH76.\\0,1\C,0.,0.,-0.75
 61653608\N,0.,0.,0.4316505531\H,0.,0.,1.4402944819\\Version=ES64L-G16R
 evA.03\State=1-SG\HF=-93.2767417\RMSD=5.100e-09\RMSF=4.252e-05\Dipole=
 0.,0.,1.1654215\Quadrupole=-0.4088664,-0.4088664,0.8177328,0.,0.,0.\PG
 =C*V [C*(C1N1H1)]\\@

 Normal termination of Gaussian 16 at Wed Oct  7 16:11:30 2020.
