 Gaussian 16, Revision A.03,

 ----------------------------------------------------------------------
 #P Opt(TS,MaxCyc=50,NoEigenTest,MaxStep=10,AddRedundant) PBEPBE/6-31G*
  5D 7F Integral=UltraFineGrid SCF=(NoSymm,XQC,MaxCyc=120) IOp(1/33=1)
 ----------------------------------------------------------------------

 TstMul:  Mul=     1
 TstMul:  ICh=    -1
 TstMul:  Mul=     1
 Symbolic Z-matrix:
 Charge = -1 Multiplicity = 1

 SCF Done:  E(RPBE-PBE) =  -215.236664104     A.U. after   15 cycles
 SCF Done:  E(RPBE-PBE) =  -215.238183864     A.U. after   13 cycles
 SCF Done:  E(RPBE-PBE) =  -215.238329113     A.U. after   11 cycles
 SCF Done:  E(RPBE-PBE) =  -215.238413705     A.U. after   12 cycles
 SCF Done:  E(RPBE-PBE) =  -215.238428297     A.U. after    9 cycles
 SCF Done:  E(RPBE-PBE) =  -215.238441960     A.U. after    9 cycles
 SCF Done:  E(RPBE-PBE) =  -215.238460828     A.U. after   13 cycles
 SCF Done:  E(RPBE-PBE) =  -215.238421140     A.U. after   12 cycles
 SCF Done:  E(RPBE-PBE) =  -215.238412976     A.U. after   12 cycles
 SCF Done:  E(RPBE-PBE) =  -215.238413411     A.U. after    8 cycles
 SCF Done:  E(RPBE-PBE) =  -215.238413534     A.U. after    8 cycles
 SCF Done:  E(RPBE-PBE) =  -215.238415572     A.U. after    9 cycles
 SCF Done:  E(RPBE-PBE) =  -215.238413529     A.U. after    9 cycles
 Optimization completed.
    -- Stationary point found.
 Normal termination of Gaussian 16 at Wed Oct  7 16:13:42 2020.
 Gaussian 16:  ES64L-G16RevA.03 25-Dec-2016

 ----------------------------------------------------------------------
 #P Freq PBEPBE/6-31G* 5D 7F Integral=UltraFineGrid SCF=(NoSymm,XQC,Max
 Cyc=120) IOp(1/33=1) Geom=Check Guess=Read
 ----------------------------------------------------------------------

 TstMul:  Mul=     1
 TstMul:  ICh=    -1
 TstMul:  Mul=     1
 Structure from the checkpoint file:  "MN_63_hoch3fts_BH76_PBE_631Gs.chk"
 Charge = -1 Multiplicity = 1

                         Standard orientation:
 ---------------------------------------------------------------------
 Center     Atomic      Atomic             Coordinates (Angstroms)
 Number     Number       Type             X           Y           Z
 ---------------------------------------------------------------------
      1          9           0        1.859956   -0.021373   -0.000005
      2          6           0        0.074798    0.030453    0.000005
      3          1           0        0.031188    1.117053    0.000872
      4          1           0        0.016586   -0.501299   -0.946954
      5          1           0        0.016633   -0.502827    0.946109
      6          8           0       -1.900531    0.096567    0.000005
      7          1           0       -2.048552   -0.875823   -0.000048
 ---------------------------------------------------------------------

 SCF Done:  E(RPBE-PBE) =  -215.238413529     A.U. after    1 cycles

 The electronic state is 1-A.
 Alpha  occ. eigenvalues --  -23.88046 -18.43936  -9.70638  -0.67254  -0.55367
 Alpha  occ. eigenvalues --   -0.36885  -0.15686  -0.15607  -0.08003  -0.04271
 Alpha  occ. eigenvalues --    0.03415   0.03542   0.06738   0.08241
 Alpha virt. eigenvalues --    0.26519   0.28238   0.33877   0.35084   0.35330
 Alpha virt. eigenvalues --    0.74944   0.75646   0.85774   0.96796   1.02759
 Alpha virt. eigenvalues --    1.05305   1.07114   1.14347   1.17483   1.29137

 Mulliken charges:
               1
     1  F   -0.578082
     2  C   -0.189519
     3  H    0.128596
     4  H    0.115929
     5  H    0.115893
     6  O   -0.853708
     7  H    0.260890
 Sum of Mulliken charges =  -1.00000

 Dipole moment (field-independent basis, Debye):
    X=              0.3728    Y=             -1.1771    Z=             -0.0001  Tot=              1.2347
 Quadrupole moment (field-independent basis, Debye-Ang):
   XX=            -39.9964   YY=            -18.2666   ZZ=            -19.7368
   XY=              2.8975   XZ=              0.0002   YZ=              0.0001

  Exact polarizability:  40.881   2.243  20.656   0.000   0.000  16.290
 Approx polarizability:  90.858   0.332  31.448   0.000   0.000  22.610

 ******    1 imaginary frequencies (negative Signs) ******

                      1                      2                      3
                      A                      A                      A
 Frequencies --   -425.2450               210.6707               288.1684
 Red. masses --      9.3278                 1.0521                 3.3254
 Frc consts  --      0.9938                 0.0275                 0.1627
 IR Inten    --    653.2361                43.4020                11.6957

                      4                      5                      6
                      A                      A                      A
 Frequencies --    307.8329               336.7960               777.6875
 Red. masses --      4.4431                13.1533                 1.1238
 Frc consts  --      0.2481                 0.8791                 0.4004
 IR Inten    --     18.8776                 7.3556                26.9971

                      7                      8                      9
                      A                      A                      A
 Frequencies --    936.5217               980.4455              1062.8564
 Red. masses --      1.0209                 1.0660                 1.0589
 Frc consts  --      0.5275                 0.6037                 0.7048
 IR Inten    --      0.0260                 5.5882                 0.4867

                     10                     11                     12
                      A                      A                      A
 Frequencies --   1326.2021              1331.6390              3048.4498
 Red. masses --      1.1278                 1.1165                 1.0086
 Frc consts  --      1.1686                 1.1665                 5.5221
 IR Inten    --      1.1916                 1.9766                 0.1989

                     13                     14                     15
                      A                      A                      A
 Frequencies --   3229.3897              3234.5146              3527.9247
 Red. masses --      1.1283                 1.1257                 1.0676
 Frc consts  --      6.9331                 6.9391                 7.8291
 IR Inten    --     54.7053                46.3816                71.2829

 - Thermochemistry -
 -------------------
 Temperature   298.150 Kelvin.  Pressure   1.00000 Atm.
 Atom     1 has atomic number  9 and mass  18.99840

 Molecular mass:    51.02462 amu.
 Principal axes and moments of inertia in atomic units:
                           1         2         3
     Eigenvalues --    15.97794 461.88888 464.96910
           X            0.99989   0.01516   0.00000
           Y           -0.01516   0.99989  -0.00000
           Z           -0.00000   0.00000   1.00000
 This molecule is an asymmetric top.
 Rotational symmetry number  1.
 Rotational temperatures (Kelvin)      5.42084     0.18752     0.18628
 Rotational constants (GHZ):         112.95206     3.90731     3.88142
    1 imaginary frequencies ignored.
 Zero-point vibrational energy     123210.0 (Joules/Mol)
                                   29.44789 (Kcal/Mol)
 Warning -- explicit consideration of   4 degrees of freedom as
           vibrations may cause significant error
 Vibrational temperatures:    303.11   414.61   442.90   484.57  1118.92
          (Kelvin)           1347.45  1410.64  1529.21  1908.11  1915.93
                             4386.04  4646.37  4653.75  5075.90

 Zero-point correction=                           0.046928 (Hartree/Particle)
 Thermal correction to Energy=                    0.051747
 Thermal correction to Enthalpy=                  0.052691
 Thermal correction to Gibbs Free Energy=         0.020781
 Sum of electronic and zero-point Energies=           -215.191485
 Sum of electronic and thermal Energies=              -215.186666
 Sum of electronic and thermal Enthalpies=            -215.185722
 Sum of electronic and thermal Free Energies=         -215.217632

                     E (Thermal)             CV                S
                      KCal/Mol        Cal/Mol-Kelvin    Cal/Mol-Kelvin
 Total                   32.472             14.865             67.160
 Electronic               0.000              0.000              0.000
 Translational            0.889              2.981             37.712
 Rotational               0.889              2.981             22.755
 Vibrational             30.694              8.903              6.693
 Vibration     1          0.643              1.825              2.038
 Vibration     2          0.685              1.696              1.485
 Vibration     3          0.698              1.659              1.374
 Vibration     4          0.718              1.602              1.227

 Optimization completed.
    -- Stationary point found.
 Normal termination of Gaussian 16 at Wed Oct  7 16:14:13 2020.
