 Gaussian 16, Revision A.03,
 Gaussian 16:  ES64L-G16RevA.03 25-Dec-2016

 ----------------------------------------------------------------------
 #P Opt(MaxCyc=100) PBEPBE/6-31G* 5D 7F Integral=UltraFineGrid SCF=(NoS
 ymm,XQC,MaxCyc=120) IOp(1/33=1)
 ----------------------------------------------------------------------

 TstMul:  Mul=     2
 TstMul:  ICh=     0
 TstMul:  Mul=     2
 Symbolic Z-matrix:
 Charge =  0 Multiplicity = 2

 SCF Done:  E(UPBE-PBE) =  -398.539393429     A.U. after   12 cycles
 SCF Done:  E(UPBE-PBE) =  -398.539666257     A.U. after   11 cycles
 Optimization completed.
    -- Stationary point found.

                         Standard orientation:
 ---------------------------------------------------------------------
 Center     Atomic      Atomic             Coordinates (Angstroms)
 Number     Number       Type             X           Y           Z
 ---------------------------------------------------------------------
      1         16           0        0.000000    0.000000    0.080276
      2          1           0        0.000000    0.000000   -1.284417
 ---------------------------------------------------------------------

 Unable to determine electronic state:  partially filled degenerate orbitals.
 Alpha  occ. eigenvalues --  -88.07439  -7.70220  -5.73058  -5.72226  -5.71102
 Alpha  occ. eigenvalues --   -0.67088  -0.37217  -0.28349  -0.23455
 Alpha virt. eigenvalues --   -0.00216   0.24757   0.30006   0.30242   0.33105
 Alpha virt. eigenvalues --    0.64606   0.64758   0.67694   0.68590   0.68968
 Alpha virt. eigenvalues --    1.01772
  Beta  occ. eigenvalues --  -88.06985  -7.69743  -5.71923  -5.71745  -5.70811
  Beta  occ. eigenvalues --   -0.63852  -0.35915  -0.22016
  Beta virt. eigenvalues --   -0.20913   0.00961   0.26665   0.30995   0.33915
  Beta virt. eigenvalues --    0.34422   0.66700   0.69811   0.70449   0.73092
  Beta virt. eigenvalues --    0.74179   1.03034

 Mulliken charges and spin densities:
               1          2
     1  S   -0.116916   1.031356
     2  H    0.116916  -0.031356
 Sum of Mulliken charges =   0.00000   1.00000

 Dipole moment (field-independent basis, Debye):
    X=              0.0000    Y=              0.0000    Z=             -1.0915  Tot=              1.0915
 Quadrupole moment (field-independent basis, Debye-Ang):
   XX=            -15.6961   YY=            -12.8434   ZZ=            -11.9668
   XY=             -0.0000   XZ=              0.0000   YZ=             -0.0000

 Normal termination of Gaussian 16 at Wed Oct  7 16:11:09 2020.
