 Gaussian 16, Revision A.03,

 ----------------------------------------------------------------------
 #P Opt(TS,MaxCyc=50,NoEigenTest,MaxStep=10,AddRedundant) PBEPBE/6-31G*
  5D 7F Integral=UltraFineGrid SCF=(NoSymm,XQC,MaxCyc=120) IOp(1/33=1)
 ----------------------------------------------------------------------

 TstMul:  Mul=     2
 TstMul:  ICh=     0
 TstMul:  Mul=     2
 Symbolic Z-matrix:
 Charge =  0 Multiplicity = 2

 SCF Done:  E(UPBE-PBE) =  -184.962433040     A.U. after   17 cycles
 SCF Done:  E(UPBE-PBE) =  -184.965120580     A.U. after   16 cycles
 SCF Done:  E(UPBE-PBE) =  -184.966798086     A.U. after   16 cycles
 SCF Done:  E(UPBE-PBE) =  -184.965240521     A.U. after   16 cycles
 SCF Done:  E(UPBE-PBE) =  -184.964786947     A.U. after   16 cycles
 SCF Done:  E(UPBE-PBE) =  -184.964778292     A.U. after   12 cycles
 Optimization completed.
    -- Stationary point found.
 Normal termination of Gaussian 16 at Wed Oct  7 16:12:47 2020.
 Gaussian 16:  ES64L-G16RevA.03 25-Dec-2016

 ----------------------------------------------------------------------
 #P Freq PBEPBE/6-31G* 5D 7F Integral=UltraFineGrid SCF=(NoSymm,XQC,Max
 Cyc=120) IOp(1/33=1) Geom=Check Guess=Read
 ----------------------------------------------------------------------

 TstMul:  Mul=     2
 TstMul:  ICh=     0
 TstMul:  Mul=     2
 Structure from the checkpoint file:  "MN_68_n2ohts_BH76_PBE_631Gs.chk"
 Charge =  0 Multiplicity = 2

                         Standard orientation:
 ---------------------------------------------------------------------
 Center     Atomic      Atomic             Coordinates (Angstroms)
 Number     Number       Type             X           Y           Z
 ---------------------------------------------------------------------
      1          1           0       -0.387231   -2.018222    0.000000
      2          8           0       -0.873658   -0.621796    0.000000
      3          7           0       -0.000000    0.255401    0.000000
      4          7           0        1.053785    0.743541   -0.000000
 ---------------------------------------------------------------------

 SCF Done:  E(UPBE-PBE) =  -184.964778292     A.U. after    1 cycles

 The electronic state is 2-A'.
 Alpha  occ. eigenvalues --  -18.88859 -14.19397 -14.09001  -1.12231  -0.97184
 Alpha  occ. eigenvalues --   -0.58302  -0.48792  -0.48269  -0.42057  -0.33436
 Alpha  occ. eigenvalues --   -0.30213  -0.19135
 Alpha virt. eigenvalues --   -0.07758  -0.06492   0.09789   0.41377   0.54185
 Alpha virt. eigenvalues --    0.56297   0.56756   0.64551   0.67006   0.69302
 Alpha virt. eigenvalues --    0.70129   0.72551   0.87742   0.88186   1.05377

  Beta  occ. eigenvalues --  -18.88795 -14.19207 -14.08488  -1.11767  -0.96590
  Beta  occ. eigenvalues --   -0.57376  -0.47963  -0.47896  -0.40966  -0.31421
  Beta  occ. eigenvalues --   -0.29903
  Beta virt. eigenvalues --   -0.12168  -0.05968  -0.02893   0.10364   0.41946
  Beta virt. eigenvalues --    0.56464   0.57023   0.57663   0.67582   0.68930
  Beta virt. eigenvalues --    0.70501   0.72238   0.75079   0.87873   0.88787

 Mulliken charges and spin densities:
               1          2
     1  H    0.057914   0.707589
     2  O   -0.360914  -0.073559
     3  N    0.404623   0.091939
     4  N   -0.101622   0.274030
 Sum of Mulliken charges =  -0.00000   1.00000

 Dipole moment (field-independent basis, Debye):
    X=             -0.2762    Y=             -0.2862    Z=             -0.0000  Tot=              0.3977
 Quadrupole moment (field-independent basis, Debye-Ang):
   XX=            -18.8092   YY=            -17.2358   ZZ=            -16.3884
   XY=             -1.4406   XZ=              0.0000   YZ=              0.0000

  Exact polarizability:  22.540  12.164  38.079   0.000   0.000   7.663
 Approx polarizability:  75.633  54.784 107.612  -0.000   0.000  11.837

 ******    1 imaginary frequencies (negative Signs) ******

                      1                      2                      3
                     A'                     A'                     A"
 Frequencies --  -1162.0959               468.6760               561.1794
 Red. masses --      1.4803                 1.3430                 4.6304
 Frc consts  --      1.1779                 0.1738                 0.8592
 IR Inten    --    395.6619                11.2510                 5.4262

                      4                      5                      6
                     A'                     A'                     A'
 Frequencies --    799.5915              1203.2221              2117.1858
 Red. masses --      2.5070                 5.8380                13.9166
 Frc consts  --      0.9444                 4.9798                36.7538
 IR Inten    --      0.5036                30.1484               212.4627

 - Thermochemistry -
 -------------------
 Temperature   298.150 Kelvin.  Pressure   1.00000 Atm.
 Atom     1 has atomic number  1 and mass   1.00783

 Molecular mass:    45.00889 amu.
 Principal axes and moments of inertia in atomic units:
                           1         2         3
     Eigenvalues --     8.76377 158.22201 166.98578
           X            0.77983  -0.62599   0.00000
           Y            0.62599   0.77983   0.00000
           Z           -0.00000   0.00000   1.00000
 This molecule is an asymmetric top.
 Rotational symmetry number  1.
 Rotational temperatures (Kelvin)      9.88319     0.54742     0.51869
 Rotational constants (GHZ):         205.93217    11.40639    10.80775
    1 imaginary frequencies ignored.
 Zero-point vibrational energy      30803.0 (Joules/Mol)
                                    7.36209 (Kcal/Mol)
 Warning -- explicit consideration of   2 degrees of freedom as
           vibrations may cause significant error
 Vibrational temperatures:    674.32   807.41  1150.43  1731.17  3046.16
          (Kelvin)

 Zero-point correction=                           0.011732 (Hartree/Particle)
 Thermal correction to Energy=                    0.015091
 Thermal correction to Enthalpy=                  0.016035
 Thermal correction to Gibbs Free Energy=        -0.012617
 Sum of electronic and zero-point Energies=           -184.953046
 Sum of electronic and thermal Energies=              -184.949687
 Sum of electronic and thermal Enthalpies=            -184.948743
 Sum of electronic and thermal Free Energies=         -184.977395

                     E (Thermal)             CV                S
                      KCal/Mol        Cal/Mol-Kelvin    Cal/Mol-Kelvin
 Total                    9.470              9.258             60.304
 Electronic               0.000              0.000              1.377
 Translational            0.889              2.981             37.338
 Rotational               0.889              2.981             20.076
 Vibrational              7.692              3.297              1.512
 Vibration     1          0.826              1.320              0.741
 Vibration     2          0.917              1.115              0.521

 Optimization completed.
    -- Stationary point found.
 Normal termination of Gaussian 16 at Wed Oct  7 16:13:18 2020.
