 Gaussian 16, Revision A.03,
 Gaussian 16:  ES64L-G16RevA.03 25-Dec-2016

 ----------------------------------------------------------------------
 #P Opt(MaxCyc=100) PBEPBE/6-31G* 5D 7F Integral=UltraFineGrid SCF=(NoS
 ymm,XQC,MaxCyc=120) IOp(1/33=1)
 ----------------------------------------------------------------------

 TstMul:  Mul=     1
 TstMul:  ICh=    -1
 TstMul:  Mul=     1
 Symbolic Z-matrix:
 Charge = -1 Multiplicity = 1

 SCF Done:  E(RPBE-PBE) =  -215.311361766     A.U. after   14 cycles
 SCF Done:  E(RPBE-PBE) =  -215.313364326     A.U. after   12 cycles
 SCF Done:  E(RPBE-PBE) =  -215.311471324     A.U. after   13 cycles
 SCF Done:  E(RPBE-PBE) =  -215.317249815     A.U. after   11 cycles
 SCF Done:  E(RPBE-PBE) =  -215.316272560     A.U. after   12 cycles
 SCF Done:  E(RPBE-PBE) =  -215.319180140     A.U. after   12 cycles
 SCF Done:  E(RPBE-PBE) =  -215.319720716     A.U. after   11 cycles
 SCF Done:  E(RPBE-PBE) =  -215.319868461     A.U. after   11 cycles
 SCF Done:  E(RPBE-PBE) =  -215.319893625     A.U. after   11 cycles
 SCF Done:  E(RPBE-PBE) =  -215.319898878     A.U. after    9 cycles
 SCF Done:  E(RPBE-PBE) =  -215.319914749     A.U. after   10 cycles
 SCF Done:  E(RPBE-PBE) =  -215.319922238     A.U. after   11 cycles
 SCF Done:  E(RPBE-PBE) =  -215.319931576     A.U. after    8 cycles
 SCF Done:  E(RPBE-PBE) =  -215.320077588     A.U. after   13 cycles
 SCF Done:  E(RPBE-PBE) =  -215.320261852     A.U. after   11 cycles
 SCF Done:  E(RPBE-PBE) =  -215.320406482     A.U. after   11 cycles
 SCF Done:  E(RPBE-PBE) =  -215.320392379     A.U. after   11 cycles
 SCF Done:  E(RPBE-PBE) =  -215.320449659     A.U. after   10 cycles
 SCF Done:  E(RPBE-PBE) =  -215.320450380     A.U. after    8 cycles
 SCF Done:  E(RPBE-PBE) =  -215.320450424     A.U. after    7 cycles
 Optimization completed.
    -- Stationary point found.

                         Standard orientation:
 ---------------------------------------------------------------------
 Center     Atomic      Atomic             Coordinates (Angstroms)
 Number     Number       Type             X           Y           Z
 ---------------------------------------------------------------------
      1          6           0       -1.236259   -0.389263    0.000015
      2          8           0       -0.500652    0.757780   -0.000010
      3          1           0       -1.936607   -0.516298   -0.892014
      4          1           0       -0.603913   -1.320568    0.000372
      5          1           0       -1.937136   -0.515860    0.891625
      6          1           0        0.689156    0.326501   -0.000001
      7          9           0        1.690141   -0.188938    0.000001
 ---------------------------------------------------------------------

 The electronic state is 1-A.
 Alpha  occ. eigenvalues --  -23.88752 -18.46264  -9.70873  -0.70019  -0.62353
 Alpha  occ. eigenvalues --   -0.35492  -0.18000  -0.14692  -0.12692  -0.06557
 Alpha  occ. eigenvalues --    0.01654   0.01659   0.04844   0.06093
 Alpha virt. eigenvalues --    0.27967   0.33756   0.34169   0.37857   0.50991
 Alpha virt. eigenvalues --    0.74369   0.76172   0.76967   0.90082   0.97701
 Alpha virt. eigenvalues --    0.99031   1.04155   1.16566   1.17902   1.20247

 Mulliken charges:
               1
     1  C   -0.152539
     2  O   -0.684114
     3  H    0.003868
     4  H    0.057487
     5  H    0.003908
     6  H    0.443511
     7  F   -0.672122
 Sum of Mulliken charges =  -1.00000

 Dipole moment (field-independent basis, Debye):
    X=             -1.3605    Y=             -0.9184    Z=              0.0003  Tot=              1.6415
 Quadrupole moment (field-independent basis, Debye-Ang):
   XX=            -30.8696   YY=            -22.6694   ZZ=            -20.9081
   XY=              1.6564   XZ=             -0.0005   YZ=             -0.0002

 Normal termination of Gaussian 16 at Wed Oct  7 16:16:27 2020.
