 Gaussian 16, Revision A.03,
 Gaussian 16:  ES64L-G16RevA.03 25-Dec-2016

 ----------------------------------------------------------------------
 #P Opt(MaxCyc=100) PBEPBE/6-31G* 5D 7F Integral=UltraFineGrid SCF=(NoS
 ymm,XQC,MaxCyc=120) IOp(1/33=1)
 ----------------------------------------------------------------------

 TstMul:  Mul=     1
 TstMul:  ICh=    -1
 TstMul:  Mul=     1
 Symbolic Z-matrix:
 Charge = -1 Multiplicity = 1

 SCF Done:  E(RPBE-PBE) =  -75.6279922145     A.U. after   10 cycles
 SCF Done:  E(RPBE-PBE) =  -75.6288576834     A.U. after   10 cycles
 SCF Done:  E(RPBE-PBE) =  -75.6288876420     A.U. after    7 cycles
 Optimization completed.
    -- Stationary point found.

                         Standard orientation:
 ---------------------------------------------------------------------
 Center     Atomic      Atomic             Coordinates (Angstroms)
 Number     Number       Type             X           Y           Z
 ---------------------------------------------------------------------
      1          8           0        0.000000    0.000000    0.110697
      2          1           0        0.000000    0.000000   -0.885577
 ---------------------------------------------------------------------

 The electronic state is 1-SG.
 Alpha  occ. eigenvalues --  -18.27947  -0.38784   0.06324   0.22426   0.22426
 Alpha virt. eigenvalues --    0.39067   1.13227   1.25109   1.25109   1.29119
 Alpha virt. eigenvalues --    1.61901   2.13736   2.13736   2.20000   2.20000
 Alpha virt. eigenvalues --    2.76322

 Mulliken charges:
               1
     1  O   -1.148679
     2  H    0.148679
 Sum of Mulliken charges =  -1.00000

 Dipole moment (field-independent basis, Debye):
    X=              0.0000    Y=             -0.0000    Z=             -1.1502  Tot=              1.1502
 Quadrupole moment (field-independent basis, Debye-Ang):
   XX=             -7.9909   YY=             -7.9909   ZZ=             -6.8438
   XY=             -0.0000   XZ=              0.0000   YZ=             -0.0000

 Normal termination of Gaussian 16 at Wed Oct  7 16:12:00 2020.
