 Gaussian 16, Revision A.03,
 Gaussian 16:  ES64L-G16RevA.03 25-Dec-2016

 ----------------------------------------------------------------------
 #P Opt(MaxCyc=100) PBEPBE/6-31G* 5D 7F Integral=UltraFineGrid SCF=(NoS
 ymm,XQC,MaxCyc=120) IOp(1/33=1)
 ----------------------------------------------------------------------

 TstMul:  Mul=     2
 TstMul:  ICh=     0
 TstMul:  Mul=     2
 Symbolic Z-matrix:
 Charge =  0 Multiplicity = 2

 SCF Done:  E(UPBE-PBE) =  -55.7948118473     A.U. after   10 cycles
 SCF Done:  E(UPBE-PBE) =  -55.7953382231     A.U. after   10 cycles
 SCF Done:  E(UPBE-PBE) =  -55.7953588087     A.U. after    7 cycles
 Optimization completed.
    -- Stationary point found.

                         Standard orientation:
 ---------------------------------------------------------------------
 Center     Atomic      Atomic             Coordinates (Angstroms)
 Number     Number       Type             X           Y           Z
 ---------------------------------------------------------------------
      1          7           0       -0.000000    0.000000    0.147024
      2          1           0       -0.000000    0.807218   -0.514585
      3          1           0       -0.000000   -0.807218   -0.514585
 ---------------------------------------------------------------------

 The electronic state is 2-B1.
 Alpha  occ. eigenvalues --  -14.01999  -0.76791  -0.41138  -0.26707  -0.25493
 Alpha virt. eigenvalues --    0.05332   0.12013   0.60995   0.64059   0.67534
 Alpha virt. eigenvalues --    0.77611   0.82519   1.03715   1.58193   1.60261
 Alpha virt. eigenvalues --    1.60776   1.99381   2.27698
  Beta  occ. eigenvalues --  -14.00196  -0.72360  -0.39833  -0.24452
  Beta virt. eigenvalues --   -0.13967   0.06437   0.12653   0.64558   0.69098
  Beta virt. eigenvalues --    0.69488   0.79850   0.83622   1.08297   1.62430
  Beta virt. eigenvalues --    1.65565   1.67937   2.07644   2.28863

 Mulliken charges and spin densities:
               1          2
     1  N   -0.585592   1.072504
     2  H    0.292796  -0.036252
     3  H    0.292796  -0.036252
 Sum of Mulliken charges =  -0.00000   1.00000

 Dipole moment (field-independent basis, Debye):
    X=             -0.0000    Y=              0.0000    Z=             -1.9768  Tot=              1.9768
 Quadrupole moment (field-independent basis, Debye-Ang):
   XX=             -6.9808   YY=             -5.5779   ZZ=             -7.3139
   XY=              0.0000   XZ=              0.0000   YZ=             -0.0000

 Normal termination of Gaussian 16 at Wed Oct  7 16:11:40 2020.
