 Gaussian 16, Revision A.03,

 ----------------------------------------------------------------------
 #P Opt(TS,MaxCyc=50,NoEigenTest,MaxStep=10,AddRedundant) PBEPBE/6-31G*
  5D 7F Integral=UltraFineGrid SCF=(NoSymm,XQC,MaxCyc=120) IOp(1/33=1)
 ----------------------------------------------------------------------

 TstMul:  Mul=     2
 TstMul:  ICh=     0
 TstMul:  Mul=     2
 Symbolic Z-matrix:
 Charge =  0 Multiplicity = 2

 SCF Done:  E(UPBE-PBE) =  -461.082062936     A.U. after   11 cycles
 SCF Done:  E(UPBE-PBE) =  -461.084467622     A.U. after   12 cycles
 SCF Done:  E(UPBE-PBE) =  -461.085919237     A.U. after   11 cycles
 SCF Done:  E(UPBE-PBE) =  -461.086749863     A.U. after   11 cycles
 SCF Done:  E(UPBE-PBE) =  -461.087234373     A.U. after   11 cycles
 SCF Done:  E(UPBE-PBE) =  -461.087553485     A.U. after   11 cycles
 SCF Done:  E(UPBE-PBE) =  -461.087783113     A.U. after   11 cycles
 SCF Done:  E(UPBE-PBE) =  -461.087946753     A.U. after   11 cycles
 SCF Done:  E(UPBE-PBE) =  -461.088057742     A.U. after   11 cycles
 SCF Done:  E(UPBE-PBE) =  -461.088128771     A.U. after   11 cycles
 SCF Done:  E(UPBE-PBE) =  -461.088164842     A.U. after   11 cycles
 SCF Done:  E(UPBE-PBE) =  -461.088170085     A.U. after    9 cycles
 SCF Done:  E(UPBE-PBE) =  -461.088170302     A.U. after    8 cycles
 Optimization completed.
    -- Stationary point found.
 Normal termination of Gaussian 16 at Wed Oct  7 16:14:11 2020.
 Gaussian 16:  ES64L-G16RevA.03 25-Dec-2016

 ----------------------------------------------------------------------
 #P Freq PBEPBE/6-31G* 5D 7F Integral=UltraFineGrid SCF=(NoSymm,XQC,Max
 Cyc=120) IOp(1/33=1) Geom=Check Guess=Read
 ----------------------------------------------------------------------

 TstMul:  Mul=     2
 TstMul:  ICh=     0
 TstMul:  Mul=     2
 Structure from the checkpoint file:  "MN_78_RKT01_BH76_PBE_631Gs.chk"
 Charge =  0 Multiplicity = 2

                         Standard orientation:
 ---------------------------------------------------------------------
 Center     Atomic      Atomic             Coordinates (Angstroms)
 Number     Number       Type             X           Y           Z
 ---------------------------------------------------------------------
      1          1           0        0.000000    0.000000   -1.674428
      2         17           0        0.000000    0.000000    0.242955
      3          1           0        0.000000    0.000000   -2.455814
 ---------------------------------------------------------------------

 SCF Done:  E(UPBE-PBE) =  -461.088170302     A.U. after    1 cycles

 The electronic state is 2-SG.
 Alpha  occ. eigenvalues -- -100.68630  -9.19836  -7.03151  -7.01035  -7.01035
 Alpha  occ. eigenvalues --   -0.75194  -0.45305  -0.31793  -0.29208  -0.29208
 Alpha virt. eigenvalues --    0.07502   0.33290   0.40439   0.40439   0.42546
 Alpha virt. eigenvalues --    0.59863   0.75060   0.75060   0.79541   0.79541
 Alpha virt. eigenvalues --    0.88298   1.07105
  Beta  occ. eigenvalues -- -100.68137  -9.19351  -7.01781  -7.00727  -7.00727
  Beta  occ. eigenvalues --   -0.71737  -0.42893  -0.27894  -0.27894
  Beta virt. eigenvalues --   -0.25905   0.09254   0.35349   0.41135   0.41135
  Beta virt. eigenvalues --    0.45783   0.63142   0.80006   0.80006   0.80319
  Beta virt. eigenvalues --    0.80319   0.93238   1.08754

 Mulliken charges and spin densities:
               1          2
     1  H   -0.039612  -0.037570
     2  Cl  -0.076535   0.825521
     3  H    0.116147   0.212049
 Sum of Mulliken charges =  -0.00000   1.00000

 Dipole moment (field-independent basis, Debye):
    X=              0.0000    Y=             -0.0000    Z=             -1.1651  Tot=              1.1651
 Quadrupole moment (field-independent basis, Debye-Ang):
   XX=            -15.0572   YY=            -15.0572   ZZ=            -10.2022
   XY=              0.0000   XZ=              0.0000   YZ=              0.0000

  Exact polarizability:   5.873  -0.000   5.873  -0.000   0.000  30.288
 Approx polarizability:   7.586  -0.000   7.586   0.000   0.000  51.939

                      1                      2                      3
                     SG                     PI                     PI
 Frequencies --    300.5456               317.8234               317.8234
 Red. masses --      1.0640                 1.0094                 1.0094
 Frc consts  --      0.0566                 0.0601                 0.0601
 IR Inten    --     47.1511                 2.6079                 2.6079

                      4
                     SG
 Frequencies --   3673.3969
 Red. masses --      1.0079
 Frc consts  --      8.0135
 IR Inten    --    381.2531

 - Thermochemistry -
 -------------------
 Temperature   298.150 Kelvin.  Pressure   1.00000 Atm.
 Atom     1 has atomic number  1 and mass   1.00783

 Molecular mass:    36.98450 amu.
 Principal axes and moments of inertia in atomic units:
                           1         2         3
     Eigenvalues --     0.00000  37.35431  37.35431
           X            0.00000   0.00000   1.00000
           Y            0.00000   1.00000   0.00000
           Z            1.00000   0.00000   0.00000
 This molecule is a prolate symmetric top.
 Rotational symmetry number  1.
 Rotational temperature (Kelvin)      2.31871
 Rotational constant (GHZ):          48.314142
 Zero-point vibrational energy      27571.5 (Joules/Mol)
                                    6.58974 (Kcal/Mol)
 Warning -- explicit consideration of   3 degrees of freedom as
           vibrations may cause significant error
 Vibrational temperatures:    432.42   457.28   457.28  5285.20
          (Kelvin)

 Zero-point correction=                           0.010501 (Hartree/Particle)
 Thermal correction to Energy=                    0.014078
 Thermal correction to Enthalpy=                  0.015022
 Thermal correction to Gibbs Free Energy=        -0.010552
 Sum of electronic and zero-point Energies=           -461.077669
 Sum of electronic and thermal Energies=              -461.074092
 Sum of electronic and thermal Enthalpies=            -461.073148
 Sum of electronic and thermal Free Energies=         -461.098722

                     E (Thermal)             CV                S
                      KCal/Mol        Cal/Mol-Kelvin    Cal/Mol-Kelvin
 Total                    8.834              9.920             53.825
 Electronic               0.000              0.000              1.377
 Translational            0.889              2.981             36.753
 Rotational               0.592              1.987             11.638
 Vibrational              7.353              4.952              4.056
 Vibration     1          0.693              1.673              1.414
 Vibration     2          0.704              1.640              1.321
 Vibration     3          0.704              1.640              1.321

 Optimization completed.
    -- Stationary point found.
 Normal termination of Gaussian 16 at Wed Oct  7 16:14:33 2020.
