 Gaussian 16, Revision A.03,
 Gaussian 16:  ES64L-G16RevA.03 25-Dec-2016

 ----------------------------------------------------------------------
 #P Opt(MaxCyc=100) PBEPBE/6-31G* 5D 7F Integral=UltraFineGrid SCF=(NoS
 ymm,XQC,MaxCyc=120) IOp(1/33=1)
 ----------------------------------------------------------------------

 TstMul:  Mul=     1
 TstMul:  ICh=     0
 TstMul:  Mul=     1
 Symbolic Z-matrix:
 Charge =  0 Multiplicity = 1

 SCF Done:  E(RPBE-PBE) =  -342.944023714     A.U. after    9 cycles
 SCF Done:  E(RPBE-PBE) =  -342.944720284     A.U. after    9 cycles
 SCF Done:  E(RPBE-PBE) =  -342.944734830     A.U. after    7 cycles
 Optimization completed.
    -- Stationary point found.

                         Standard orientation:
 ---------------------------------------------------------------------
 Center     Atomic      Atomic             Coordinates (Angstroms)
 Number     Number       Type             X           Y           Z
 ---------------------------------------------------------------------
      1         15           0        0.000000    0.000000    0.132020
      2          1           0        0.000000    1.198185   -0.660099
      3          1           0        1.037659   -0.599093   -0.660099
      4          1           0       -1.037659   -0.599093   -0.660099
 ---------------------------------------------------------------------

 The electronic state is 1-A1.
 Alpha  occ. eigenvalues --  -76.29561  -6.30330  -4.52042  -4.52042  -4.51565
 Alpha  occ. eigenvalues --   -0.58631  -0.34386  -0.34386  -0.24219
 Alpha virt. eigenvalues --    0.00339   0.00339   0.08577   0.25676   0.25676
 Alpha virt. eigenvalues --    0.27816   0.36681   0.60863   0.60863   0.62719
 Alpha virt. eigenvalues --    0.63970   0.63970   0.88359   1.07206   1.07206

 Mulliken charges:
               1
     1  P   -0.164387
     2  H    0.054796
     3  H    0.054796
     4  H    0.054796
 Sum of Mulliken charges =  -0.00000

 Dipole moment (field-independent basis, Debye):
    X=              0.0000    Y=              0.0000    Z=             -1.0564  Tot=              1.0564
 Quadrupole moment (field-independent basis, Debye-Ang):
   XX=            -14.6389   YY=            -14.6389   ZZ=            -16.9382
   XY=             -0.0000   XZ=              0.0000   YZ=             -0.0000

 Normal termination of Gaussian 16 at Wed Oct  7 16:12:21 2020.
