 Gaussian 16, Revision A.03,
 Gaussian 16:  ES64L-G16RevA.03 25-Dec-2016

 ----------------------------------------------------------------------
 #P Opt(MaxCyc=100) PBEPBE/6-31G* 5D 7F Integral=UltraFineGrid SCF=(NoS
 ymm,XQC,MaxCyc=120) IOp(1/33=1)
 ----------------------------------------------------------------------

 TstMul:  Mul=     1
 TstMul:  ICh=     0
 TstMul:  Mul=     1
 Symbolic Z-matrix:
 Charge =  0 Multiplicity = 1

 SCF Done:  E(RPBE-PBE) =  -56.4684265375     A.U. after    9 cycles
 SCF Done:  E(RPBE-PBE) =  -56.4690017588     A.U. after    9 cycles
 SCF Done:  E(RPBE-PBE) =  -56.4690829726     A.U. after    8 cycles
 SCF Done:  E(RPBE-PBE) =  -56.4690844336     A.U. after    6 cycles
 Optimization completed.
    -- Stationary point found.

                         Standard orientation:
 ---------------------------------------------------------------------
 Center     Atomic      Atomic             Coordinates (Angstroms)
 Number     Number       Type             X           Y           Z
 ---------------------------------------------------------------------
      1          7           0        0.000000    0.000000    0.123357
      2          1           0        0.000000    0.941662   -0.287834
      3          1           0        0.815503   -0.470831   -0.287834
      4          1           0       -0.815503   -0.470831   -0.287834
 ---------------------------------------------------------------------

 The electronic state is 1-A1.
 Alpha  occ. eigenvalues --  -13.96363  -0.76379  -0.39734  -0.39734  -0.20088
 Alpha virt. eigenvalues --    0.05686   0.13956   0.13956   0.64561   0.64561
 Alpha virt. eigenvalues --    0.68126   0.85593   0.85593   0.87169   1.19850
 Alpha virt. eigenvalues --    1.60347   1.60347   1.85624   2.31248   2.31248

 Mulliken charges:
               1
     1  N   -0.895985
     2  H    0.298662
     3  H    0.298662
     4  H    0.298662
 Sum of Mulliken charges =   0.00000

 Dipole moment (field-independent basis, Debye):
    X=             -0.0000    Y=              0.0000    Z=             -1.9245  Tot=              1.9245
 Quadrupole moment (field-independent basis, Debye-Ang):
   XX=             -6.1964   YY=             -6.1964   ZZ=             -8.7895
   XY=              0.0000   XZ=             -0.0000   YZ=             -0.0000

 Normal termination of Gaussian 16 at Wed Oct  7 16:11:57 2020.
