 Gaussian 16, Revision A.03,

 ----------------------------------------------------------------------
 #P Opt(TS,MaxCyc=50,NoEigenTest,MaxStep=10,AddRedundant) PBEPBE/6-31G*
  5D 7F Integral=UltraFineGrid SCF=(NoSymm,XQC,MaxCyc=120) IOp(1/33=1)
 ----------------------------------------------------------------------

 TstMul:  Mul=     2
 TstMul:  ICh=     0
 TstMul:  Mul=     2
 Symbolic Z-matrix:
 Charge =  0 Multiplicity = 2

 SCF Done:  E(UPBE-PBE) =  -76.8011652681     A.U. after   13 cycles
 SCF Done:  E(UPBE-PBE) =  -76.8011805161     A.U. after    9 cycles
 SCF Done:  E(UPBE-PBE) =  -76.8012166022     A.U. after    9 cycles
 SCF Done:  E(UPBE-PBE) =  -76.8008096122     A.U. after   12 cycles
 SCF Done:  E(UPBE-PBE) =  -76.8006418439     A.U. after   12 cycles
 SCF Done:  E(UPBE-PBE) =  -76.8004790337     A.U. after   12 cycles
 SCF Done:  E(UPBE-PBE) =  -76.8003245486     A.U. after   12 cycles
 SCF Done:  E(UPBE-PBE) =  -76.8002147871     A.U. after   12 cycles
 SCF Done:  E(UPBE-PBE) =  -76.8001284908     A.U. after   12 cycles
 SCF Done:  E(UPBE-PBE) =  -76.8000526324     A.U. after   15 cycles
 SCF Done:  E(UPBE-PBE) =  -76.7994632207     A.U. after   22 cycles
 SCF Done:  E(UPBE-PBE) =  -76.7994696920     A.U. after   21 cycles
 SCF Done:  E(UPBE-PBE) =  -76.7994698826     A.U. after   13 cycles
 SCF Done:  E(UPBE-PBE) =  -76.7994701159     A.U. after   14 cycles
 SCF Done:  E(UPBE-PBE) =  -76.7994715214     A.U. after   14 cycles
 SCF Done:  E(UPBE-PBE) =  -76.7994719440     A.U. after   13 cycles
 SCF Done:  E(UPBE-PBE) =  -76.7994722105     A.U. after   12 cycles
 SCF Done:  E(UPBE-PBE) =  -76.7994723808     A.U. after   11 cycles
 SCF Done:  E(UPBE-PBE) =  -76.7994725284     A.U. after   10 cycles
 Optimization completed.
    -- Stationary point found.

 1\1\GINC-NODE22\FTS\UPBEPBE\6-31G(d)\H3O1(2)\RPEVERATI\07-Oct-2020\0\\
 #P Opt(TS,MaxCyc=50,NoEigenTest,MaxStep=10,AddRedundant) PBEPBE/6-31G*
  5D 7F Integral=UltraFineGrid SCF=(NoSymm,XQC,MaxCyc=120) IOp(1/33=1)\
 \TS search on BH76.\\0,2\O,-0.7468080951,-0.0666311648,-0.0723338109\H
 ,-0.7260290599,0.92060552,0.0250005291\H,1.4284823843,-0.1204165822,0.
 1076568416\H,2.1517998377,0.0227814557,-0.06026956\\Version=ES64L-G16R
 evA.03\State=2-A\HF=-76.7994725\S2=0.751751\S2-1=0.\S2A=0.750002\RMSD=
 2.936e-09\RMSF=1.105e-05\Dipole=-0.0490014,0.6693516,0.071268\Quadrupo

 Normal termination of Gaussian 16 at Wed Oct  7 16:20:44 2020.
 Gaussian 16:  ES64L-G16RevA.03 25-Dec-2016

 ----------------------------------------------------------------------
 #P Freq PBEPBE/6-31G* 5D 7F Integral=UltraFineGrid SCF=(NoSymm,XQC,Max
 Cyc=120) IOp(1/33=1) Geom=Check Guess=Read
 ----------------------------------------------------------------------

 TstMul:  Mul=     2
 TstMul:  ICh=     0
 TstMul:  Mul=     2
 Structure from the checkpoint file:  "MN_79_RKT02_BH76_PBE_631Gs.chk"
 Charge =  0 Multiplicity = 2

                         Standard orientation:
 ---------------------------------------------------------------------
 Center     Atomic      Atomic             Coordinates (Angstroms)
 Number     Number       Type             X           Y           Z
 ---------------------------------------------------------------------
      1          8           0       -0.460567   -0.108171   -0.005065
      2          1           0       -0.467983    0.883889    0.012325
      3          1           0        1.719429   -0.084269    0.114186
      4          1           0        2.433093    0.065751   -0.085993
 ---------------------------------------------------------------------

 SCF Done:  E(UPBE-PBE) =  -76.7994725284     A.U. after    1 cycles

 The electronic state is 2-A.
 Alpha  occ. eigenvalues --  -18.82916  -0.91378  -0.41034  -0.38375  -0.33562
 Alpha  occ. eigenvalues --   -0.26568
 Alpha virt. eigenvalues --    0.03889   0.10755   0.56270   0.72375   0.78854
 Alpha virt. eigenvalues --    0.85641   0.90784   1.08547   1.24873   1.61663
 Alpha virt. eigenvalues --    1.66651   1.67893   1.70948   2.29931
  Beta  occ. eigenvalues --  -18.80653  -0.85742  -0.38835  -0.37517  -0.24212
  Beta virt. eigenvalues --   -0.21222   0.04776   0.11210   0.56904   0.73759
  Beta virt. eigenvalues --    0.84024   0.88107   0.94447   1.09889   1.28299
  Beta virt. eigenvalues --    1.67670   1.68343   1.75587   1.77132   2.32608

 Mulliken charges and spin densities:
               1          2
     1  O   -0.390643   1.013857
     2  H    0.404575  -0.030420
     3  H    0.011049  -0.008225
     4  H   -0.024981   0.024788
 Sum of Mulliken charges =   0.00000   1.00000

 Dipole moment (field-independent basis, Debye):
    X=             -0.1726    Y=              1.7061    Z=              0.0481  Tot=              1.7155
 Quadrupole moment (field-independent basis, Debye-Ang):
   XX=             -7.7724   YY=             -6.4593   ZZ=             -8.0263
   XY=             -0.7417   XZ=             -0.6129   YZ=             -0.0020

  Exact polarizability:  25.863   0.929   6.728  -2.084  -0.293   3.001
 Approx polarizability:  20.544   1.872   9.874  -2.684  -0.432   3.795

 ******    1 imaginary frequencies (negative Signs) ******

                      1                      2                      3
                      A                      A                      A
 Frequencies --   -202.9472               235.9398               408.2588
 Red. masses --      1.1486                 1.0326                 1.0158
 Frc consts  --      0.0279                 0.0339                 0.0998
 IR Inten    --      7.6611               118.2510                 3.3059

                      4                      5                      6
                      A                      A                      A
 Frequencies --    450.1586              3525.6603              4227.3736
 Red. masses --      1.0128                 1.0670                 1.0078
 Frc consts  --      0.1209                 7.8144                10.6116
 IR Inten    --      3.6114                 7.4279                 0.5332

 - Thermochemistry -
 -------------------
 Temperature   298.150 Kelvin.  Pressure   1.00000 Atm.
 Atom     1 has atomic number  8 and mass  15.99491

 Molecular mass:    19.01839 amu.
 Principal axes and moments of inertia in atomic units:
                           1         2         3
     Eigenvalues --     3.44084  42.43698  45.72744
           X            0.99978  -0.02110  -0.00086
           Y            0.02110   0.99977  -0.00252
           Z            0.00092   0.00250   1.00000
 This molecule is an asymmetric top.
 Rotational symmetry number  1.
 Rotational temperatures (Kelvin)     25.17234     2.04100     1.89413
 Rotational constants (GHZ):         524.50642    42.52756    39.46736
    1 imaginary frequencies ignored.
 Zero-point vibrational energy      52919.2 (Joules/Mol)
                                   12.64798 (Kcal/Mol)
 Warning -- explicit consideration of   3 degrees of freedom as
           vibrations may cause significant error
 Vibrational temperatures:    339.46   587.39   647.68  5072.64  6082.25
          (Kelvin)

 Zero-point correction=                           0.020156 (Hartree/Particle)
 Thermal correction to Energy=                    0.024060
 Thermal correction to Enthalpy=                  0.025004
 Thermal correction to Gibbs Free Energy=        -0.001728
 Sum of electronic and zero-point Energies=            -76.779317
 Sum of electronic and thermal Energies=               -76.775413
 Sum of electronic and thermal Enthalpies=             -76.774468
 Sum of electronic and thermal Free Energies=          -76.801200

                     E (Thermal)             CV                S
                      KCal/Mol        Cal/Mol-Kelvin    Cal/Mol-Kelvin
 Total                   15.098             10.560             56.262
 Electronic               0.000              0.000              1.377
 Translational            0.889              2.981             34.771
 Rotational               0.889              2.981             16.553
 Vibrational             13.320              4.599              3.561
 Vibration     1          0.655              1.786              1.833
 Vibration     2          0.773              1.452              0.933
 Vibration     3          0.809              1.361              0.795

                           ! Non-Optimized Parameters !
 Normal termination of Gaussian 16 at Wed Oct  7 16:21:08 2020.
