 Gaussian 16, Revision A.03,

 ----------------------------------------------------------------------
 #P Opt(TS,MaxCyc=50,NoEigenTest,MaxStep=10,AddRedundant) PBEPBE/6-31G*
  5D 7F Integral=UltraFineGrid SCF=(NoSymm,XQC,MaxCyc=120) IOp(1/33=1)
 ----------------------------------------------------------------------

 TstMul:  Mul=     2
 TstMul:  ICh=     0
 TstMul:  Mul=     2
 Symbolic Z-matrix:
 Charge =  0 Multiplicity = 2

 SCF Done:  E(UPBE-PBE) =  -40.9244856894     A.U. after   12 cycles
 SCF Done:  E(UPBE-PBE) =  -40.9250382368     A.U. after   11 cycles
 SCF Done:  E(UPBE-PBE) =  -40.9254016781     A.U. after   11 cycles
 SCF Done:  E(UPBE-PBE) =  -40.9248884288     A.U. after   11 cycles
 SCF Done:  E(UPBE-PBE) =  -40.9244401655     A.U. after   11 cycles
 SCF Done:  E(UPBE-PBE) =  -40.9242335022     A.U. after   11 cycles
 SCF Done:  E(UPBE-PBE) =  -40.9242272339     A.U. after   11 cycles
 SCF Done:  E(UPBE-PBE) =  -40.9242283369     A.U. after    8 cycles
 Optimization completed.
    -- Stationary point found.

 1\1\GINC-NODE52\FTS\UPBEPBE\6-31G(d)\C1H5(2)\RPEVERATI\07-Oct-2020\0\\
 #P Opt(TS,MaxCyc=50,NoEigenTest,MaxStep=10,AddRedundant) PBEPBE/6-31G*
  5D 7F Integral=UltraFineGrid SCF=(NoSymm,XQC,MaxCyc=120) IOp(1/33=1)\
 \TS search on BH76.\\0,2\C,0.0010032135,0.3139326848,0.\H,1.0729102771
 ,0.5379312612,0.\H,-0.5348854704,0.5389637216,0.9281377283\H,-0.534885
 4704,0.5389637216,-0.9281377283\H,-0.0020294346,-1.1857765668,0.\H,-0.
 0027000522,-2.0509710132,0.\\Version=ES64L-G16RevA.03\State=2-A'\HF=-4
 0.9242283\S2=0.755599\S2-1=0.\S2A=0.750016\RMSD=6.484e-09\RMSF=4.015e-

 Normal termination of Gaussian 16 at Wed Oct  7 16:13:36 2020.
 Gaussian 16:  ES64L-G16RevA.03 25-Dec-2016

 ----------------------------------------------------------------------
 #P Freq PBEPBE/6-31G* 5D 7F Integral=UltraFineGrid SCF=(NoSymm,XQC,Max
 Cyc=120) IOp(1/33=1) Geom=Check Guess=Read
 ----------------------------------------------------------------------

 TstMul:  Mul=     2
 TstMul:  ICh=     0
 TstMul:  Mul=     2
 Structure from the checkpoint file:  "MN_80_RKT03_BH76_PBE_631Gs.chk"
 Charge =  0 Multiplicity = 2

                         Standard orientation:
 ---------------------------------------------------------------------
 Center     Atomic      Atomic             Coordinates (Angstroms)
 Number     Number       Type             X           Y           Z
 ---------------------------------------------------------------------
      1          6           0        0.000000    0.290051    0.000000
      2          1           0        1.071441    0.516268    0.000000
      3          1           0       -0.536353    0.513972    0.928138
      4          1           0       -0.536353    0.513972   -0.928138
      5          1           0        0.000073   -1.209661    0.000000
      6          1           0        0.001193   -2.074855    0.000000
 ---------------------------------------------------------------------

 SCF Done:  E(UPBE-PBE) =  -40.9242283369     A.U. after    1 cycles

 The electronic state is 2-A'.
 Alpha  occ. eigenvalues --   -9.90048  -0.62617  -0.38987  -0.36616  -0.36612
 Alpha  occ. eigenvalues --   -0.17359
 Alpha virt. eigenvalues --    0.08851   0.14307   0.14308   0.16373   0.49585
 Alpha virt. eigenvalues --    0.49587   0.51870   0.64498   0.84115   0.84121
 Alpha virt. eigenvalues --    0.86552   0.98362   1.14366   1.56663   1.56664

  Beta  occ. eigenvalues --   -9.88953  -0.60151  -0.36135  -0.35809  -0.35805
  Beta virt. eigenvalues --   -0.10306   0.09866   0.15013   0.15015   0.19366
  Beta virt. eigenvalues --    0.50321   0.50323   0.56952   0.67566   0.84804
  Beta virt. eigenvalues --    0.84810   0.88718   0.99408   1.17305   1.61566

 Mulliken charges and spin densities:
               1          2
     1  C   -0.563112   0.783623
     2  H    0.189917  -0.026195
     3  H    0.189929  -0.026175
     4  H    0.189929  -0.026175
     5  H    0.000848  -0.114490
     6  H   -0.007510   0.409411
 Sum of Mulliken charges =  -0.00000   1.00000

 Dipole moment (field-independent basis, Debye):
    X=             -0.0008    Y=              0.6968    Z=             -0.0000  Tot=              0.6968
 Quadrupole moment (field-independent basis, Debye-Ang):
   XX=             -9.1875   YY=            -11.1413   ZZ=             -9.1884
   XY=              0.0026   XZ=             -0.0000   YZ=             -0.0000

  Exact polarizability:  12.479  -0.006  28.462   0.000  -0.000  12.479
 Approx polarizability:  16.819  -0.007  42.377   0.000  -0.000  16.819

 ******    1 imaginary frequencies (negative Signs) ******

                      1                      2                      3
                     A'                     A'                     A"
 Frequencies --   -805.6683               529.7021               530.1909
 Red. masses --      1.2105                 1.0457                 1.0457
 Frc consts  --      0.4629                 0.1729                 0.1732
 IR Inten    --      5.6118                 1.5476                 1.5522

                      4                      5                      6
                     A'                     A'                     A"
 Frequencies --    982.3358              1087.0171              1087.0483
 Red. masses --      1.0853                 1.0365                 1.0366
 Frc consts  --      0.6171                 0.7216                 0.7217
 IR Inten    --     13.7261                 1.0082                 1.0192

                      7                      8                      9
                     A"                     A'                     A'
 Frequencies --   1404.3012              1404.4794              2277.6260
 Red. masses --      1.0831                 1.0832                 1.0334
 Frc consts  --      1.2585                 1.2589                 3.1586
 IR Inten    --      4.3413                 4.3334                53.7500

                     10                     11                     12
                     A'                     A"                     A'
 Frequencies --   3047.4686              3201.1335              3201.5388
 Red. masses --      1.0152                 1.1133                 1.1134
 Frc consts  --      5.5552                 6.7217                 6.7236
 IR Inten    --      0.0157                 8.3676                 8.3457

 - Thermochemistry -
 -------------------
 Temperature   298.150 Kelvin.  Pressure   1.00000 Atm.
 Atom     1 has atomic number  6 and mass  12.00000

 Molecular mass:    17.03913 amu.
 Principal axes and moments of inertia in atomic units:
                           1         2         3
     Eigenvalues --    12.40296  32.80190  32.80355
           X           -0.00013   1.00000   0.00000
           Y            1.00000   0.00013   0.00000
           Z            0.00000   0.00000   1.00000
 This molecule is an asymmetric top.
 Rotational symmetry number  1.
 Rotational temperatures (Kelvin)      6.98333     2.64052     2.64038
 Rotational constants (GHZ):         145.50888    55.01941    55.01664
    1 imaginary frequencies ignored.
 Zero-point vibrational energy     112166.9 (Joules/Mol)
                                   26.80853 (Kcal/Mol)
 Warning -- explicit consideration of   2 degrees of freedom as
           vibrations may cause significant error
 Vibrational temperatures:    762.12   762.83  1413.36  1563.98  1564.02
          (Kelvin)           2020.48  2020.73  3277.00  4384.63  4605.72
                             4606.30

 Zero-point correction=                           0.042722 (Hartree/Particle)
 Thermal correction to Energy=                    0.046067
 Thermal correction to Enthalpy=                  0.047011
 Thermal correction to Gibbs Free Energy=         0.021115
 Sum of electronic and zero-point Energies=            -40.881506
 Sum of electronic and thermal Energies=               -40.878161
 Sum of electronic and thermal Enthalpies=             -40.877217
 Sum of electronic and thermal Free Energies=          -40.903113

                     E (Thermal)             CV                S
                      KCal/Mol        Cal/Mol-Kelvin    Cal/Mol-Kelvin
 Total                   28.908              9.521             54.504
 Electronic               0.000              0.000              1.377
 Translational            0.889              2.981             34.443
 Rotational               0.889              2.981             17.241
 Vibrational             27.130              3.560              1.442
 Vibration     1          0.885              1.184              0.588
 Vibration     2          0.885              1.183              0.587

 Optimization completed.
    -- Stationary point found.
 Normal termination of Gaussian 16 at Wed Oct  7 16:14:06 2020.
