 Gaussian 16, Revision A.03,

 ----------------------------------------------------------------------
 #P Opt(TS,MaxCyc=50,NoEigenTest,MaxStep=10,AddRedundant) PBEPBE/6-31G*
  5D 7F Integral=UltraFineGrid SCF=(NoSymm,XQC,MaxCyc=120) IOp(1/33=1)
 ----------------------------------------------------------------------

 TstMul:  Mul=     2
 TstMul:  ICh=     0
 TstMul:  Mul=     2
 Symbolic Z-matrix:
 Charge =  0 Multiplicity = 2

 SCF Done:  E(UPBE-PBE) =  -343.443358234     A.U. after   13 cycles
 SCF Done:  E(UPBE-PBE) =  -343.444135321     A.U. after   12 cycles
 SCF Done:  E(UPBE-PBE) =  -343.444573079     A.U. after   12 cycles
 SCF Done:  E(UPBE-PBE) =  -343.444156844     A.U. after   12 cycles
 SCF Done:  E(UPBE-PBE) =  -343.444267158     A.U. after   11 cycles
 SCF Done:  E(UPBE-PBE) =  -343.444285682     A.U. after   11 cycles
 SCF Done:  E(UPBE-PBE) =  -343.444667888     A.U. after   12 cycles
 SCF Done:  E(UPBE-PBE) =  -343.443994149     A.U. after   12 cycles
 SCF Done:  E(UPBE-PBE) =  -343.443274948     A.U. after   12 cycles
 SCF Done:  E(UPBE-PBE) =  -343.442742318     A.U. after   12 cycles
 SCF Done:  E(UPBE-PBE) =  -343.442364995     A.U. after   12 cycles
 SCF Done:  E(UPBE-PBE) =  -343.442110774     A.U. after   12 cycles
 SCF Done:  E(UPBE-PBE) =  -343.441952905     A.U. after   12 cycles
 SCF Done:  E(UPBE-PBE) =  -343.441868749     A.U. after   12 cycles
 SCF Done:  E(UPBE-PBE) =  -343.441840599     A.U. after   11 cycles
 SCF Done:  E(UPBE-PBE) =  -343.441838968     A.U. after   11 cycles
 SCF Done:  E(UPBE-PBE) =  -343.441838953     A.U. after    8 cycles
 Optimization completed.
    -- Stationary point found.

 1\1\GINC-NODE55\FTS\UPBEPBE\6-31G(d)\H4P1(2)\RPEVERATI\07-Oct-2020\0\\
 #P Opt(TS,MaxCyc=50,NoEigenTest,MaxStep=10,AddRedundant) PBEPBE/6-31G*
  5D 7F Integral=UltraFineGrid SCF=(NoSymm,XQC,MaxCyc=120) IOp(1/33=1)\
 \TS search on BH76.\\0,2\P,0.2922798657,-0.0031379459,-0.1199157696\H,
 0.3152634878,1.0434910708,0.8643024005\H,0.3173407868,-1.0309986539,0.
 8838377019\H,-1.1666888652,-0.0050231081,-0.1645354591\H,-2.8021998659
 ,-0.005556515,0.0937992517\\Version=ES64L-G16RevA.03\State=2-A\HF=-343
 .441839\S2=0.751987\S2-1=0.\S2A=0.75\RMSD=4.920e-09\RMSF=4.232e-06\Dip

 Normal termination of Gaussian 16 at Wed Oct  7 16:17:27 2020.
 Gaussian 16:  ES64L-G16RevA.03 25-Dec-2016

 ----------------------------------------------------------------------
 #P Freq PBEPBE/6-31G* 5D 7F Integral=UltraFineGrid SCF=(NoSymm,XQC,Max
 Cyc=120) IOp(1/33=1) Geom=Check Guess=Read
 ----------------------------------------------------------------------

 TstMul:  Mul=     2
 TstMul:  ICh=     0
 TstMul:  Mul=     2
 Structure from the checkpoint file:  "MN_88_RKT12_BH76_PBE_631Gs.chk"
 Charge =  0 Multiplicity = 2

                         Standard orientation:
 ---------------------------------------------------------------------
 Center     Atomic      Atomic             Coordinates (Angstroms)
 Number     Number       Type             X           Y           Z
 ---------------------------------------------------------------------
      1         15           0        0.237597   -0.000001   -0.112545
      2          1           0        0.257950    1.036969    0.881903
      3          1           0        0.257018   -1.037614    0.881251
      4          1           0       -1.221174    0.000666   -0.163249
      5          1           0       -2.857748   -0.000006    0.088264
 ---------------------------------------------------------------------

 SCF Done:  E(UPBE-PBE) =  -343.441838953     A.U. after    1 cycles

 The electronic state is 2-A.
 Alpha  occ. eigenvalues --  -76.29824  -6.30574  -4.52313  -4.52270  -4.51838
 Alpha  occ. eigenvalues --   -0.58917  -0.36167  -0.34568  -0.26988  -0.23194
 Alpha virt. eigenvalues --    0.00155   0.00676   0.09414   0.25479   0.26546
 Alpha virt. eigenvalues --    0.28244   0.35691   0.60339   0.60630   0.62143
 Alpha virt. eigenvalues --    0.63808   0.68111   0.71872   0.91529   1.06941

  Beta  occ. eigenvalues --  -76.29768  -6.30513  -4.52233  -4.52190  -4.51756
  Beta  occ. eigenvalues --   -0.58560  -0.34858  -0.34484  -0.24622
  Beta virt. eigenvalues --   -0.10179   0.00219   0.01883   0.10403   0.25570
  Beta virt. eigenvalues --    0.26776   0.29351   0.36191   0.60911   0.61111
  Beta virt. eigenvalues --    0.62697   0.63819   0.69003   0.88178   0.93619

 Mulliken charges and spin densities:
               1          2
     1  P   -0.118048   0.128004
     2  H    0.057784  -0.004088
     3  H    0.057788  -0.004089
     4  H    0.002571  -0.043569
     5  H   -0.000094   0.923742
 Sum of Mulliken charges =   0.00000   1.00000

 Dipole moment (field-independent basis, Debye):
    X=             -0.4275    Y=             -0.0001    Z=              0.8548  Tot=              0.9558
 Quadrupole moment (field-independent basis, Debye-Ang):
   XX=            -17.2952   YY=            -15.9049   ZZ=            -17.4271
   XY=              0.0001   XZ=              1.1508   YZ=              0.0000

  Exact polarizability:  39.772   0.002  21.936  -0.272  -0.000  20.338
 Approx polarizability:  59.690   0.002  38.346   1.598  -0.000  33.039

 ******    1 imaginary frequencies (negative Signs) ******

                      1                      2                      3
                      A                      A                      A
 Frequencies --   -357.8219               235.5187               239.7218
 Red. masses --      1.0301                 1.0213                 1.0079
 Frc consts  --      0.0777                 0.0334                 0.0341
 IR Inten    --     46.7960                 4.0739                 2.9385

                      4                      5                      6
                      A                      A                      A
 Frequencies --   1001.9605              1117.0056              1123.0526
 Red. masses --      1.0756                 1.0245                 1.0255
 Frc consts  --      0.6362                 0.7531                 0.7620
 IR Inten    --     12.6697                12.6028                 5.8608

                      7                      8                      9
                      A                      A                      A
 Frequencies --   2024.5723              2343.5831              2357.9111
 Red. masses --      1.0430                 1.0355                 1.0404
 Frc consts  --      2.5189                 3.3510                 3.4082
 IR Inten    --    122.6293                69.4473                99.7164

 - Thermochemistry -
 -------------------
 Temperature   298.150 Kelvin.  Pressure   1.00000 Atm.
 Atom     1 has atomic number 15 and mass  30.97376

 Molecular mass:    35.00506 amu.
 Principal axes and moments of inertia in atomic units:
                           1         2         3
     Eigenvalues --    14.51847  46.82681  47.79810
           X            0.99969   0.00000   0.02490
           Y           -0.00000   1.00000  -0.00000
           Z           -0.02490   0.00000   0.99969
 This molecule is an asymmetric top.
 Rotational symmetry number  1.
 Rotational temperatures (Kelvin)      5.96578     1.84967     1.81208
 Rotational constants (GHZ):         124.30660    38.54077    37.75760
    1 imaginary frequencies ignored.
 Zero-point vibrational energy      62465.0 (Joules/Mol)
                                   14.92948 (Kcal/Mol)
 Warning -- explicit consideration of   2 degrees of freedom as
           vibrations may cause significant error
 Vibrational temperatures:    338.86   344.91  1441.60  1607.12  1615.82
          (Kelvin)           2912.91  3371.89  3392.51

 Zero-point correction=                           0.023792 (Hartree/Particle)
 Thermal correction to Energy=                    0.027716
 Thermal correction to Enthalpy=                  0.028660
 Thermal correction to Gibbs Free Energy=         0.000179
 Sum of electronic and zero-point Energies=           -343.418047
 Sum of electronic and thermal Energies=              -343.414123
 Sum of electronic and thermal Enthalpies=            -343.413179
 Sum of electronic and thermal Free Energies=         -343.441660

                     E (Thermal)             CV                S
                      KCal/Mol        Cal/Mol-Kelvin    Cal/Mol-Kelvin
 Total                   17.392             10.446             59.943
 Electronic               0.000              0.000              1.377
 Translational            0.889              2.981             36.589
 Rotational               0.889              2.981             18.125
 Vibrational             15.615              4.485              3.851
 Vibration     1          0.655              1.786              1.836
 Vibration     2          0.657              1.780              1.805

 Optimization completed.
    -- Stationary point found.
 Normal termination of Gaussian 16 at Wed Oct  7 16:18:00 2020.
