 Gaussian 16, Revision A.03,

 ----------------------------------------------------------------------
 #P Opt(TS,MaxCyc=50,NoEigenTest,MaxStep=10,AddRedundant) PBEPBE/6-31G*
  5D 7F Integral=UltraFineGrid SCF=(NoSymm,XQC,MaxCyc=120) IOp(1/33=1)
 ----------------------------------------------------------------------

 TstMul:  Mul=     2
 TstMul:  ICh=     0
 TstMul:  Mul=     2
 Symbolic Z-matrix:
 Charge =  0 Multiplicity = 2

 SCF Done:  E(UPBE-PBE) =  -1.65297053092     A.U. after    9 cycles
 SCF Done:  E(UPBE-PBE) =  -1.65298449212     A.U. after    9 cycles
 SCF Done:  E(UPBE-PBE) =  -1.65298449212     A.U. after    8 cycles
 SCF Done:  E(UPBE-PBE) =  -1.65302754007     A.U. after   10 cycles
 SCF Done:  E(UPBE-PBE) =  -1.65302840134     A.U. after   10 cycles
 SCF Done:  E(UPBE-PBE) =  -1.65302573959     A.U. after    8 cycles
 Optimization completed.
    -- Stationary point found.
 Normal termination of Gaussian 16 at Wed Oct  7 16:13:34 2020.
 Gaussian 16:  ES64L-G16RevA.03 25-Dec-2016

 ----------------------------------------------------------------------
 #P Freq PBEPBE/6-31G* 5D 7F Integral=UltraFineGrid SCF=(NoSymm,XQC,Max
 Cyc=120) IOp(1/33=1) Geom=Check Guess=Read
 ----------------------------------------------------------------------

 TstMul:  Mul=     2
 TstMul:  ICh=     0
 TstMul:  Mul=     2
 Structure from the checkpoint file:  "MN_82_RKT06_BH76_PBE_631Gs.chk"
 Charge =  0 Multiplicity = 2

                         Standard orientation:
 ---------------------------------------------------------------------
 Center     Atomic      Atomic             Coordinates (Angstroms)
 Number     Number       Type             X           Y           Z
 ---------------------------------------------------------------------
      1          1           0        0.000000    0.000000    0.000008
      2          1           0        0.000000    0.000000    0.939542
      3          1           0        0.000000    0.000000   -0.939549
 ---------------------------------------------------------------------

 SCF Done:  E(UPBE-PBE) =  -1.65302573959     A.U. after    1 cycles

 The electronic state is 2-SG.
 Alpha  occ. eigenvalues --   -0.45135  -0.21494
 Alpha virt. eigenvalues --    0.12355   0.63480   0.71178   0.96293
  Beta  occ. eigenvalues --   -0.41086
  Beta virt. eigenvalues --   -0.11880   0.17385   0.68313   0.80152   1.00353

 Mulliken charges and spin densities:
               1          2
     1  H   -0.109768  -0.166713
     2  H    0.054886   0.583340
     3  H    0.054882   0.583373
 Sum of Mulliken charges =  -0.00000   1.00000

 Dipole moment (field-independent basis, Debye):
    X=              0.0000    Y=              0.0000    Z=              0.0000  Tot=              0.0000
 Quadrupole moment (field-independent basis, Debye-Ang):
   XX=             -3.3080   YY=             -3.3080   ZZ=             -3.2887
   XY=              0.0000   XZ=              0.0000   YZ=              0.0000

  Exact polarizability:   0.000   0.000   0.000   0.000   0.000  18.720
 Approx polarizability:  -0.000  -0.000  -0.000  -0.000  -0.000  28.444

 ******    1 imaginary frequencies (negative Signs) ******

                      1                      2                      3
                     SG                     PI                     PI
 Frequencies --   -673.1557              1078.0647              1078.0647
 Red. masses --      1.0078                 1.0078                 1.0078
 Frc consts  --      0.2691                 0.6901                 0.6901
 IR Inten    --     70.6076                 9.7137                 9.7137

                      4
                     SG
 Frequencies --   2027.8878
 Red. masses --      1.0078
 Frc consts  --      2.4419
 IR Inten    --      0.0000

 - Thermochemistry -
 -------------------
 Temperature   298.150 Kelvin.  Pressure   1.00000 Atm.
 Atom     1 has atomic number  1 and mass   1.00783

 Molecular mass:     3.02348 amu.
 Principal axes and moments of inertia in atomic units:
                           1         2         3
     Eigenvalues --     0.00000   6.35402   6.35402
           X            0.00000   0.00000   1.00000
           Y            0.00000   1.00000   0.00000
           Z            1.00000   0.00000   0.00000
 This molecule is a prolate symmetric top.
 Rotational symmetry number  1.
 Rotational temperature (Kelvin)     13.63136
 Rotational constant (GHZ):         284.031531
    1 imaginary frequencies ignored.
 Zero-point vibrational energy      25026.0 (Joules/Mol)
                                    5.98135 (Kcal/Mol)
 Vibrational temperatures:   1551.09  1551.09  2917.68
          (Kelvin)

 Zero-point correction=                           0.009532 (Hartree/Particle)
 Thermal correction to Energy=                    0.011947
 Thermal correction to Enthalpy=                  0.012891
 Thermal correction to Gibbs Free Energy=        -0.005602
 Sum of electronic and zero-point Energies=             -1.643494
 Sum of electronic and thermal Energies=                -1.641079
 Sum of electronic and thermal Enthalpies=              -1.640134
 Sum of electronic and thermal Free Energies=           -1.658627

                     E (Thermal)             CV                S
                      KCal/Mol        Cal/Mol-Kelvin    Cal/Mol-Kelvin
 Total                    7.497              5.577             38.922
 Electronic               0.000              0.000              1.377
 Translational            0.889              2.981             29.289
 Rotational               0.592              1.987              8.118
 Vibrational              6.016              0.609              0.138

 Optimization completed.
    -- Stationary point found.
 Normal termination of Gaussian 16 at Wed Oct  7 16:14:04 2020.
