 Gaussian 16, Revision A.03,

 ----------------------------------------------------------------------
 #P Opt(TS,MaxCyc=50,NoEigenTest,MaxStep=10,AddRedundant) PBEPBE/6-31G*
  5D 7F Integral=UltraFineGrid SCF=(NoSymm,XQC,MaxCyc=120) IOp(1/33=1)
 ----------------------------------------------------------------------

 TstMul:  Mul=     2
 TstMul:  ICh=     0
 TstMul:  Mul=     2
 Symbolic Z-matrix:
 Charge =  0 Multiplicity = 2

 SCF Done:  E(UPBE-PBE) =  -100.787461349     A.U. after   15 cycles
 SCF Done:  E(UPBE-PBE) =  -100.787373776     A.U. after   12 cycles
 SCF Done:  E(UPBE-PBE) =  -100.787276745     A.U. after   10 cycles
 SCF Done:  E(UPBE-PBE) =  -100.787465227     A.U. after   12 cycles
 SCF Done:  E(UPBE-PBE) =  -100.788112269     A.U. after   12 cycles
 SCF Done:  E(UPBE-PBE) =  -100.787537486     A.U. after   12 cycles
 SCF Done:  E(UPBE-PBE) =  -100.787194072     A.U. after   12 cycles
 SCF Done:  E(UPBE-PBE) =  -100.786913909     A.U. after   11 cycles
 SCF Done:  E(UPBE-PBE) =  -100.786632308     A.U. after   12 cycles
 SCF Done:  E(UPBE-PBE) =  -100.786346545     A.U. after   12 cycles
 SCF Done:  E(UPBE-PBE) =  -100.785355505     A.U. after   12 cycles
 SCF Done:  E(UPBE-PBE) =  -100.785178523     A.U. after   12 cycles
 SCF Done:  E(UPBE-PBE) =  -100.785042165     A.U. after   12 cycles
 SCF Done:  E(UPBE-PBE) =  -100.784953521     A.U. after   12 cycles
 SCF Done:  E(UPBE-PBE) =  -100.784918161     A.U. after   12 cycles
 SCF Done:  E(UPBE-PBE) =  -100.784928046     A.U. after   11 cycles
 SCF Done:  E(UPBE-PBE) =  -100.784922998     A.U. after    8 cycles
 SCF Done:  E(UPBE-PBE) =  -100.784923982     A.U. after    8 cycles
 SCF Done:  E(UPBE-PBE) =  -100.784924047     A.U. after    8 cycles
 Optimization completed.
    -- Stationary point found.

 1\1\GINC-NODE52\FTS\UPBEPBE\6-31G(d)\F1H2(2)\RPEVERATI\07-Oct-2020\0\\
 #P Opt(TS,MaxCyc=50,NoEigenTest,MaxStep=10,AddRedundant) PBEPBE/6-31G*
  5D 7F Integral=UltraFineGrid SCF=(NoSymm,XQC,MaxCyc=120) IOp(1/33=1)\
 \TS search on BH76.\\0,2\H,0.4727488652,-1.3617038855,0.\F,-0.16742058
 12,0.2000987764,0.\H,-0.305328284,-1.4817742324,0.\\Version=ES64L-G16R
 evA.03\State=2-A'\HF=-100.784924\S2=0.75086\S2-1=0.\S2A=0.750001\RMSD=
 1.525e-09\RMSF=1.164e-05\Dipole=0.0751241,-0.4854709,0.\Quadrupole=-0.
 2653068,0.8805317,-0.6152249,-0.1817887,0.,0.\PG=CS [SG(F1H2)]\\@

 Normal termination of Gaussian 16 at Wed Oct  7 16:16:57 2020.
 Gaussian 16:  ES64L-G16RevA.03 25-Dec-2016

 ----------------------------------------------------------------------
 #P Freq PBEPBE/6-31G* 5D 7F Integral=UltraFineGrid SCF=(NoSymm,XQC,Max
 Cyc=120) IOp(1/33=1) Geom=Check Guess=Read
 ----------------------------------------------------------------------

 TstMul:  Mul=     2
 TstMul:  ICh=     0
 TstMul:  Mul=     2
 Structure from the checkpoint file:  "MN_86_RKT10_BH76_PBE_631Gs.chk"
 Charge =  0 Multiplicity = 2

                         Standard orientation:
 ---------------------------------------------------------------------
 Center     Atomic      Atomic             Coordinates (Angstroms)
 Number     Number       Type             X           Y           Z
 ---------------------------------------------------------------------
      1          1           0        0.393643   -1.342974    0.000000
      2          9           0        0.000000    0.298394    0.000000
      3          1           0       -0.393643   -1.342569   -0.000000
 ---------------------------------------------------------------------

 SCF Done:  E(UPBE-PBE) =  -100.784924047     A.U. after    1 cycles

 The electronic state is 2-A'.
 Alpha  occ. eigenvalues --  -24.27357  -1.03567  -0.48102  -0.32250  -0.32026
 Alpha  occ. eigenvalues --   -0.31523
 Alpha virt. eigenvalues --    0.04275   0.52761   0.94983   1.11689   1.13421
 Alpha virt. eigenvalues --    1.16863   1.34820   1.75938   1.77191   1.78672
 Alpha virt. eigenvalues --    1.80325   1.80352
  Beta  occ. eigenvalues --  -24.25068  -0.98069  -0.43408  -0.29993  -0.29250
  Beta virt. eigenvalues --   -0.22765   0.05901   0.54643   0.97623   1.13140
  Beta virt. eigenvalues --    1.18377   1.20733   1.38512   1.80184   1.80933
  Beta virt. eigenvalues --    1.80954   1.82879   1.83067

 Mulliken charges and spin densities:
               1          2
     1  H    0.085238   0.110617
     2  F   -0.170569   0.778981
     3  H    0.085330   0.110402
 Sum of Mulliken charges =  -0.00000   1.00000

 Dipole moment (field-independent basis, Debye):
    X=             -0.0001    Y=             -1.2486    Z=              0.0000  Tot=              1.2486
 Quadrupole moment (field-independent basis, Debye-Ang):
   XX=             -6.2487   YY=             -4.6318   ZZ=             -6.6815
   XY=             -0.0000   XZ=              0.0000   YZ=             -0.0000

  Exact polarizability:   7.328  -0.002  12.834   0.000  -0.000   1.607
 Approx polarizability:  10.332  -0.004  22.972  -0.000  -0.000   1.916

 ******    1 imaginary frequencies (negative Signs) ******

                      1                      2                      3
                     A'                     A'                     A'
 Frequencies --   -581.5410               580.5931              3805.3963
 Red. masses --      1.0133                 1.1082                 1.0081
 Frc consts  --      0.2019                 0.2201                 8.6012
 IR Inten    --      3.6392                18.7450                97.0472

 - Thermochemistry -
 -------------------
 Temperature   298.150 Kelvin.  Pressure   1.00000 Atm.
 Atom     1 has atomic number  1 and mass   1.00783

 Molecular mass:    21.01405 amu.
 Principal axes and moments of inertia in atomic units:
                           1         2         3
     Eigenvalues --     1.11537  17.52770  18.64307
           X           -0.00003   1.00000   0.00000
           Y            1.00000   0.00003   0.00000
           Z            0.00000   0.00000   1.00000
 This molecule is an asymmetric top.
 Rotational symmetry number  1.
 Rotational temperatures (Kelvin)     77.65487     4.94154     4.64590
 Rotational constants (GHZ):        1618.06488   102.96508    96.80492
    1 imaginary frequencies ignored.
 Zero-point vibrational energy      26234.0 (Joules/Mol)
                                    6.27009 (Kcal/Mol)
 Warning -- explicit consideration of   1 degrees of freedom as
           vibrations may cause significant error
 Vibrational temperatures:    835.34  5475.12
          (Kelvin)

 Zero-point correction=                           0.009992 (Hartree/Particle)
 Thermal correction to Energy=                    0.012996
 Thermal correction to Enthalpy=                  0.013940
 Thermal correction to Gibbs Free Energy=        -0.010099
 Sum of electronic and zero-point Energies=           -100.774932
 Sum of electronic and thermal Energies=              -100.771929
 Sum of electronic and thermal Enthalpies=            -100.770984
 Sum of electronic and thermal Free Energies=         -100.795023

                     E (Thermal)             CV                S
                      KCal/Mol        Cal/Mol-Kelvin    Cal/Mol-Kelvin
 Total                    8.155              7.035             50.593
 Electronic               0.000              0.000              1.377
 Translational            0.889              2.981             35.068
 Rotational               0.889              2.981             13.664
 Vibrational              6.377              1.073              0.484
 Vibration     1          0.937              1.073              0.484

 Optimization completed.
    -- Stationary point found.
 Normal termination of Gaussian 16 at Wed Oct  7 16:17:24 2020.
