 Gaussian 16, Revision A.03,

 ----------------------------------------------------------------------
 #P Opt(TS,MaxCyc=50,NoEigenTest,MaxStep=10,AddRedundant) PBEPBE/6-31G*
  5D 7F Integral=UltraFineGrid SCF=(NoSymm,XQC,MaxCyc=120) IOp(1/33=1)
 ----------------------------------------------------------------------

 TstMul:  Mul=     3
 TstMul:  ICh=     0
 TstMul:  Mul=     3
 Symbolic Z-matrix:
 Charge =  0 Multiplicity = 3

 SCF Done:  E(UPBE-PBE) =  -115.409961788     A.U. after   13 cycles
 SCF Done:  E(UPBE-PBE) =  -115.410568307     A.U. after   12 cycles
 SCF Done:  E(UPBE-PBE) =  -115.410966722     A.U. after   12 cycles
 SCF Done:  E(UPBE-PBE) =  -115.410340011     A.U. after   12 cycles
 SCF Done:  E(UPBE-PBE) =  -115.409798336     A.U. after   12 cycles
 SCF Done:  E(UPBE-PBE) =  -115.409447681     A.U. after   11 cycles
 SCF Done:  E(UPBE-PBE) =  -115.409301549     A.U. after   12 cycles
 SCF Done:  E(UPBE-PBE) =  -115.409308379     A.U. after   11 cycles
 SCF Done:  E(UPBE-PBE) =  -115.409309504     A.U. after    9 cycles
 Optimization completed.
    -- Stationary point found.
 Normal termination of Gaussian 16 at Wed Oct  7 16:14:02 2020.
 Gaussian 16:  ES64L-G16RevA.03 25-Dec-2016

 ----------------------------------------------------------------------
 #P Freq PBEPBE/6-31G* 5D 7F Integral=UltraFineGrid SCF=(NoSymm,XQC,Max
 Cyc=120) IOp(1/33=1) Geom=Check Guess=Read
 ----------------------------------------------------------------------

 TstMul:  Mul=     3
 TstMul:  ICh=     0
 TstMul:  Mul=     3
 Structure from the checkpoint file:  "MN_87_RKT11_BH76_PBE_631Gs.chk"
 Charge =  0 Multiplicity = 3

                         Standard orientation:
 ---------------------------------------------------------------------
 Center     Atomic      Atomic             Coordinates (Angstroms)
 Number     Number       Type             X           Y           Z
 ---------------------------------------------------------------------
      1          6           0        0.000533   -1.191835   -0.000000
      2          1           0       -1.078605   -1.383923   -0.000000
      3          1           0        0.528899   -1.424042    0.930928
      4          1           0        0.528899   -1.424042   -0.930928
      5          1           0        0.013339    0.280382    0.000000
      6          8           0        0.000533    1.387830    0.000000
 ---------------------------------------------------------------------

 SCF Done:  E(UPBE-PBE) =  -115.409309504     A.U. after    1 cycles

 The electronic state is 3-A'.
 Alpha  occ. eigenvalues --  -18.81318  -9.92263  -0.87714  -0.64587  -0.40855
 Alpha  occ. eigenvalues --   -0.38791  -0.38766  -0.32277  -0.24626  -0.22310
 Alpha virt. eigenvalues --    0.07160   0.12660   0.12764   0.20341   0.46983
 Alpha virt. eigenvalues --    0.47392   0.49196   0.66771   0.80148   0.81503
 Alpha virt. eigenvalues --    0.82186   0.82333   0.85145   0.89779   1.08972

  Beta  occ. eigenvalues --  -18.78253  -9.91186  -0.80033  -0.61862  -0.37938
  Beta  occ. eigenvalues --   -0.37915  -0.36261  -0.21502
  Beta virt. eigenvalues --   -0.18388  -0.14957   0.08219   0.13377   0.13460
  Beta virt. eigenvalues --    0.23498   0.48201   0.48268   0.54272   0.67956
  Beta virt. eigenvalues --    0.82851   0.82985   0.83430   0.87219   0.89684

 Mulliken charges and spin densities:
               1          2
     1  C   -0.650292   0.783856
     2  H    0.207282  -0.024291
     3  H    0.207690  -0.025507
     4  H    0.207690  -0.025507
     5  H    0.408292  -0.039393
     6  O   -0.380661   1.330841
 Sum of Mulliken charges =  -0.00000   2.00000

 Dipole moment (field-independent basis, Debye):
    X=              0.0007    Y=             -2.2109    Z=             -0.0000  Tot=              2.2109
 Quadrupole moment (field-independent basis, Debye-Ang):
   XX=            -12.3153   YY=            -15.5595   ZZ=            -13.4373
   XY=             -0.0050   XZ=             -0.0000   YZ=              0.0000

  Exact polarizability:  14.567  -0.099  29.694  -0.000  -0.000  14.330
 Approx polarizability:  20.128  -0.157  49.247   0.000   0.000  19.272

 ******    1 imaginary frequencies (negative Signs) ******

                      1                      2                      3
                     A'                     A"                     A'
 Frequencies --   -475.2029               244.9904               375.0155
 Red. masses --      2.4997                 1.0510                 1.0671
 Frc consts  --      0.3326                 0.0372                 0.0884
 IR Inten    --     41.4942                15.9868                 3.5251

                      4                      5                      6
                     A"                     A'                     A'
 Frequencies --    753.1985               766.2413              1015.2129
 Red. masses --      1.0624                 1.2880                 1.0515
 Frc consts  --      0.3551                 0.4455                 0.6385
 IR Inten    --     42.7158                 0.1489                54.1036

                      7                      8                      9
                     A'                     A'                     A"
 Frequencies --   1387.3639              1398.3408              1409.0830
 Red. masses --      1.2869                 1.0900                 1.0900
 Frc consts  --      1.4594                 1.2558                 1.2751
 IR Inten    --     33.8051                 5.5934                 5.2528

                     10                     11                     12
                     A'                     A'                     A"
 Frequencies --   3043.3138              3195.8822              3205.0234
 Red. masses --      1.0150                 1.1128                 1.1142
 Frc consts  --      5.5388                 6.6963                 6.7435
 IR Inten    --      0.4145                 3.2717                 3.0985

 - Thermochemistry -
 -------------------
 Temperature   298.150 Kelvin.  Pressure   1.00000 Atm.
 Atom     1 has atomic number  6 and mass  12.00000

 Molecular mass:    32.02621 amu.
 Principal axes and moments of inertia in atomic units:
                           1         2         3
     Eigenvalues --    12.43924 197.15225 197.18901
           X           -0.00013   0.00000   1.00000
           Y            1.00000   0.00000   0.00013
           Z            0.00000   1.00000   0.00000
 This molecule is an asymmetric top.
 Rotational symmetry number  1.
 Rotational temperatures (Kelvin)      6.96296     0.43933     0.43924
 Rotational constants (GHZ):         145.08457     9.15405     9.15234
    1 imaginary frequencies ignored.
 Zero-point vibrational energy     100448.4 (Joules/Mol)
                                   24.00775 (Kcal/Mol)
 Warning -- explicit consideration of   2 degrees of freedom as
           vibrations may cause significant error
 Vibrational temperatures:    352.49   539.56  1083.68  1102.45  1460.66
          (Kelvin)           1996.11  2011.90  2027.36  4378.65  4598.16
                             4611.31

 Zero-point correction=                           0.038259 (Hartree/Particle)
 Thermal correction to Energy=                    0.042158
 Thermal correction to Enthalpy=                  0.043103
 Thermal correction to Gibbs Free Energy=         0.013279
 Sum of electronic and zero-point Energies=           -115.371051
 Sum of electronic and thermal Energies=              -115.367151
 Sum of electronic and thermal Enthalpies=            -115.366207
 Sum of electronic and thermal Free Energies=         -115.396030

                     E (Thermal)             CV                S
                      KCal/Mol        Cal/Mol-Kelvin    Cal/Mol-Kelvin
 Total                   26.455             11.376             62.769
 Electronic               0.000              0.000              2.183
 Translational            0.889              2.981             36.324
 Rotational               0.889              2.981             20.808
 Vibrational             24.677              5.414              3.453
 Vibration     1          0.660              1.771              1.766
 Vibration     2          0.746              1.523              1.059

                           ! Non-Optimized Parameters !
 Normal termination of Gaussian 16 at Wed Oct  7 16:14:28 2020.
