 Gaussian 16, Revision A.03,

 ----------------------------------------------------------------------
 #P Opt(TS,MaxCyc=50,NoEigenTest,MaxStep=10,AddRedundant) PBEPBE/6-31G*
  5D 7F Integral=UltraFineGrid SCF=(NoSymm,XQC,MaxCyc=120) IOp(1/33=1)
 ----------------------------------------------------------------------

 TstMul:  Mul=     2
 TstMul:  ICh=     0
 TstMul:  Mul=     2
 Symbolic Z-matrix:
 Charge =  0 Multiplicity = 2

 SCF Done:  E(UPBE-PBE) =  -132.124002036     A.U. after   16 cycles
 SCF Done:  E(UPBE-PBE) =  -132.124041565     A.U. after   11 cycles
 SCF Done:  E(UPBE-PBE) =  -132.124033203     A.U. after   11 cycles
 SCF Done:  E(UPBE-PBE) =  -132.124436878     A.U. after   13 cycles
 SCF Done:  E(UPBE-PBE) =  -132.124574384     A.U. after   13 cycles
 SCF Done:  E(UPBE-PBE) =  -132.125149528     A.U. after   13 cycles
 SCF Done:  E(UPBE-PBE) =  -132.125324009     A.U. after   14 cycles
 SCF Done:  E(UPBE-PBE) =  -132.125277926     A.U. after   12 cycles
 SCF Done:  E(UPBE-PBE) =  -132.125811909     A.U. after   14 cycles
 SCF Done:  E(UPBE-PBE) =  -132.125858126     A.U. after   14 cycles
 SCF Done:  E(UPBE-PBE) =  -132.124368140     A.U. after   14 cycles
 SCF Done:  E(UPBE-PBE) =  -132.124384827     A.U. after   11 cycles
 SCF Done:  E(UPBE-PBE) =  -132.124388231     A.U. after   13 cycles
 SCF Done:  E(UPBE-PBE) =  -132.124389810     A.U. after   10 cycles
 SCF Done:  E(UPBE-PBE) =  -132.124390474     A.U. after   10 cycles
 SCF Done:  E(UPBE-PBE) =  -132.124391037     A.U. after   11 cycles
 SCF Done:  E(UPBE-PBE) =  -132.124391243     A.U. after   10 cycles
 SCF Done:  E(UPBE-PBE) =  -132.124391442     A.U. after   10 cycles
 SCF Done:  E(UPBE-PBE) =  -132.124391543     A.U. after    9 cycles
 Optimization completed.
    -- Stationary point found.
 Normal termination of Gaussian 16 at Wed Oct  7 16:18:06 2020.
 Gaussian 16:  ES64L-G16RevA.03 25-Dec-2016

 ----------------------------------------------------------------------
 #P Freq PBEPBE/6-31G* 5D 7F Integral=UltraFineGrid SCF=(NoSymm,XQC,Max
 Cyc=120) IOp(1/33=1) Geom=Check Guess=Read
 ----------------------------------------------------------------------

 TstMul:  Mul=     2
 TstMul:  ICh=     0
 TstMul:  Mul=     2
 Structure from the checkpoint file:  "MN_83_RKT07_BH76_PBE_631Gs.chk"
 Charge =  0 Multiplicity = 2

                         Standard orientation:
 ---------------------------------------------------------------------
 Center     Atomic      Atomic             Coordinates (Angstroms)
 Number     Number       Type             X           Y           Z
 ---------------------------------------------------------------------
      1          7           0       -1.210918   -0.094968    0.000134
      2          8           0        1.247652   -0.085020    0.000054
      3          1           0       -1.284302    0.503187    0.830581
      4          1           0       -1.284910    0.501480   -0.831488
      5          1           0       -0.261556   -0.556228    0.000290
      6          1           0        1.325979    0.896493   -0.000753
 ---------------------------------------------------------------------

 SCF Done:  E(UPBE-PBE) =  -132.124391543     A.U. after    1 cycles

 The electronic state is 2-A.
 Alpha  occ. eigenvalues --  -18.76276 -14.01217  -0.86539  -0.79550  -0.44778
 Alpha  occ. eigenvalues --   -0.44084  -0.36003  -0.28781  -0.23046  -0.21809
 Alpha virt. eigenvalues --    0.03540   0.09006   0.11468   0.20516   0.58777
 Alpha virt. eigenvalues --    0.61419   0.63038   0.74081   0.78112   0.82364
 Alpha virt. eigenvalues --    0.86583   0.87028   0.93222   1.04393   1.18081

  Beta  occ. eigenvalues --  -18.74680 -14.00576  -0.83066  -0.77948  -0.43748
  Beta  occ. eigenvalues --   -0.43647  -0.34455  -0.24420  -0.20158
  Beta virt. eigenvalues --   -0.16742   0.04078   0.09546   0.11662   0.21197
  Beta virt. eigenvalues --    0.60185   0.61669   0.64931   0.74693   0.80276
  Beta virt. eigenvalues --    0.82723   0.87154   0.88126   0.95395   1.07123

 Mulliken charges and spin densities:
               1          2
     1  N   -0.826014   0.347460
     2  O   -0.600094   0.711040
     3  H    0.325424  -0.010875
     4  H    0.325424  -0.010877
     5  H    0.403713  -0.016207
     6  H    0.371547  -0.020541
 Sum of Mulliken charges =  -0.00000   1.00000

 Dipole moment (field-independent basis, Debye):
    X=             -1.0056    Y=              2.6215    Z=             -0.0028  Tot=              2.8077
 Quadrupole moment (field-independent basis, Debye-Ang):
   XX=            -15.3874   YY=            -11.6787   ZZ=            -12.3540
   XY=             -0.2525   XZ=              0.0018   YZ=              0.0002

  Exact polarizability:  42.235   1.588  13.864  -0.001  -0.001  11.651
 Approx polarizability: 128.582   3.684  20.560  -0.007  -0.002  15.919

 ******    1 imaginary frequencies (negative Signs) ******

                      1                      2                      3
                      A                      A                      A
 Frequencies --   -301.1055               290.8451               324.7001
 Red. masses --      1.0816                 1.5895                 1.7103
 Frc consts  --      0.0578                 0.0792                 0.1062
 IR Inten    --     67.1802                14.7964                57.5715

                      4                      5                      6
                      A                      A                      A
 Frequencies --    401.1927               590.4528              1007.2711
 Red. masses --      1.0128                 1.1689                 1.1909
 Frc consts  --      0.0960                 0.2401                 0.7119
 IR Inten    --     20.1453               140.3105               299.7551

                      7                      8                      9
                      A                      A                      A
 Frequencies --   1537.6396              1652.6088              2941.3648
 Red. masses --      1.0701                 1.0705                 1.0611
 Frc consts  --      1.4907                 1.7225                 5.4087
 IR Inten    --     34.4932                19.6148                55.1805

                     10                     11                     12
                      A                      A                      A
 Frequencies --   3434.5100              3528.3091              3596.1369
 Red. masses --      1.0565                 1.0916                 1.0670
 Frc consts  --      7.3425                 8.0065                 8.1298
 IR Inten    --      6.4051                 4.4265                 8.9617

 - Thermochemistry -
 -------------------
 Temperature   298.150 Kelvin.  Pressure   1.00000 Atm.
 Atom     1 has atomic number  7 and mass  14.00307

 Molecular mass:    34.02929 amu.
 Principal axes and moments of inertia in atomic units:
                           1         2         3
     Eigenvalues --    11.47048 185.43065 186.95895
           X            1.00000  -0.00032   0.00001
           Y            0.00032   1.00000   0.00017
           Z           -0.00001  -0.00017   1.00000
 This molecule is an asymmetric top.
 Rotational symmetry number  1.
 Rotational temperatures (Kelvin)      7.55103     0.46710     0.46328
 Rotational constants (GHZ):         157.33794     9.73270     9.65314
    1 imaginary frequencies ignored.
 Zero-point vibrational energy     115469.7 (Joules/Mol)
                                   27.59793 (Kcal/Mol)
 Warning -- explicit consideration of   4 degrees of freedom as
           vibrations may cause significant error
 Vibrational temperatures:    418.46   467.17   577.23   849.53  1449.24
          (Kelvin)           2212.32  2377.74  4231.97  4941.49  5076.45
                             5174.04

 Zero-point correction=                           0.043980 (Hartree/Particle)
 Thermal correction to Energy=                    0.048151
 Thermal correction to Enthalpy=                  0.049095
 Thermal correction to Gibbs Free Energy=         0.019265
 Sum of electronic and zero-point Energies=           -132.080411
 Sum of electronic and thermal Energies=              -132.076241
 Sum of electronic and thermal Enthalpies=            -132.075297
 Sum of electronic and thermal Free Energies=         -132.105127

                     E (Thermal)             CV                S
                      KCal/Mol        Cal/Mol-Kelvin    Cal/Mol-Kelvin
 Total                   30.215             12.277             62.783
 Electronic               0.000              0.000              1.377
 Translational            0.889              2.981             36.505
 Rotational               0.889              2.981             20.614
 Vibrational             28.438              6.315              4.287
 Vibration     1          0.687              1.691              1.469
 Vibration     2          0.709              1.626              1.286
 Vibration     3          0.767              1.468              0.958
 Vibration     4          0.948              1.052              0.466

                           ! Non-Optimized Parameters !
 Normal termination of Gaussian 16 at Wed Oct  7 16:18:35 2020.
