 Gaussian 16, Revision A.03,

 ----------------------------------------------------------------------
 #P Opt(TS,MaxCyc=50,NoEigenTest,MaxStep=10,AddRedundant) PBEPBE/6-31G*
  5D 7F Integral=UltraFineGrid SCF=(NoSymm,XQC,MaxCyc=120) IOp(1/33=1)
 ----------------------------------------------------------------------

 TstMul:  Mul=     2
 TstMul:  ICh=     0
 TstMul:  Mul=     2
 Symbolic Z-matrix:
 Charge =  0 Multiplicity = 2

 SCF Done:  E(UPBE-PBE) =  -116.082361609     A.U. after   13 cycles
 SCF Done:  E(UPBE-PBE) =  -116.082771333     A.U. after   13 cycles
 SCF Done:  E(UPBE-PBE) =  -116.083308842     A.U. after   12 cycles
 SCF Done:  E(UPBE-PBE) =  -116.083326366     A.U. after   10 cycles
 SCF Done:  E(UPBE-PBE) =  -116.083320425     A.U. after   13 cycles
 SCF Done:  E(UPBE-PBE) =  -116.083346122     A.U. after   11 cycles
 SCF Done:  E(UPBE-PBE) =  -116.083272743     A.U. after   13 cycles
 SCF Done:  E(UPBE-PBE) =  -116.083240731     A.U. after   13 cycles
 SCF Done:  E(UPBE-PBE) =  -116.083248410     A.U. after   11 cycles
 SCF Done:  E(UPBE-PBE) =  -116.083248885     A.U. after   10 cycles
 SCF Done:  E(UPBE-PBE) =  -116.083249541     A.U. after    9 cycles
 SCF Done:  E(UPBE-PBE) =  -116.083250523     A.U. after   11 cycles
 SCF Done:  E(UPBE-PBE) =  -116.083250434     A.U. after    9 cycles
 SCF Done:  E(UPBE-PBE) =  -116.083251958     A.U. after   12 cycles
 SCF Done:  E(UPBE-PBE) =  -116.083254006     A.U. after   11 cycles
 SCF Done:  E(UPBE-PBE) =  -116.083254791     A.U. after   11 cycles
 SCF Done:  E(UPBE-PBE) =  -116.083254927     A.U. after   11 cycles
 SCF Done:  E(UPBE-PBE) =  -116.083254972     A.U. after   11 cycles
 SCF Done:  E(UPBE-PBE) =  -116.083254979     A.U. after    9 cycles
 Optimization completed.
    -- Stationary point found.
 Normal termination of Gaussian 16 at Wed Oct  7 16:15:57 2020.
 Gaussian 16:  ES64L-G16RevA.03 25-Dec-2016

 ----------------------------------------------------------------------
 #P Freq PBEPBE/6-31G* 5D 7F Integral=UltraFineGrid SCF=(NoSymm,XQC,Max
 Cyc=120) IOp(1/33=1) Geom=Check Guess=Read
 ----------------------------------------------------------------------

 TstMul:  Mul=     2
 TstMul:  ICh=     0
 TstMul:  Mul=     2
 Structure from the checkpoint file:  "MN_81_RKT04_BH76_PBE_631Gs.chk"
 Charge =  0 Multiplicity = 2

                         Standard orientation:
 ---------------------------------------------------------------------
 Center     Atomic      Atomic             Coordinates (Angstroms)
 Number     Number       Type             X           Y           Z
 ---------------------------------------------------------------------
      1          6           0       -1.223934    0.008321   -0.000001
      2          8           0        1.314895   -0.110791   -0.000003
      3          1           0       -0.018486   -0.173438   -0.000132
      4          1           0       -1.591150   -0.475719    0.915489
      5          1           0       -1.405380    1.091879    0.000081
      6          1           0       -1.591456   -0.475641   -0.915405
      7          1           0        1.430921    0.869325   -0.000004
 ---------------------------------------------------------------------

 SCF Done:  E(UPBE-PBE) =  -116.083254979     A.U. after    1 cycles

 The electronic state is 2-A.
 Alpha  occ. eigenvalues --  -18.77545  -9.89970  -0.88211  -0.64105  -0.42275
 Alpha  occ. eigenvalues --   -0.36976  -0.36729  -0.35437  -0.23282  -0.23041
 Alpha virt. eigenvalues --    0.05842   0.09920   0.13243   0.13496   0.24323
 Alpha virt. eigenvalues --    0.48234   0.48311   0.50476   0.73526   0.76384
 Alpha virt. eigenvalues --    0.82564   0.82652   0.84438   0.86635   0.92682

  Beta  occ. eigenvalues --  -18.75991  -9.89346  -0.84672  -0.62602  -0.40060
  Beta  occ. eigenvalues --   -0.36260  -0.36230  -0.32913  -0.21475
  Beta virt. eigenvalues --   -0.16731   0.06426   0.10499   0.13709   0.13976
  Beta virt. eigenvalues --    0.25878   0.48714   0.48736   0.53132   0.74612
  Beta virt. eigenvalues --    0.77306   0.83057   0.83197   0.85303   0.87659

 Mulliken charges and spin densities:
               1          2
     1  C   -0.703224   0.422691
     2  O   -0.590630   0.660327
     3  H    0.335404  -0.041086
     4  H    0.197448  -0.006762
     5  H    0.184218  -0.012189
     6  H    0.197441  -0.006757
     7  H    0.379344  -0.016225
 Sum of Mulliken charges =   0.00000   1.00000

 Dipole moment (field-independent basis, Debye):
    X=             -1.2656    Y=              1.4945    Z=             -0.0000  Tot=              1.9584
 Quadrupole moment (field-independent basis, Debye-Ang):
   XX=            -14.4363   YY=            -12.5875   ZZ=            -14.4396
   XY=              2.5383   XZ=              0.0001   YZ=             -0.0000

  Exact polarizability:  35.215   1.311  18.461   0.001  -0.000  14.770
 Approx polarizability:  60.838  -0.176  26.999   0.002  -0.000  19.980

 ******    1 imaginary frequencies (negative Signs) ******

                      1                      2                      3
                      A                      A                      A
 Frequencies --   -436.3966                29.6159               240.0079
 Red. masses --      1.7538                 1.0549                 1.0545
 Frc consts  --      0.1968                 0.0005                 0.0358
 IR Inten    --     98.2578                81.5427                 4.3863

                      4                      5                      6
                      A                      A                      A
 Frequencies --    349.8979               839.4114              1018.9197
 Red. masses --      1.1067                 1.1233                 1.9656
 Frc consts  --      0.0798                 0.4663                 1.2023
 IR Inten    --      7.3181                41.2065               285.2964

                      7                      8                      9
                      A                      A                      A
 Frequencies --   1099.8717              1293.0113              1396.0352
 Red. masses --      1.1102                 1.0432                 1.1171
 Frc consts  --      0.7913                 1.0276                 1.2827
 IR Inten    --     44.3484                81.2851                27.6838

                     10                     11                     12
                      A                      A                      A
 Frequencies --   1431.4670              1451.7106              3024.5769
 Red. masses --      1.0555                 1.0172                 1.0238
 Frc consts  --      1.2743                 1.2631                 5.5183
 IR Inten    --      2.0468                 4.1418                 1.7929

                     13                     14                     15
                      A                      A                      A
 Frequencies --   3147.6781              3150.8070              3574.8898
 Red. masses --      1.1067                 1.1073                 1.0665
 Frc consts  --      6.4604                 6.4769                 8.0304
 IR Inten    --     10.1907                 7.8011                 8.4519

 - Thermochemistry -
 -------------------
 Temperature   298.150 Kelvin.  Pressure   1.00000 Atm.
 Atom     1 has atomic number  6 and mass  12.00000

 Molecular mass:    33.03404 amu.
 Principal axes and moments of inertia in atomic units:
                           1         2         3
     Eigenvalues --    15.32055 200.70827 203.96431
           X            0.99976   0.02191   0.00000
           Y           -0.02191   0.99976  -0.00000
           Z           -0.00000   0.00000   1.00000
 This molecule is an asymmetric top.
 Rotational symmetry number  1.
 Rotational temperatures (Kelvin)      5.65345     0.43154     0.42465
 Rotational constants (GHZ):         117.79873     8.99186     8.84832
    1 imaginary frequencies ignored.
 Zero-point vibrational energy     131875.7 (Joules/Mol)
                                   31.51906 (Kcal/Mol)
 Warning -- explicit consideration of   3 degrees of freedom as
           vibrations may cause significant error
 Vibrational temperatures:     42.61   345.32   503.43  1207.73  1466.00
          (Kelvin)           1582.47  1860.35  2008.58  2059.56  2088.69
                             4351.69  4528.81  4533.31  5143.47

 Zero-point correction=                           0.050229 (Hartree/Particle)
 Thermal correction to Energy=                    0.054960
 Thermal correction to Enthalpy=                  0.055905
 Thermal correction to Gibbs Free Energy=         0.023554
 Sum of electronic and zero-point Energies=           -116.033026
 Sum of electronic and thermal Energies=              -116.028295
 Sum of electronic and thermal Enthalpies=            -116.027350
 Sum of electronic and thermal Free Energies=         -116.059701

                     E (Thermal)             CV                S
                      KCal/Mol        Cal/Mol-Kelvin    Cal/Mol-Kelvin
 Total                   34.488             12.968             68.088
 Electronic               0.000              0.000              1.377
 Translational            0.889              2.981             36.416
 Rotational               0.889              2.981             21.066
 Vibrational             32.711              7.006              9.228
 Vibration     1          0.593              1.984              5.855
 Vibration     2          0.657              1.779              1.803
 Vibration     3          0.727              1.575              1.167

 Optimization completed.
    -- Stationary point found.
 Normal termination of Gaussian 16 at Wed Oct  7 16:16:27 2020.
