 Gaussian 16, Revision A.03,

 ----------------------------------------------------------------------
 #P Opt(TS,MaxCyc=50,NoEigenTest,MaxStep=10,AddRedundant) PBEPBE/6-31G*
  5D 7F Integral=UltraFineGrid SCF=(NoSymm,XQC,MaxCyc=120) IOp(1/33=1)
 ----------------------------------------------------------------------

 TstMul:  Mul=     3
 TstMul:  ICh=     0
 TstMul:  Mul=     3
 Symbolic Z-matrix:
 Charge =  0 Multiplicity = 3

 SCF Done:  E(UPBE-PBE) =  -76.1292556199     A.U. after   11 cycles
 SCF Done:  E(UPBE-PBE) =  -76.1294211286     A.U. after   10 cycles
 SCF Done:  E(UPBE-PBE) =  -76.1294352552     A.U. after    8 cycles
 SCF Done:  E(UPBE-PBE) =  -76.1294478005     A.U. after    9 cycles
 SCF Done:  E(UPBE-PBE) =  -76.1293777846     A.U. after   11 cycles
 SCF Done:  E(UPBE-PBE) =  -76.1293972457     A.U. after    9 cycles
 SCF Done:  E(UPBE-PBE) =  -76.1293957702     A.U. after    8 cycles
 Optimization completed.
    -- Stationary point found.

 1\1\GINC-NODE26\FTS\UPBEPBE\6-31G(d)\H2O1(3)\RPEVERATI\07-Oct-2020\0\\
 #P Opt(TS,MaxCyc=50,NoEigenTest,MaxStep=10,AddRedundant) PBEPBE/6-31G*
  5D 7F Integral=UltraFineGrid SCF=(NoSymm,XQC,MaxCyc=120) IOp(1/33=1)\
 \TS search on BH76.\\0,3\H,0.,0.,-0.8433650436\O,0.,0.,0.3358116942\H,
 0.,0.,-1.7956190217\\Version=ES64L-G16RevA.03\HF=-76.1293958\S2=2.0069
 85\S2-1=0.\S2A=2.00001\RMSD=3.503e-09\RMSF=1.208e-05\Dipole=0.,0.,-0.4
 537193\Quadrupole=-0.6695315,0.1738582,0.4956733,0.,0.,0.\PG=C*V [C*(H
 1H1O1)]\\@

 Normal termination of Gaussian 16 at Wed Oct  7 16:13:29 2020.
 Gaussian 16:  ES64L-G16RevA.03 25-Dec-2016

 ----------------------------------------------------------------------
 #P Freq PBEPBE/6-31G* 5D 7F Integral=UltraFineGrid SCF=(NoSymm,XQC,Max
 Cyc=120) IOp(1/33=1) Geom=Check Guess=Read
 ----------------------------------------------------------------------

 TstMul:  Mul=     3
 TstMul:  ICh=     0
 TstMul:  Mul=     3
 Structure from the checkpoint file:  "MN_89_RKT14_BH76_PBE_631Gs.chk"
 Charge =  0 Multiplicity = 3

                         Standard orientation:
 ---------------------------------------------------------------------
 Center     Atomic      Atomic             Coordinates (Angstroms)
 Number     Number       Type             X           Y           Z
 ---------------------------------------------------------------------
      1          1           0        0.000000    0.000000   -0.848116
      2          8           0        0.000000    0.000000    0.331061
      3          1           0        0.000000    0.000000   -1.800370
 ---------------------------------------------------------------------

 SCF Done:  E(UPBE-PBE) =  -76.1293957702     A.U. after    1 cycles

 Unable to determine electronic state:  partially filled degenerate orbitals.
 Alpha  occ. eigenvalues --  -18.85182  -0.89971  -0.46714  -0.35259  -0.28061
 Alpha  occ. eigenvalues --   -0.27462
 Alpha virt. eigenvalues --    0.14250   0.58944   0.72703   0.75676   0.80687
 Alpha virt. eigenvalues --    0.88205   1.30565   1.61441   1.66551   1.67413
 Alpha virt. eigenvalues --    1.67445   2.08933
  Beta  occ. eigenvalues --  -18.81718  -0.81114  -0.40952  -0.23959
  Beta virt. eigenvalues --   -0.20703  -0.18433   0.18804   0.62217   0.80008
  Beta virt. eigenvalues --    0.82993   0.85709   0.93350   1.37345   1.70304
  Beta virt. eigenvalues --    1.71759   1.74277   1.75828   2.14911

 Mulliken charges and spin densities:
               1          2
     1  H    0.219789  -0.081856
     2  O   -0.251305   1.495747
     3  H    0.031515   0.586109
 Sum of Mulliken charges =   0.00000   2.00000

 Dipole moment (field-independent basis, Debye):
    X=              0.0000    Y=             -0.0000    Z=             -1.1532  Tot=              1.1532
 Quadrupole moment (field-independent basis, Debye-Ang):
   XX=             -7.7129   YY=             -6.5785   ZZ=             -6.1456
   XY=              0.0000   XZ=              0.0000   YZ=             -0.0000

  Exact polarizability:   2.320  -0.000   2.660   0.000  -0.000  20.226
 Approx polarizability:   2.619  -0.000   3.600   0.000  -0.000  35.900

 ******    1 imaginary frequencies (negative Signs) ******

                      1                      2                      3
                     SG                     PI                     PI
 Frequencies --   -930.2979               317.6029               890.1667
 Red. masses --      1.0459                 1.0169                 1.0169
 Frc consts  --      0.5333                 0.0604                 0.4748
 IR Inten    --    154.6667                20.3617                14.4538

                      4
                     SG
 Frequencies --   1539.4385
 Red. masses --      1.0819
 Frc consts  --      1.5107
 IR Inten    --     39.7405

 - Thermochemistry -
 -------------------
 Temperature   298.150 Kelvin.  Pressure   1.00000 Atm.
 Atom     1 has atomic number  1 and mass   1.00783

 Molecular mass:    18.01056 amu.
 Principal axes and moments of inertia in atomic units:
                           1         2         3
     Eigenvalues --     0.00000  19.14728  19.14728
           X            0.00000   0.00000   1.00000
           Y            0.00000   1.00000   0.00000
           Z            1.00000   0.00000   0.00000
 This molecule is a prolate symmetric top.
 Rotational symmetry number  1.
 Rotational temperature (Kelvin)      4.52356
 Rotational constant (GHZ):          94.255743
    1 imaginary frequencies ignored.
 Zero-point vibrational energy      16432.0 (Joules/Mol)
                                    3.92733 (Kcal/Mol)
 Warning -- explicit consideration of   1 degrees of freedom as
           vibrations may cause significant error
 Vibrational temperatures:    456.96  1280.75  2214.91
          (Kelvin)

 Zero-point correction=                           0.006259 (Hartree/Particle)
 Thermal correction to Energy=                    0.009078
 Thermal correction to Enthalpy=                  0.010022
 Thermal correction to Gibbs Free Energy=        -0.013059
 Sum of electronic and zero-point Energies=            -76.123137
 Sum of electronic and thermal Energies=               -76.120318
 Sum of electronic and thermal Enthalpies=             -76.119374
 Sum of electronic and thermal Free Energies=          -76.142455

                     E (Thermal)             CV                S
                      KCal/Mol        Cal/Mol-Kelvin    Cal/Mol-Kelvin
 Total                    5.696              7.187             48.579
 Electronic               0.000              0.000              2.183
 Translational            0.889              2.981             34.608
 Rotational               0.592              1.987             10.310
 Vibrational              4.215              2.219              1.478
 Vibration     1          0.704              1.640              1.322

 Optimization completed.
    -- Stationary point found.
 Normal termination of Gaussian 16 at Wed Oct  7 16:13:50 2020.
