 Gaussian 16, Revision A.03,

 ----------------------------------------------------------------------
 #P Opt(TS,MaxCyc=50,NoEigenTest,MaxStep=10,AddRedundant) PBEPBE/6-31G*
  5D 7F Integral=UltraFineGrid SCF=(NoSymm,XQC,MaxCyc=120) IOp(1/33=1)
 ----------------------------------------------------------------------

 TstMul:  Mul=     3
 TstMul:  ICh=     0
 TstMul:  Mul=     3
 Symbolic Z-matrix:
 Charge =  0 Multiplicity = 3

 SCF Done:  E(UPBE-PBE) =  -535.571750853     A.U. after   18 cycles
 SCF Done:  E(UPBE-PBE) =  -535.571755120     A.U. after   11 cycles
 SCF Done:  E(UPBE-PBE) =  -535.571835057     A.U. after   11 cycles
 SCF Done:  E(UPBE-PBE) =  -535.571023714     A.U. after   14 cycles
 SCF Done:  E(UPBE-PBE) =  -535.569763442     A.U. after   15 cycles
 SCF Done:  E(UPBE-PBE) =  -535.568557638     A.U. after   15 cycles
 SCF Done:  E(UPBE-PBE) =  -535.567445287     A.U. after   14 cycles
 SCF Done:  E(UPBE-PBE) =  -535.566451374     A.U. after   15 cycles
 SCF Done:  E(UPBE-PBE) =  -535.565597906     A.U. after   17 cycles
 SCF Done:  E(UPBE-PBE) =  -535.564898383     A.U. after   18 cycles
 SCF Done:  E(UPBE-PBE) =  -535.563533193     A.U. after   13 cycles
 SCF Done:  E(UPBE-PBE) =  -535.563515805     A.U. after   18 cycles
 SCF Done:  E(UPBE-PBE) =  -535.563543921     A.U. after   13 cycles
 SCF Done:  E(UPBE-PBE) =  -535.563618262     A.U. after   18 cycles
 SCF Done:  E(UPBE-PBE) =  -535.563608006     A.U. after   18 cycles
 SCF Done:  E(UPBE-PBE) =  -535.563601024     A.U. after   18 cycles
 SCF Done:  E(UPBE-PBE) =  -535.563596248     A.U. after   18 cycles
 SCF Done:  E(UPBE-PBE) =  -535.563595714     A.U. after   13 cycles
 SCF Done:  E(UPBE-PBE) =  -535.563595722     A.U. after   11 cycles
 Optimization completed.
    -- Stationary point found.
 Normal termination of Gaussian 16 at Thu Oct  8 20:04:18 2020.
 Gaussian 16:  ES64L-G16RevA.03 25-Dec-2016

 ----------------------------------------------------------------------
 #P Freq PBEPBE/6-31G* 5D 7F Integral=UltraFineGrid SCF=(NoSymm,XQC,Max
 Cyc=120) IOp(1/33=1) Geom=Check Guess=Read
 ----------------------------------------------------------------------

 TstMul:  Mul=     3
 TstMul:  ICh=     0
 TstMul:  Mul=     3
 Structure from the checkpoint file:  "MN_91_RKT17_BH76_PBE_631Gs.chk"
 Charge =  0 Multiplicity = 3

                         Standard orientation:
 ---------------------------------------------------------------------
 Center     Atomic      Atomic             Coordinates (Angstroms)
 Number     Number       Type             X           Y           Z
 ---------------------------------------------------------------------
      1          8           0        0.006150    2.059111   -0.000000
      2         17           0        0.006150   -0.988570    0.000000
      3          1           0       -0.153747    0.332804    0.000000
 ---------------------------------------------------------------------

 SCF Done:  E(UPBE-PBE) =  -535.563595722     A.U. after    1 cycles

 The electronic state is 3-A".
 Alpha  occ. eigenvalues -- -100.65686 -18.93954  -9.17425  -6.99779  -6.98903
 Alpha  occ. eigenvalues --   -6.98873  -0.94575  -0.76246  -0.43564  -0.41361
 Alpha  occ. eigenvalues --   -0.41013  -0.33465  -0.28517  -0.28449
 Alpha virt. eigenvalues --    0.02827   0.35371   0.38913   0.40653   0.40710
 Alpha virt. eigenvalues --    0.69152   0.71610   0.73548   0.77583   0.77732
 Alpha virt. eigenvalues --    0.80301   0.80301   0.81723   1.06682   1.21820

  Beta  occ. eigenvalues -- -100.65631 -18.89520  -9.17374  -6.99753  -6.98802
  Beta  occ. eigenvalues --   -6.98786  -0.82438  -0.75801  -0.42645  -0.29585
  Beta  occ. eigenvalues --   -0.28242  -0.28219
  Beta virt. eigenvalues --   -0.25866  -0.25788   0.03535   0.35528   0.39164
  Beta virt. eigenvalues --    0.40995   0.41012   0.72968   0.77730   0.77732
  Beta virt. eigenvalues --    0.80804   0.80806   0.82065   0.82138   0.85315

 Mulliken charges and spin densities:
               1          2
     1  O    0.014256   1.925469
     2  Cl  -0.230185   0.092097
     3  H    0.215928  -0.017566
 Sum of Mulliken charges =  -0.00000   2.00000

 Dipole moment (field-independent basis, Debye):
    X=             -0.1941    Y=              1.7065    Z=              0.0000  Tot=              1.7175
 Quadrupole moment (field-independent basis, Debye-Ang):
   XX=            -18.5246   YY=            -18.5374   ZZ=            -18.5014
   XY=             -0.4277   XZ=              0.0000   YZ=              0.0000

  Exact polarizability:   8.758   0.032  58.802  -0.000  -0.000   8.679
 Approx polarizability:  11.981   0.145 283.554   0.000   0.000  11.805

 ******    1 imaginary frequencies (negative Signs) ******

                      1                      2                      3
                     A'                     A'                     A'
 Frequencies --   -119.5726               228.8619              2317.4850
 Red. masses --      2.3821                 1.6130                 1.0435
 Frc consts  --      0.0201                 0.0498                 3.3019
 IR Inten    --     40.6236                33.0738                 1.4501

 - Thermochemistry -
 -------------------
 Temperature   298.150 Kelvin.  Pressure   1.00000 Atm.
 Atom     1 has atomic number  8 and mass  15.99491

 Molecular mass:    51.97159 amu.
 Principal axes and moments of inertia in atomic units:
                           1         2         3
     Eigenvalues --     0.09011 364.50100 364.59111
           X           -0.00057   1.00000   0.00000
           Y            1.00000   0.00057   0.00000
           Z           -0.00000   0.00000   1.00000
 This molecule is an asymmetric top.
 Rotational symmetry number  1.
 Rotational temperatures (Kelvin)    961.14981     0.23762     0.23756
 Rotational constants (GHZ):       20027.11131     4.95127     4.95004
    1 imaginary frequencies ignored.
 Zero-point vibrational energy      15230.5 (Joules/Mol)
                                    3.64019 (Kcal/Mol)
 Warning -- explicit consideration of   1 degrees of freedom as
           vibrations may cause significant error
 Vibrational temperatures:    329.28  3334.34
          (Kelvin)

 Zero-point correction=                           0.005801 (Hartree/Particle)
 Thermal correction to Energy=                    0.009151
 Thermal correction to Enthalpy=                  0.010095
 Thermal correction to Gibbs Free Energy=        -0.017925
 Sum of electronic and zero-point Energies=           -535.557795
 Sum of electronic and thermal Energies=              -535.554445
 Sum of electronic and thermal Enthalpies=            -535.553501
 Sum of electronic and thermal Free Energies=         -535.581520

                     E (Thermal)             CV                S
                      KCal/Mol        Cal/Mol-Kelvin    Cal/Mol-Kelvin
 Total                    5.742              7.762             58.972
 Electronic               0.000              0.000              2.183
 Translational            0.889              2.981             37.767
 Rotational               0.889              2.981             17.133
 Vibrational              3.965              1.800              1.888
 Vibration     1          0.652              1.797              1.888

 Optimization completed.
    -- Stationary point found.
 Normal termination of Gaussian 16 at Thu Oct  8 20:04:25 2020.
