 Gaussian 16, Revision A.03,

 ----------------------------------------------------------------------
 #P Opt(TS,MaxCyc=50,NoEigenTest,MaxStep=10,AddRedundant) PBEPBE/6-31G*
  5D 7F Integral=UltraFineGrid SCF=(NoSymm,XQC,MaxCyc=120) IOp(1/33=1)
 ----------------------------------------------------------------------

 TstMul:  Mul=     2
 TstMul:  ICh=     0
 TstMul:  Mul=     2
 Symbolic Z-matrix:
 Charge =  0 Multiplicity = 2

 SCF Done:  E(UPBE-PBE) =  -96.2299707576     A.U. after   13 cycles
 SCF Done:  E(UPBE-PBE) =  -96.2301607016     A.U. after   10 cycles
 SCF Done:  E(UPBE-PBE) =  -96.2309816767     A.U. after   12 cycles
 SCF Done:  E(UPBE-PBE) =  -96.2311388139     A.U. after   12 cycles
 SCF Done:  E(UPBE-PBE) =  -96.2312013398     A.U. after   11 cycles
 SCF Done:  E(UPBE-PBE) =  -96.2312283509     A.U. after   12 cycles
 SCF Done:  E(UPBE-PBE) =  -96.2313382231     A.U. after   12 cycles
 SCF Done:  E(UPBE-PBE) =  -96.2311722043     A.U. after   13 cycles
 SCF Done:  E(UPBE-PBE) =  -96.2310924140     A.U. after   13 cycles
 SCF Done:  E(UPBE-PBE) =  -96.2310959624     A.U. after   11 cycles
 SCF Done:  E(UPBE-PBE) =  -96.2310988414     A.U. after   11 cycles
 SCF Done:  E(UPBE-PBE) =  -96.2311007629     A.U. after   11 cycles
 SCF Done:  E(UPBE-PBE) =  -96.2311011917     A.U. after   10 cycles
 SCF Done:  E(UPBE-PBE) =  -96.2311012419     A.U. after    8 cycles
 SCF Done:  E(UPBE-PBE) =  -96.2311012575     A.U. after    7 cycles
 Optimization completed.
    -- Stationary point found.
 Normal termination of Gaussian 16 at Wed Oct  7 16:16:32 2020.
 Gaussian 16:  ES64L-G16RevA.03 25-Dec-2016

 ----------------------------------------------------------------------
 #P Freq PBEPBE/6-31G* 5D 7F Integral=UltraFineGrid SCF=(NoSymm,XQC,Max
 Cyc=120) IOp(1/33=1) Geom=Check Guess=Read
 ----------------------------------------------------------------------

 TstMul:  Mul=     2
 TstMul:  ICh=     0
 TstMul:  Mul=     2
 Structure from the checkpoint file:  "MN_95_RKT21_BH76_PBE_631Gs.chk"
 Charge =  0 Multiplicity = 2

                         Standard orientation:
 ---------------------------------------------------------------------
 Center     Atomic      Atomic             Coordinates (Angstroms)
 Number     Number       Type             X           Y           Z
 ---------------------------------------------------------------------
      1          6           0       -1.265585    0.000008    0.014144
      2          7           0        1.320220    0.000011   -0.140482
      3          1           0       -1.617378    0.913827   -0.483305
      4          1           0       -1.431123    0.006321    1.099055
      5          1           0       -1.615746   -0.920309   -0.472356
      6          1           0        0.062671    0.000086   -0.225251
      7          1           0        1.476832    0.809532    0.490218
      8          1           0        1.476709   -0.809588    0.490150
 ---------------------------------------------------------------------

 SCF Done:  E(UPBE-PBE) =  -96.2311012575     A.U. after    1 cycles

 The electronic state is 2-A.
 Alpha  occ. eigenvalues --  -13.99103  -9.88721  -0.76709  -0.61963  -0.40339
 Alpha  occ. eigenvalues --   -0.39160  -0.35633  -0.35497  -0.24456  -0.17826
 Alpha virt. eigenvalues --    0.05881   0.10567   0.12781   0.14203   0.14613
 Alpha virt. eigenvalues --    0.25540   0.47418   0.48515   0.52127   0.66231
 Alpha virt. eigenvalues --    0.68776   0.69097   0.82465   0.83105   0.83960

  Beta  occ. eigenvalues --  -13.98033  -9.87916  -0.74322  -0.60195  -0.39606
  Beta  occ. eigenvalues --   -0.36994  -0.34928  -0.34870  -0.22504
  Beta virt. eigenvalues --   -0.12084   0.06528   0.11257   0.13178   0.14795
  Beta virt. eigenvalues --    0.15190   0.27068   0.47867   0.49306   0.55697
  Beta virt. eigenvalues --    0.68247   0.69043   0.71183   0.83058   0.83781

 Mulliken charges and spin densities:
               1          2
     1  C   -0.687916   0.552916
     2  N   -0.758742   0.568719
     3  H    0.187034  -0.013168
     4  H    0.176489  -0.018494
     5  H    0.186956  -0.013217
     6  H    0.306206  -0.047021
     7  H    0.294986  -0.014866
     8  H    0.294987  -0.014868
 Sum of Mulliken charges =  -0.00000   1.00000

 Dipole moment (field-independent basis, Debye):
    X=             -0.5388    Y=             -0.0001    Z=              1.6619  Tot=              1.7471
 Quadrupole moment (field-independent basis, Debye-Ang):
   XX=            -16.2414   YY=            -13.6558   ZZ=            -15.4914
   XY=             -0.0002   XZ=              3.0131   YZ=             -0.0003

  Exact polarizability:  43.873  -0.000  21.947   0.637  -0.000  19.612
 Approx polarizability:  76.186  -0.000  31.882  -1.738  -0.000  28.401

 ******    1 imaginary frequencies (negative Signs) ******

                      1                      2                      3
                      A                      A                      A
 Frequencies --  -1277.7258                35.0829               376.9591
 Red. masses --      1.0759                 1.0261                 1.2391
 Frc consts  --      1.0349                 0.0007                 0.1037
 IR Inten    --    148.2947                33.2446                 8.9959

                      4                      5                      6
                      A                      A                      A
 Frequencies --    398.0501               564.3657               775.1356
 Red. masses --      1.0264                 2.2885                 1.1086
 Frc consts  --      0.0958                 0.4295                 0.3925
 IR Inten    --      2.5481                 3.7407                 6.7515

                      7                      8                      9
                      A                      A                      A
 Frequencies --    850.7742              1133.0024              1383.9850
 Red. masses --      1.2789                 1.1707                 1.1215
 Frc consts  --      0.5454                 0.8854                 1.2656
 IR Inten    --    113.9318                12.5182               133.6754

                     10                     11                     12
                      A                      A                      A
 Frequencies --   1411.8238              1423.6380              1513.1813
 Red. masses --      1.0945                 1.0493                 1.0306
 Frc consts  --      1.2854                 1.2530                 1.3903
 IR Inten    --     10.7887                18.2903                12.2390

                     13                     14                     15
                      A                      A                      A
 Frequencies --   1607.8644              3024.7098              3156.9082
 Red. masses --      1.0608                 1.0207                 1.1090
 Frc consts  --      1.6157                 5.5020                 6.5121
 IR Inten    --     18.6195                 2.1378                10.6974

                     16                     17                     18
                      A                      A                      A
 Frequencies --   3160.2171              3275.4989              3381.4539
 Red. masses --      1.1092                 1.0500                 1.0877
 Frc consts  --      6.5266                 6.6371                 7.3280
 IR Inten    --     12.7834                10.3983                 4.3581

 - Thermochemistry -
 -------------------
 Temperature   298.150 Kelvin.  Pressure   1.00000 Atm.
 Atom     1 has atomic number  6 and mass  12.00000

 Molecular mass:    32.05002 amu.
 Principal axes and moments of inertia in atomic units:
                           1         2         3
     Eigenvalues --    19.45821 206.20092 208.28539
           X            0.99967  -0.00000   0.02553
           Y            0.00000   1.00000   0.00001
           Z           -0.02553  -0.00001   0.99967
 This molecule is an asymmetric top.
 Rotational symmetry number  1.
 Rotational temperatures (Kelvin)      4.45128     0.42005     0.41584
 Rotational constants (GHZ):          92.74961     8.75234     8.66475
    1 imaginary frequencies ignored.
 Zero-point vibrational energy     164322.9 (Joules/Mol)
                                   39.27413 (Kcal/Mol)
 Warning -- explicit consideration of   4 degrees of freedom as
           vibrations may cause significant error
 Vibrational temperatures:     50.48   542.36   572.71   812.00  1115.25
          (Kelvin)           1224.07  1630.14  1991.25  2031.30  2048.30
                             2177.13  2313.36  4351.88  4542.09  4546.85
                             4712.71  4865.16

 Zero-point correction=                           0.062587 (Hartree/Particle)
 Thermal correction to Energy=                    0.067313
 Thermal correction to Enthalpy=                  0.068257
 Thermal correction to Gibbs Free Energy=         0.036122
 Sum of electronic and zero-point Energies=            -96.168514
 Sum of electronic and thermal Energies=               -96.163788
 Sum of electronic and thermal Enthalpies=             -96.162844
 Sum of electronic and thermal Free Energies=          -96.194979

                     E (Thermal)             CV                S
                      KCal/Mol        Cal/Mol-Kelvin    Cal/Mol-Kelvin
 Total                   42.240             13.996             67.635
 Electronic               0.000              0.000              1.377
 Translational            0.889              2.981             36.326
 Rotational               0.889              2.981             21.352
 Vibrational             40.462              8.035              8.579
 Vibration     1          0.594              1.982              5.519
 Vibration     2          0.748              1.519              1.051
 Vibration     3          0.764              1.474              0.970
 Vibration     4          0.920              1.108              0.515

                           ! Non-Optimized Parameters !
 Normal termination of Gaussian 16 at Wed Oct  7 16:17:06 2020.
