 Gaussian 16, Revision A.03,

 ----------------------------------------------------------------------
 #P Opt(TS,MaxCyc=50,NoEigenTest,MaxStep=10,AddRedundant) PBEPBE/6-31G*
  5D 7F Integral=UltraFineGrid SCF=(NoSymm,XQC,MaxCyc=120) IOp(1/33=1)
 ----------------------------------------------------------------------

 TstMul:  Mul=     2
 TstMul:  ICh=     0
 TstMul:  Mul=     2
 Symbolic Z-matrix:
 Charge =  0 Multiplicity = 2

 SCF Done:  E(UPBE-PBE) =  -399.681709564     A.U. after   13 cycles
 SCF Done:  E(UPBE-PBE) =  -399.682182763     A.U. after   11 cycles
 SCF Done:  E(UPBE-PBE) =  -399.682807255     A.U. after   11 cycles
 SCF Done:  E(UPBE-PBE) =  -399.682102020     A.U. after   11 cycles
 SCF Done:  E(UPBE-PBE) =  -399.681442203     A.U. after   12 cycles
 SCF Done:  E(UPBE-PBE) =  -399.680973999     A.U. after   12 cycles
 SCF Done:  E(UPBE-PBE) =  -399.680667961     A.U. after   12 cycles
 SCF Done:  E(UPBE-PBE) =  -399.680486190     A.U. after   12 cycles
 SCF Done:  E(UPBE-PBE) =  -399.680398538     A.U. after   12 cycles
 SCF Done:  E(UPBE-PBE) =  -399.680380009     A.U. after   11 cycles
 SCF Done:  E(UPBE-PBE) =  -399.680379528     A.U. after    9 cycles
 Optimization completed.
    -- Stationary point found.

 1\1\GINC-NODE62\FTS\UPBEPBE\6-31G(d)\H3S1(2)\RPEVERATI\07-Oct-2020\0\\
 #P Opt(TS,MaxCyc=50,NoEigenTest,MaxStep=10,AddRedundant) PBEPBE/6-31G*
  5D 7F Integral=UltraFineGrid SCF=(NoSymm,XQC,MaxCyc=120) IOp(1/33=1)\
 \TS search on BH76.\\0,2\H,1.3121108936,-0.1510322332,0.\S,0.021468357
 8,0.2767485794,0.\H,-0.4574364319,-1.0360349183,0.\H,-0.8761438779,-2.
 4369892288,0.\\Version=ES64L-G16RevA.03\State=2-A'\HF=-399.6803795\S2=
 0.752262\S2-1=0.\S2A=0.75\RMSD=3.122e-09\RMSF=1.924e-05\Dipole=0.24671
 37,-0.5514048,0.\Quadrupole=1.2572142,0.6516312,-1.9088454,0.4510848,0

 Normal termination of Gaussian 16 at Wed Oct  7 16:15:04 2020.
 Gaussian 16:  ES64L-G16RevA.03 25-Dec-2016

 ----------------------------------------------------------------------
 #P Freq PBEPBE/6-31G* 5D 7F Integral=UltraFineGrid SCF=(NoSymm,XQC,Max
 Cyc=120) IOp(1/33=1) Geom=Check Guess=Read
 ----------------------------------------------------------------------

 TstMul:  Mul=     2
 TstMul:  ICh=     0
 TstMul:  Mul=     2
 Structure from the checkpoint file:  "MN_90_RKT16_BH76_PBE_631Gs.chk"
 Charge =  0 Multiplicity = 2

                         Standard orientation:
 ---------------------------------------------------------------------
 Center     Atomic      Atomic             Coordinates (Angstroms)
 Number     Number       Type             X           Y           Z
 ---------------------------------------------------------------------
      1          1           0        1.298648   -0.168343    0.000000
      2         16           0        0.000000    0.234481    0.000000
      3          1           0       -0.453511   -1.087290    0.000000
      4          1           0       -0.845137   -2.496055    0.000000
 ---------------------------------------------------------------------

 SCF Done:  E(UPBE-PBE) =  -399.680379528     A.U. after    1 cycles

 The electronic state is 2-A'.
 Alpha  occ. eigenvalues --  -88.04668  -7.67786  -5.70136  -5.69797  -5.68834
 Alpha  occ. eigenvalues --   -0.67878  -0.41880  -0.34387  -0.26906  -0.22293
 Alpha virt. eigenvalues --   -0.00509   0.05061   0.29850   0.30612   0.32450
 Alpha virt. eigenvalues --    0.33801   0.65945   0.67442   0.68041   0.70004
 Alpha virt. eigenvalues --    0.70730   0.81121   0.94458   1.10898
  Beta  occ. eigenvalues --  -88.04576  -7.67692  -5.69974  -5.69640  -5.68776
  Beta  occ. eigenvalues --   -0.67336  -0.40707  -0.33084  -0.22063
  Beta virt. eigenvalues --   -0.13539   0.00152   0.07607   0.30063   0.31327
  Beta virt. eigenvalues --    0.33431   0.33920   0.66426   0.68400   0.70504
  Beta virt. eigenvalues --    0.71333   0.79111   0.89132   0.94604   1.11276

 Mulliken charges and spin densities:
               1          2
     1  H    0.130582  -0.003722
     2  S   -0.198687   0.159736
     3  H    0.028870  -0.045770
     4  H    0.039235   0.889755
 Sum of Mulliken charges =  -0.00000   1.00000

 Dipole moment (field-independent basis, Debye):
    X=              0.6540    Y=             -1.3892    Z=              0.0000  Tot=              1.5354
 Quadrupole moment (field-independent basis, Debye-Ang):
   XX=            -13.6966   YY=            -14.4637   ZZ=            -17.9314
   XY=              0.6220   XZ=              0.0000   YZ=              0.0000

  Exact polarizability:  18.720   5.229  30.885   0.000   0.000  11.266
 Approx polarizability:  31.377   7.770  47.623  -0.000  -0.000  15.554

 ******    1 imaginary frequencies (negative Signs) ******

                      1                      2                      3
                     A'                     A'                     A"
 Frequencies --   -482.5985               339.0548               373.7919
 Red. masses --      1.0241                 1.0178                 1.0151
 Frc consts  --      0.1405                 0.0689                 0.0836
 IR Inten    --     16.4240                 7.8942                12.0964

                      4                      5                      6
                     A'                     A'                     A'
 Frequencies --   1182.4398              2034.7707              2633.6196
 Red. masses --      1.0387                 1.0481                 1.0381
 Frc consts  --      0.8557                 2.5567                 4.2421
 IR Inten    --      4.6258                 1.9875                12.0950

 - Thermochemistry -
 -------------------
 Temperature   298.150 Kelvin.  Pressure   1.00000 Atm.
 Atom     1 has atomic number  1 and mass   1.00783

 Molecular mass:    34.99555 amu.
 Principal axes and moments of inertia in atomic units:
                           1         2         3
     Eigenvalues --     6.45808  34.57056  41.02864
           X            0.32242   0.94660   0.00000
           Y            0.94660  -0.32242   0.00000
           Z            0.00000   0.00000   1.00000
 This molecule is an asymmetric top.
 Rotational symmetry number  1.
 Rotational temperatures (Kelvin)     13.41171     2.50542     2.11106
 Rotational constants (GHZ):         279.45476    52.20457    43.98735
    1 imaginary frequencies ignored.
 Zero-point vibrational energy      39259.5 (Joules/Mol)
                                    9.38325 (Kcal/Mol)
 Warning -- explicit consideration of   2 degrees of freedom as
           vibrations may cause significant error
 Vibrational temperatures:    487.82   537.80  1701.27  2927.58  3789.19
          (Kelvin)

 Zero-point correction=                           0.014953 (Hartree/Particle)
 Thermal correction to Energy=                    0.018514
 Thermal correction to Enthalpy=                  0.019458
 Thermal correction to Gibbs Free Energy=        -0.007701
 Sum of electronic and zero-point Energies=           -399.665426
 Sum of electronic and thermal Energies=              -399.661866
 Sum of electronic and thermal Enthalpies=            -399.660922
 Sum of electronic and thermal Free Energies=         -399.688080

                     E (Thermal)             CV                S
                      KCal/Mol        Cal/Mol-Kelvin    Cal/Mol-Kelvin
 Total                   11.617              9.313             57.159
 Electronic               0.000              0.000              1.377
 Translational            0.889              2.981             36.588
 Rotational               0.889              2.981             16.867
 Vibrational              9.840              3.351              2.326
 Vibration     1          0.719              1.597              1.217
 Vibration     2          0.745              1.526              1.064

                           ! Non-Optimized Parameters !
 Normal termination of Gaussian 16 at Wed Oct  7 16:15:32 2020.
