 Gaussian 16, Revision A.03,

 ----------------------------------------------------------------------
 #P Opt(TS,MaxCyc=50,NoEigenTest,MaxStep=10,AddRedundant) PBEPBE/6-31G*
  5D 7F Integral=UltraFineGrid SCF=(NoSymm,XQC,MaxCyc=120) IOp(1/33=1)
 ----------------------------------------------------------------------

 TstMul:  Mul=     3
 TstMul:  ICh=     0
 TstMul:  Mul=     3
 Symbolic Z-matrix:
 Charge =  0 Multiplicity = 3

 SCF Done:  E(UPBE-PBE) =  -134.824528017     A.U. after   15 cycles
 SCF Done:  E(UPBE-PBE) =  -134.824968890     A.U. after   12 cycles
 SCF Done:  E(UPBE-PBE) =  -134.826251718     A.U. after   15 cycles
 SCF Done:  E(UPBE-PBE) =  -134.826909833     A.U. after   15 cycles
 SCF Done:  E(UPBE-PBE) =  -134.827236407     A.U. after   13 cycles
 SCF Done:  E(UPBE-PBE) =  -134.827245564     A.U. after   13 cycles
 SCF Done:  E(UPBE-PBE) =  -134.827109663     A.U. after   15 cycles
 SCF Done:  E(UPBE-PBE) =  -134.827576640     A.U. after   13 cycles
 SCF Done:  E(UPBE-PBE) =  -134.827022132     A.U. after   13 cycles
 SCF Done:  E(UPBE-PBE) =  -134.826719890     A.U. after   15 cycles
 SCF Done:  E(UPBE-PBE) =  -134.826290825     A.U. after   12 cycles
 SCF Done:  E(UPBE-PBE) =  -134.826294759     A.U. after   12 cycles
 SCF Done:  E(UPBE-PBE) =  -134.826294912     A.U. after    9 cycles
 SCF Done:  E(UPBE-PBE) =  -134.826294961     A.U. after   10 cycles
 SCF Done:  E(UPBE-PBE) =  -134.826294959     A.U. after    8 cycles
 SCF Done:  E(UPBE-PBE) =  -134.826291179     A.U. after   13 cycles
 SCF Done:  E(UPBE-PBE) =  -134.826294945     A.U. after   13 cycles
 SCF Done:  E(UPBE-PBE) =  -134.826294959     A.U. after    9 cycles
 SCF Done:  E(UPBE-PBE) =  -134.826294960     A.U. after    8 cycles
 Optimization completed.
    -- Stationary point found.
 Normal termination of Gaussian 16 at Wed Oct  7 16:22:38 2020.
 Gaussian 16:  ES64L-G16RevA.03 25-Dec-2016

 ----------------------------------------------------------------------
 #P Freq PBEPBE/6-31G* 5D 7F Integral=UltraFineGrid SCF=(NoSymm,XQC,Max
 Cyc=120) IOp(1/33=1) Geom=Check Guess=Read
 ----------------------------------------------------------------------

 TstMul:  Mul=     3
 TstMul:  ICh=     0
 TstMul:  Mul=     3
 Structure from the checkpoint file:  "MN_93_RKT19_BH76_PBE_631Gs.chk"
 Charge =  0 Multiplicity = 3

                         Standard orientation:
 ---------------------------------------------------------------------
 Center     Atomic      Atomic             Coordinates (Angstroms)
 Number     Number       Type             X           Y           Z
 ---------------------------------------------------------------------
      1          6           0       -1.434143   -0.433693   -0.000034
      2          6           0       -0.446162    0.702295    0.000037
      3          7           0        1.976167   -0.372255    0.000062
      4          1           0       -1.321251   -1.073005   -0.892615
      5          1           0       -1.321406   -1.072976    0.892586
      6          1           0       -2.478807   -0.058162   -0.000132
      7          1           0       -0.401380    1.310971   -0.915217
      8          1           0       -0.401522    1.310977    0.915293
      9          1           0        0.858621    0.047556    0.000118
     10          1           0        2.514410    0.528813   -0.000487
 ---------------------------------------------------------------------

 SCF Done:  E(UPBE-PBE) =  -134.826294960     A.U. after    1 cycles

 The electronic state is 3-A.
 Alpha  occ. eigenvalues --  -14.02143  -9.90147  -9.88796  -0.75206  -0.68380
 Alpha  occ. eigenvalues --   -0.55097  -0.41004  -0.39839  -0.35432  -0.33908
 Alpha  occ. eigenvalues --   -0.30997  -0.28602  -0.24985  -0.17002
 Alpha virt. eigenvalues --    0.06967   0.09293   0.11624   0.11953   0.13850
 Alpha virt. eigenvalues --    0.16541   0.20546   0.24676   0.45327   0.48975
 Alpha virt. eigenvalues --    0.51407   0.54538   0.57150   0.61511   0.66339

  Beta  occ. eigenvalues --  -13.99574  -9.89189  -9.88824  -0.69611  -0.66680
  Beta  occ. eigenvalues --   -0.53767  -0.39357  -0.38859  -0.34263  -0.33285
  Beta  occ. eigenvalues --   -0.30666  -0.24786
  Beta virt. eigenvalues --   -0.12702  -0.10671   0.07837   0.10150   0.12229
  Beta virt. eigenvalues --    0.12462   0.14236   0.17083   0.21323   0.27144
  Beta virt. eigenvalues --    0.46029   0.49921   0.52012   0.57766   0.60293

 Mulliken charges and spin densities:
               1          2
     1  C   -0.475874  -0.031346
     2  C   -0.458843   0.663082
     3  N   -0.518141   1.460122
     4  H    0.176109   0.007197
     5  H    0.176112   0.007195
     6  H    0.173314   0.043355
     7  H    0.173119  -0.020147
     8  H    0.173125  -0.020145
     9  H    0.300219  -0.065509
    10  H    0.280861  -0.043804
 Sum of Mulliken charges =  -0.00000   2.00000

 Dipole moment (field-independent basis, Debye):
    X=             -0.9198    Y=              1.5853    Z=             -0.0007  Tot=              1.8328
 Quadrupole moment (field-independent basis, Debye-Ang):
   XX=            -21.4944   YY=            -21.7449   ZZ=            -20.5522
   XY=              3.9359   XZ=             -0.0019   YZ=              0.0001

  Exact polarizability:  55.637  -2.833  32.612  -0.002  -0.002  26.111
 Approx polarizability:  88.928 -12.138  51.298  -0.002  -0.004  38.932

 ******    1 imaginary frequencies (negative Signs) ******

                      1                      2                      3
                      A                      A                      A
 Frequencies --   -929.3235                53.5515               132.2073
 Red. masses --      1.2452                 1.0803                 2.8237
 Frc consts  --      0.6336                 0.0018                 0.0291
 IR Inten    --    185.8439                65.7751                 4.7072

                      4                      5                      6
                      A                      A                      A
 Frequencies --    154.5963               448.5728               487.4454
 Red. masses --      1.1027                 1.0682                 1.5740
 Frc consts  --      0.0155                 0.1266                 0.2203
 IR Inten    --      0.9421                 3.4536                14.3997

                      7                      8                      9
                      A                      A                      A
 Frequencies --    740.0338               810.9337               892.3472
 Red. masses --      1.5019                 1.0495                 1.1550
 Frc consts  --      0.4846                 0.4066                 0.5419
 IR Inten    --      6.5941                 9.3579                42.6320

                     10                     11                     12
                      A                      A                      A
 Frequencies --   1052.2205              1117.0157              1172.7960
 Red. masses --      2.9183                 1.0924                 1.5292
 Frc consts  --      1.9037                 0.8031                 1.2392
 IR Inten    --      0.5199                28.8573                 4.3254

                     13                     14                     15
                      A                      A                      A
 Frequencies --   1200.2238              1379.4946              1442.0571
 Red. masses --      1.3519                 1.2032                 1.1404
 Frc consts  --      1.1474                 1.3491                 1.3973
 IR Inten    --      4.8350                 3.2441                 0.8811

                     16                     17                     18
                      A                      A                      A
 Frequencies --   1466.2609              1469.0215              1480.2995
 Red. masses --      1.0354                 1.0633                 1.0556
 Frc consts  --      1.3115                 1.3520                 1.3629
 IR Inten    --      6.5696                 0.1629                94.3549

                     19                     20                     21
                      A                      A                      A
 Frequencies --   2942.1335              3021.2380              3040.7215
 Red. masses --      1.0506                 1.0806                 1.0544
 Frc consts  --      5.3583                 5.8112                 5.7439
 IR Inten    --     20.6321                10.1516                25.0147

                     22                     23                     24
                      A                      A                      A
 Frequencies --   3059.8438              3122.2808              3213.1468
 Red. masses --      1.1023                 1.1119                 1.0723
 Frc consts  --      6.0804                 6.3864                 6.5228
 IR Inten    --     12.1790                27.0567                23.4429

 - Thermochemistry -
 -------------------
 Temperature   298.150 Kelvin.  Pressure   1.00000 Atm.
 Atom     1 has atomic number  6 and mass  12.00000

 Molecular mass:    45.05785 amu.
 Principal axes and moments of inertia in atomic units:
                           1         2         3
     Eigenvalues --    69.05037 364.90298 410.42409
           X            0.99924   0.03888  -0.00001
           Y           -0.03888   0.99924  -0.00001
           Z            0.00001   0.00001   1.00000
 This molecule is an asymmetric top.
 Rotational symmetry number  1.
 Rotational temperatures (Kelvin)      1.25436     0.23736     0.21104
 Rotational constants (GHZ):          26.13659     4.94581     4.39726
    1 imaginary frequencies ignored.
 Zero-point vibrational energy     202757.7 (Joules/Mol)
                                   48.46026 (Kcal/Mol)
 Warning -- explicit consideration of   5 degrees of freedom as
           vibrations may cause significant error
 Vibrational temperatures:     77.05   190.22   222.43   645.40   701.33
          (Kelvin)           1064.74  1166.75  1283.89  1513.91  1607.14
                             1687.39  1726.85  1984.78  2074.80  2109.62
                             2113.59  2129.82  4233.07  4346.89  4374.92
                             4402.43  4492.27  4623.00

 Zero-point correction=                           0.077226 (Hartree/Particle)
 Thermal correction to Energy=                    0.083043
 Thermal correction to Enthalpy=                  0.083987
 Thermal correction to Gibbs Free Energy=         0.047888
 Sum of electronic and zero-point Energies=           -134.749069
 Sum of electronic and thermal Energies=              -134.743252
 Sum of electronic and thermal Enthalpies=            -134.742307
 Sum of electronic and thermal Free Energies=         -134.778407

                     E (Thermal)             CV                S
                      KCal/Mol        Cal/Mol-Kelvin    Cal/Mol-Kelvin
 Total                   52.110             17.768             75.977
 Electronic               0.000              0.000              2.183
 Translational            0.889              2.981             37.342
 Rotational               0.889              2.981             23.851
 Vibrational             50.333             11.806             12.601
 Vibration     1          0.596              1.976              4.682
 Vibration     2          0.612              1.921              2.914
 Vibration     3          0.620              1.898              2.615
 Vibration     4          0.808              1.364              0.800
 Vibration     5          0.843              1.278              0.690

 Optimization completed.
    -- Stationary point found.
 Normal termination of Gaussian 16 at Wed Oct  7 16:23:23 2020.
