 Gaussian 16, Revision A.03,

 ----------------------------------------------------------------------
 #P Opt(TS,MaxCyc=50,NoEigenTest,MaxStep=10,AddRedundant) PBEPBE/6-31G*
  5D 7F Integral=UltraFineGrid SCF=(NoSymm,XQC,MaxCyc=120) IOp(1/33=1)
 ----------------------------------------------------------------------

 TstMul:  Mul=     3
 TstMul:  ICh=     0
 TstMul:  Mul=     3
 Symbolic Z-matrix:
 Charge =  0 Multiplicity = 3

 SCF Done:  E(UPBE-PBE) =  -95.5668984782     A.U. after   14 cycles
 SCF Done:  E(UPBE-PBE) =  -95.5671798794     A.U. after   12 cycles
 SCF Done:  E(UPBE-PBE) =  -95.5678745785     A.U. after   13 cycles
 SCF Done:  E(UPBE-PBE) =  -95.5672750678     A.U. after   14 cycles
 SCF Done:  E(UPBE-PBE) =  -95.5672846118     A.U. after   13 cycles
 SCF Done:  E(UPBE-PBE) =  -95.5671416745     A.U. after   14 cycles
 SCF Done:  E(UPBE-PBE) =  -95.5673475499     A.U. after   12 cycles
 SCF Done:  E(UPBE-PBE) =  -95.5669462879     A.U. after   12 cycles
 SCF Done:  E(UPBE-PBE) =  -95.5667600812     A.U. after   13 cycles
 SCF Done:  E(UPBE-PBE) =  -95.5666184324     A.U. after   12 cycles
 SCF Done:  E(UPBE-PBE) =  -95.5666049779     A.U. after   13 cycles
 SCF Done:  E(UPBE-PBE) =  -95.5666054833     A.U. after   11 cycles
 SCF Done:  E(UPBE-PBE) =  -95.5666055648     A.U. after    9 cycles
 SCF Done:  E(UPBE-PBE) =  -95.5666055859     A.U. after    9 cycles
 SCF Done:  E(UPBE-PBE) =  -95.5665909067     A.U. after   12 cycles
 SCF Done:  E(UPBE-PBE) =  -95.5666053762     A.U. after   12 cycles
 SCF Done:  E(UPBE-PBE) =  -95.5666055862     A.U. after   11 cycles
 SCF Done:  E(UPBE-PBE) =  -95.5666055739     A.U. after    9 cycles
 SCF Done:  E(UPBE-PBE) =  -95.5666055735     A.U. after    9 cycles
 Optimization completed.
    -- Stationary point found.
 Normal termination of Gaussian 16 at Wed Oct  7 16:17:10 2020.
 Gaussian 16:  ES64L-G16RevA.03 25-Dec-2016

 ----------------------------------------------------------------------
 #P Freq PBEPBE/6-31G* 5D 7F Integral=UltraFineGrid SCF=(NoSymm,XQC,Max
 Cyc=120) IOp(1/33=1) Geom=Check Guess=Read
 ----------------------------------------------------------------------

 TstMul:  Mul=     3
 TstMul:  ICh=     0
 TstMul:  Mul=     3
 Structure from the checkpoint file:  "MN_92_RKT18_BH76_PBE_631Gs.chk"
 Charge =  0 Multiplicity = 3

                         Standard orientation:
 ---------------------------------------------------------------------
 Center     Atomic      Atomic             Coordinates (Angstroms)
 Number     Number       Type             X           Y           Z
 ---------------------------------------------------------------------
      1          6           0       -1.252719   -0.013236    0.000002
      2          7           0        1.438601    0.127238    0.000002
      3          1           0       -1.432318   -0.567337    0.927561
      4          1           0       -1.432688   -0.564077   -0.929426
      5          1           0       -1.565406    1.036542    0.001912
      6          1           0        0.299259    0.194866   -0.000071
      7          1           0        1.577258   -0.911239   -0.000002
 ---------------------------------------------------------------------

 SCF Done:  E(UPBE-PBE) =  -95.5666055735     A.U. after    1 cycles

 The electronic state is 3-A.
 Alpha  occ. eigenvalues --  -14.02569  -9.90275  -0.76088  -0.62342  -0.40833
 Alpha  occ. eigenvalues --   -0.37034  -0.36911  -0.29230  -0.25563  -0.18670
 Alpha virt. eigenvalues --    0.06777   0.09754   0.13880   0.14032   0.22808
 Alpha virt. eigenvalues --    0.47482   0.47536   0.50973   0.64032   0.65533
 Alpha virt. eigenvalues --    0.66931   0.77216   0.83712   0.83716   0.83934

  Beta  occ. eigenvalues --  -14.00118  -9.89204  -0.70218  -0.59755  -0.38485
  Beta  occ. eigenvalues --   -0.36201  -0.36029  -0.25250
  Beta virt. eigenvalues --   -0.13367  -0.11672   0.07956   0.10957   0.14593
  Beta virt. eigenvalues --    0.14747   0.25458   0.48614   0.49237   0.55759
  Beta virt. eigenvalues --    0.67953   0.68873   0.72128   0.78911   0.84391

 Mulliken charges and spin densities:
               1          2
     1  C   -0.641561   0.789222
     2  N   -0.532104   1.391975
     3  H    0.188175  -0.027111
     4  H    0.188196  -0.027103
     5  H    0.195546  -0.025755
     6  H    0.316979  -0.058946
     7  H    0.284768  -0.042282
 Sum of Mulliken charges =  -0.00000   2.00000

 Dipole moment (field-independent basis, Debye):
    X=             -1.2372    Y=             -1.3605    Z=             -0.0001  Tot=              1.8389
 Quadrupole moment (field-independent basis, Debye-Ang):
   XX=            -16.9613   YY=            -13.7274   ZZ=            -14.1490
   XY=             -2.7386   XZ=             -0.0000   YZ=              0.0001

  Exact polarizability:  40.513  -0.660  20.800   0.001  -0.000  16.277
 Approx polarizability:  68.874   1.403  30.258   0.001  -0.000  22.420

 ******    1 imaginary frequencies (negative Signs) ******

                      1                      2                      3
                      A                      A                      A
 Frequencies --   -436.3082                61.0285               336.2800
 Red. masses --      2.7549                 1.0481                 1.0401
 Frc consts  --      0.3090                 0.0023                 0.0693
 IR Inten    --     68.0656                53.8566                12.4211

                      4                      5                      6
                      A                      A                      A
 Frequencies --    382.0222               636.7355               810.9504
 Red. masses --      1.0768                 1.1102                 1.1894
 Frc consts  --      0.0926                 0.2652                 0.4609
 IR Inten    --      5.3928                32.5934                 2.5916

                      7                      8                      9
                      A                      A                      A
 Frequencies --    998.7460              1331.5782              1400.7707
 Red. masses --      1.0535                 1.2509                 1.0878
 Frc consts  --      0.6192                 1.3068                 1.2575
 IR Inten    --     58.0077                 4.6380                 4.2869

                     10                     11                     12
                      A                      A                      A
 Frequencies --   1401.3331              1642.2619              3044.2052
 Red. masses --      1.0873                 1.0849                 1.0150
 Frc consts  --      1.2580                 1.7240                 5.5420
 IR Inten    --      5.0086               194.8052                 0.0349

                     13                     14                     15
                      A                      A                      A
 Frequencies --   3197.4067              3198.0669              3235.3212
 Red. masses --      1.1131                 1.1130                 1.0719
 Frc consts  --      6.7050                 6.7071                 6.6108
 IR Inten    --      8.4614                 5.1440                20.6535

 - Thermochemistry -
 -------------------
 Temperature   298.150 Kelvin.  Pressure   1.00000 Atm.
 Atom     1 has atomic number  6 and mass  12.00000

 Molecular mass:    31.04220 amu.
 Principal axes and moments of inertia in atomic units:
                           1         2         3
     Eigenvalues --    16.13091 209.18253 212.90258
           X            0.99971  -0.02414   0.00000
           Y            0.02414   0.99971  -0.00000
           Z            0.00000   0.00000   1.00000
 This molecule is an asymmetric top.
 Rotational symmetry number  1.
 Rotational temperatures (Kelvin)      5.36944     0.41406     0.40682
 Rotational constants (GHZ):         111.88091     8.62759     8.47684
    1 imaginary frequencies ignored.
 Zero-point vibrational energy     129655.5 (Joules/Mol)
                                   30.98841 (Kcal/Mol)
 Warning -- explicit consideration of   3 degrees of freedom as
           vibrations may cause significant error
 Vibrational temperatures:     87.81   483.83   549.64   916.12  1166.78
          (Kelvin)           1436.97  1915.84  2015.40  2016.21  2362.85
                             4379.93  4600.36  4601.30  4654.91

 Zero-point correction=                           0.049383 (Hartree/Particle)
 Thermal correction to Energy=                    0.054012
 Thermal correction to Enthalpy=                  0.054956
 Thermal correction to Gibbs Free Energy=         0.023099
 Sum of electronic and zero-point Energies=            -95.517222
 Sum of electronic and thermal Energies=               -95.512593
 Sum of electronic and thermal Enthalpies=             -95.511649
 Sum of electronic and thermal Free Energies=          -95.543507

                     E (Thermal)             CV                S
                      KCal/Mol        Cal/Mol-Kelvin    Cal/Mol-Kelvin
 Total                   33.893             13.402             67.049
 Electronic               0.000              0.000              2.183
 Translational            0.889              2.981             36.231
 Rotational               0.889              2.981             21.201
 Vibrational             32.116              7.441              7.434
 Vibration     1          0.597              1.973              4.424
 Vibration     2          0.717              1.603              1.230
 Vibration     3          0.751              1.509              1.031

 Optimization completed.
    -- Stationary point found.
 Normal termination of Gaussian 16 at Wed Oct  7 16:17:41 2020.
