 Gaussian 16, Revision A.03,

 ----------------------------------------------------------------------
 #P Opt(TS,MaxCyc=50,NoEigenTest,MaxStep=10,AddRedundant) PBEPBE/6-31G*
  5D 7F Integral=UltraFineGrid SCF=(NoSymm,XQC,MaxCyc=120) IOp(1/33=1)
 ----------------------------------------------------------------------

 TstMul:  Mul=     2
 TstMul:  ICh=     0
 TstMul:  Mul=     2
 Symbolic Z-matrix:
 Charge =  0 Multiplicity = 2

 SCF Done:  E(UPBE-PBE) =  -135.487549598     A.U. after   14 cycles
 SCF Done:  E(UPBE-PBE) =  -135.488416654     A.U. after   12 cycles
 SCF Done:  E(UPBE-PBE) =  -135.488673121     A.U. after   12 cycles
 SCF Done:  E(UPBE-PBE) =  -135.488940665     A.U. after   12 cycles
 SCF Done:  E(UPBE-PBE) =  -135.489009901     A.U. after   12 cycles
 SCF Done:  E(UPBE-PBE) =  -135.489017449     A.U. after   10 cycles
 SCF Done:  E(UPBE-PBE) =  -135.488983382     A.U. after   13 cycles
 SCF Done:  E(UPBE-PBE) =  -135.488994307     A.U. after   12 cycles
 SCF Done:  E(UPBE-PBE) =  -135.488995587     A.U. after    8 cycles
 SCF Done:  E(UPBE-PBE) =  -135.488995583     A.U. after    9 cycles
 Optimization completed.
    -- Stationary point found.
 Normal termination of Gaussian 16 at Wed Oct  7 16:16:15 2020.
 Gaussian 16:  ES64L-G16RevA.03 25-Dec-2016

 ----------------------------------------------------------------------
 #P Freq PBEPBE/6-31G* 5D 7F Integral=UltraFineGrid SCF=(NoSymm,XQC,Max
 Cyc=120) IOp(1/33=1) Geom=Check Guess=Read
 ----------------------------------------------------------------------

 TstMul:  Mul=     2
 TstMul:  ICh=     0
 TstMul:  Mul=     2
 Structure from the checkpoint file:  "MN_94_RKT20_BH76_PBE_631Gs.chk"
 Charge =  0 Multiplicity = 2

                         Standard orientation:
 ---------------------------------------------------------------------
 Center     Atomic      Atomic             Coordinates (Angstroms)
 Number     Number       Type             X           Y           Z
 ---------------------------------------------------------------------
      1          6           0       -1.536336   -0.422183    0.006381
      2          6           0       -0.492439    0.674178   -0.010674
      3          7           0        1.911735   -0.345862    0.021917
      4          1           0       -1.441690   -1.086003   -0.870134
      5          1           0       -1.451739   -1.047409    0.911719
      6          1           0       -2.561449   -0.000763   -0.008918
      7          1           0       -0.478370    1.279770   -0.931096
      8          1           0       -0.493532    1.321658    0.881066
      9          1           0        0.660108    0.067631    0.022199
     10          1           0        2.243019    0.079147   -0.866551
     11          1           0        2.314158    0.295035    0.734054
 ---------------------------------------------------------------------

 SCF Done:  E(UPBE-PBE) =  -135.488995583     A.U. after    1 cycles

 The electronic state is 2-A.
 Alpha  occ. eigenvalues --  -13.98634  -9.89089  -9.88163  -0.75900  -0.67913
 Alpha  occ. eigenvalues --   -0.54807  -0.39987  -0.39932  -0.38649  -0.33884
 Alpha  occ. eigenvalues --   -0.32518  -0.30167  -0.23867  -0.16990
 Alpha virt. eigenvalues --    0.05926   0.09485   0.11919   0.12506   0.13813
 Alpha virt. eigenvalues --    0.14536   0.16723   0.20560   0.26379   0.46405
 Alpha virt. eigenvalues --    0.49244   0.51837   0.56307   0.57125   0.61546

  Beta  occ. eigenvalues --  -13.97508  -9.88363  -9.88173  -0.73413  -0.67061
  Beta  occ. eigenvalues --   -0.53876  -0.39281  -0.38402  -0.38177  -0.32937
  Beta  occ. eigenvalues --   -0.31876  -0.29928  -0.21974
  Beta virt. eigenvalues --   -0.11485   0.06522   0.09849   0.12250   0.13004
  Beta virt. eigenvalues --    0.14070   0.14851   0.17153   0.21152   0.27835
  Beta virt. eigenvalues --    0.47002   0.49503   0.52388   0.57309   0.58793

 Mulliken charges and spin densities:
               1          2
     1  C   -0.470453  -0.015329
     2  C   -0.489597   0.472610
     3  N   -0.749188   0.609786
     4  H    0.171166   0.004249
     5  H    0.173033   0.004215
     6  H    0.167342   0.032284
     7  H    0.165328  -0.013016
     8  H    0.166697  -0.012344
     9  H    0.284551  -0.049387
    10  H    0.290482  -0.016515
    11  H    0.290639  -0.016551
 Sum of Mulliken charges =  -0.00000   1.00000

 Dipole moment (field-independent basis, Debye):
    X=             -0.2587    Y=              1.6823    Z=             -0.2338  Tot=              1.7181
 Quadrupole moment (field-independent basis, Debye-Ang):
   XX=            -20.5164   YY=            -23.1901   ZZ=            -20.1549
   XY=              3.6584   XZ=             -0.4892   YZ=              0.3289

  Exact polarizability:  59.432  -4.141  31.694   0.046   0.319  31.612
 Approx polarizability:  95.941 -15.082  49.843   0.576   0.394  48.454

 ******    1 imaginary frequencies (negative Signs) ******

                      1                      2                      3
                      A                      A                      A
 Frequencies --  -1185.6091                27.1282               148.2731
 Red. masses --      1.0988                 1.0847                 2.6213
 Frc consts  --      0.9101                 0.0005                 0.0340
 IR Inten    --    263.9403                48.1201                 5.9535

                      4                      5                      6
                      A                      A                      A
 Frequencies --    167.1946               427.1144               476.7774
 Red. masses --      1.0880                 1.0302                 2.1819
 Frc consts  --      0.0179                 0.1107                 0.2922
 IR Inten    --      0.4050                 1.8997                 0.5751

                      7                      8                      9
                      A                      A                      A
 Frequencies --    742.0377               768.5564               869.8163
 Red. masses --      1.1366                 1.3772                 1.0566
 Frc consts  --      0.3687                 0.4793                 0.4710
 IR Inten    --      9.6803                65.9968                 1.9077

                     10                     11                     12
                      A                      A                      A
 Frequencies --    921.0679              1041.9544              1173.3147
 Red. masses --      1.2191                 3.1039                 1.3999
 Frc consts  --      0.6093                 1.9854                 1.1354
 IR Inten    --    121.0739                 4.4614                 9.8682

                     13                     14                     15
                      A                      A                      A
 Frequencies --   1205.8871              1347.7813              1381.3932
 Red. masses --      1.3939                 1.0865                 1.1950
 Frc consts  --      1.1942                 1.1629                 1.3435
 IR Inten    --      0.4346                96.2395                 0.5548

                     16                     17                     18
                      A                      A                      A
 Frequencies --   1446.2338              1467.2391              1474.4149
 Red. masses --      1.1351                 1.0323                 1.0501
 Frc consts  --      1.3988                 1.3094                 1.3450
 IR Inten    --      1.5573                 3.1070                 4.8158

                     19                     20                     21
                      A                      A                      A
 Frequencies --   1495.3134              1593.2899              2957.9335
 Red. masses --      1.0441                 1.0690                 1.0452
 Frc consts  --      1.3754                 1.5990                 5.3881
 IR Inten    --     13.1216                13.5055                21.5991

                     22                     23                     24
                      A                      A                      A
 Frequencies --   3019.5157              3032.6219              3058.9383
 Red. masses --      1.0608                 1.0822                 1.1022
 Frc consts  --      5.6983                 5.8638                 6.0767
 IR Inten    --      6.6551                33.8667                 7.8301

                     25                     26                     27
                      A                      A                      A
 Frequencies --   3096.1839              3261.4561              3369.3344
 Red. masses --      1.1086                 1.0499                 1.0878
 Frc consts  --      6.2615                 6.5799                 7.2757
 IR Inten    --     36.2867                10.7505                 6.5217

 - Thermochemistry -
 -------------------
 Temperature   298.150 Kelvin.  Pressure   1.00000 Atm.
 Atom     1 has atomic number  6 and mass  12.00000

 Molecular mass:    46.06567 amu.
 Principal axes and moments of inertia in atomic units:
                           1         2         3
     Eigenvalues --    69.77415 390.09921 427.27783
           X            0.99955   0.02998  -0.00234
           Y           -0.02996   0.99950   0.00980
           Z            0.00264  -0.00972   0.99995
 This molecule is an asymmetric top.
 Rotational symmetry number  1.
 Rotational temperatures (Kelvin)      1.24135     0.22203     0.20271
 Rotational constants (GHZ):          25.86547     4.62636     4.22381
    1 imaginary frequencies ignored.
 Zero-point vibrational energy     239078.3 (Joules/Mol)
                                   57.14109 (Kcal/Mol)
 Warning -- explicit consideration of   5 degrees of freedom as
           vibrations may cause significant error
 Vibrational temperatures:     39.03   213.33   240.56   614.52   685.98
          (Kelvin)           1067.63  1105.78  1251.47  1325.21  1499.14
                             1688.14  1735.00  1939.16  1987.52  2080.81
                             2111.03  2121.35  2151.42  2292.39  4255.81
                             4344.41  4363.27  4401.13  4454.72  4692.51
                             4847.72

 Zero-point correction=                           0.091060 (Hartree/Particle)
 Thermal correction to Energy=                    0.096967
 Thermal correction to Enthalpy=                  0.097911
 Thermal correction to Gibbs Free Energy=         0.061526
 Sum of electronic and zero-point Energies=           -135.397935
 Sum of electronic and thermal Energies=              -135.392029
 Sum of electronic and thermal Enthalpies=            -135.391085
 Sum of electronic and thermal Free Energies=         -135.427470

                     E (Thermal)             CV                S
                      KCal/Mol        Cal/Mol-Kelvin    Cal/Mol-Kelvin
 Total                   60.848             18.299             76.579
 Electronic               0.000              0.000              1.377
 Translational            0.889              2.981             37.408
 Rotational               0.889              2.981             23.968
 Vibrational             59.070             12.338             13.826
 Vibration     1          0.593              1.984              6.029
 Vibration     2          0.618              1.905              2.694
 Vibration     3          0.624              1.883              2.467
 Vibration     4          0.789              1.411              0.868
 Vibration     5          0.833              1.302              0.719

                           ! Non-Optimized Parameters !
 Normal termination of Gaussian 16 at Wed Oct  7 16:17:10 2020.
