 Gaussian 16, Revision A.03,

 ----------------------------------------------------------------------
 #P Opt(TS,MaxCyc=50,NoEigenTest,MaxStep=10,AddRedundant) PBEPBE/6-31G*
  5D 7F Integral=UltraFineGrid SCF=(NoSymm,XQC,MaxCyc=120) IOp(1/33=1)
 ----------------------------------------------------------------------

 TstMul:  Mul=     1
 TstMul:  ICh=     0
 TstMul:  Mul=     1
 Symbolic Z-matrix:
 Charge =  0 Multiplicity = 1

 SCF Done:  E(RPBE-PBE) =  -194.972086666     A.U. after   14 cycles
 SCF Done:  E(RPBE-PBE) =  -194.973355495     A.U. after   12 cycles
 SCF Done:  E(RPBE-PBE) =  -194.973316828     A.U. after    9 cycles
 SCF Done:  E(RPBE-PBE) =  -194.973212227     A.U. after   11 cycles
 SCF Done:  E(RPBE-PBE) =  -194.973125075     A.U. after    9 cycles
 SCF Done:  E(RPBE-PBE) =  -194.972991572     A.U. after   10 cycles
 SCF Done:  E(RPBE-PBE) =  -194.972840291     A.U. after   12 cycles
 SCF Done:  E(RPBE-PBE) =  -194.973210212     A.U. after   13 cycles
 SCF Done:  E(RPBE-PBE) =  -194.973465310     A.U. after   13 cycles
 SCF Done:  E(RPBE-PBE) =  -194.973634053     A.U. after   12 cycles
 SCF Done:  E(RPBE-PBE) =  -194.973661493     A.U. after   12 cycles
 SCF Done:  E(RPBE-PBE) =  -194.973663838     A.U. after    9 cycles
 SCF Done:  E(RPBE-PBE) =  -194.973664695     A.U. after    9 cycles
 SCF Done:  E(RPBE-PBE) =  -194.973664954     A.U. after    9 cycles
 SCF Done:  E(RPBE-PBE) =  -194.973665092     A.U. after    8 cycles
 Optimization completed.
    -- Stationary point found.
 Normal termination of Gaussian 16 at Wed Oct  7 16:19:25 2020.
 Gaussian 16:  ES64L-G16RevA.03 25-Dec-2016

 ----------------------------------------------------------------------
 #P Freq PBEPBE/6-31G* 5D 7F Integral=UltraFineGrid SCF=(NoSymm,XQC,Max
 Cyc=120) IOp(1/33=1) Geom=Check Guess=Read
 ----------------------------------------------------------------------

 TstMul:  Mul=     1
 TstMul:  ICh=     0
 TstMul:  Mul=     1
 Structure from the checkpoint file:  "MN_96_RKT22_BH76_PBE_631Gs.chk"
 Charge =  0 Multiplicity = 1

                         Standard orientation:
 ---------------------------------------------------------------------
 Center     Atomic      Atomic             Coordinates (Angstroms)
 Number     Number       Type             X           Y           Z
 ---------------------------------------------------------------------
      1          6           0       -1.309100   -0.911558   -0.023168
      2          6           0       -1.216384    0.510080   -0.012346
      3          6           0        0.000064    1.191360    0.153457
      4          6           0        1.216467    0.510031   -0.012409
      5          6           0        1.309011   -0.911635   -0.023038
      6          1           0        2.180610   -1.342427   -0.538216
      7          1           0        1.078047   -1.462506    0.899194
      8          1           0        2.055382    1.098409   -0.408396
      9          1           0        0.000085    2.285568    0.093594
     10          1           0       -2.055389    1.098580   -0.407955
     11          1           0       -2.180899   -1.342054   -0.538263
     12          1           0        0.000065   -1.202611   -0.493910
     13          1           0       -1.078252   -1.462623    0.898975
 ---------------------------------------------------------------------

 SCF Done:  E(RPBE-PBE) =  -194.973665092     A.U. after    1 cycles

 The electronic state is 1-A.
 Alpha  occ. eigenvalues --   -9.89611  -9.89610  -9.88938  -9.88716  -9.88716
 Alpha  occ. eigenvalues --   -0.74104  -0.66102  -0.61769  -0.52320  -0.46877
 Alpha  occ. eigenvalues --   -0.43702  -0.37027  -0.35955  -0.35725  -0.33904
 Alpha  occ. eigenvalues --   -0.31326  -0.30196  -0.22470  -0.18854
 Alpha virt. eigenvalues --   -0.04920   0.00106   0.07020   0.10014   0.11632
 Alpha virt. eigenvalues --    0.14510   0.15657   0.16322   0.18782   0.20260
 Alpha virt. eigenvalues --    0.24525   0.25984   0.31825   0.37834   0.47830

 Mulliken charges:
               1
     1  C   -0.512751
     2  C   -0.080400
     3  C   -0.135214
     4  C   -0.080394
     5  C   -0.512781
     6  H    0.153878
     7  H    0.192663
     8  H    0.147628
     9  H    0.132552
    10  H    0.147630
    11  H    0.153864
    12  H    0.200670
    13  H    0.192655
 Sum of Mulliken charges =   0.00000

 Dipole moment (field-independent basis, Debye):
    X=             -0.0000    Y=             -0.0100    Z=             -0.1470  Tot=              0.1473
 Quadrupole moment (field-independent basis, Debye-Ang):
   XX=            -30.1485   YY=            -29.7827   ZZ=            -33.5094
   XY=             -0.0005   XZ=             -0.0008   YZ=             -1.3776

  Exact polarizability:  74.936   0.002  63.954  -0.000  -0.661  30.123
 Approx polarizability: 158.018   0.013 133.197   0.002   4.771  49.630

 ******    1 imaginary frequencies (negative Signs) ******

                      1                      2                      3
                      A                      A                      A
 Frequencies --  -1338.5879               266.9518               458.6909
 Red. masses --      1.1973                 2.1024                 2.1027
 Frc consts  --      1.2640                 0.0883                 0.2607
 IR Inten    --     14.1682                 0.0803                 0.7901

                      4                      5                      6
                      A                      A                      A
 Frequencies --    499.7252               551.6555               598.4479
 Red. masses --      2.7145                 3.5793                 1.3271
 Frc consts  --      0.3994                 0.6418                 0.2800
 IR Inten    --      2.7535                 3.5430                29.6990

                      7                      8                      9
                      A                      A                      A
 Frequencies --    726.6039               768.3584               789.4542
 Red. masses --      1.9498                 1.2444                 1.2696
 Frc consts  --      0.6065                 0.4328                 0.4662
 IR Inten    --      9.1952                 4.5506                41.9101

                     10                     11                     12
                      A                      A                      A
 Frequencies --    946.9013               949.1981               975.0953
 Red. masses --      1.2747                 1.3265                 1.5222
 Frc consts  --      0.6734                 0.7042                 0.8528
 IR Inten    --      3.4408                 0.7386                22.4795

                     13                     14                     15
                      A                      A                      A
 Frequencies --    989.0125               990.9433              1080.0392
 Red. masses --      1.3304                 2.3048                 1.3232
 Frc consts  --      0.7667                 1.3335                 0.9094
 IR Inten    --      0.5630                 0.6720                 3.7047

                     16                     17                     18
                      A                      A                      A
 Frequencies --   1108.5659              1171.6880              1231.6967
 Red. masses --      1.6243                 1.1631                 1.4768
 Frc consts  --      1.1761                 0.9408                 1.3201
 IR Inten    --      1.1488                 4.4349                 7.1853

                     19                     20                     21
                      A                      A                      A
 Frequencies --   1244.7785              1397.9380              1408.5482
 Red. masses --      1.2232                 1.1254                 1.3801
 Frc consts  --      1.1167                 1.2958                 1.6133
 IR Inten    --     10.3213                12.0468                 2.3105

                     22                     23                     24
                      A                      A                      A
 Frequencies --   1454.6143              1489.6245              1517.6891
 Red. masses --      1.0709                 1.4354                 1.7860
 Frc consts  --      1.3350                 1.8766                 2.4238
 IR Inten    --      5.8719                 0.0439                 0.9639

                     25                     26                     27
                      A                      A                      A
 Frequencies --   1528.3981              1573.9186              3041.0472
 Red. masses --      5.1318                 1.4689                 1.0567
 Frc consts  --      7.0631                 2.1440                 5.7579
 IR Inten    --      7.5874                 2.6583                25.3587

                     28                     29                     30
                      A                      A                      A
 Frequencies --   3042.5199              3079.3616              3082.8293
 Red. masses --      1.0570                 1.0873                 1.0915
 Frc consts  --      5.7649                 6.0747                 6.1117
 IR Inten    --     11.2321                 0.8386                 7.6032

                     31                     32                     33
                      A                      A                      A
 Frequencies --   3103.1264              3107.6239              3121.3132
 Red. masses --      1.1106                 1.1071                 1.0942
 Frc consts  --      6.3011                 6.2996                 6.2812
 IR Inten    --     26.9074                14.8826                24.3228

 - Thermochemistry -
 -------------------
 Temperature   298.150 Kelvin.  Pressure   1.00000 Atm.
 Atom     1 has atomic number  6 and mass  12.00000

 Molecular mass:    68.06260 amu.
 Principal axes and moments of inertia in atomic units:
                           1         2         3
     Eigenvalues --   226.18578 357.66302 561.90730
           X            1.00000  -0.00001  -0.00001
           Y            0.00001   0.99976  -0.02181
           Z            0.00001   0.02181   0.99976
 This molecule is an asymmetric top.
 Rotational symmetry number  1.
 Rotational temperatures (Kelvin)      0.38293     0.24217     0.15414
 Rotational constants (GHZ):           7.97902     5.04593     3.21181
    1 imaginary frequencies ignored.
 Zero-point vibrational energy     282895.0 (Joules/Mol)
                                   67.61354 (Kcal/Mol)
 Warning -- explicit consideration of   5 degrees of freedom as
           vibrations may cause significant error
 Vibrational temperatures:    384.08   659.95   718.99   793.71   861.03
          (Kelvin)           1045.42  1105.50  1135.85  1362.38  1365.68
                             1402.94  1422.97  1425.75  1553.94  1594.98
                             1685.80  1772.14  1790.96  2011.32  2026.59
                             2092.87  2143.24  2183.62  2199.02  2264.52
                             4375.39  4377.51  4430.51  4435.50  4464.71
                             4471.18  4490.87

 Zero-point correction=                           0.107749 (Hartree/Particle)
 Thermal correction to Energy=                    0.112491
 Thermal correction to Enthalpy=                  0.113435
 Thermal correction to Gibbs Free Energy=         0.080402
 Sum of electronic and zero-point Energies=           -194.865916
 Sum of electronic and thermal Energies=              -194.861174
 Sum of electronic and thermal Enthalpies=            -194.860230
 Sum of electronic and thermal Free Energies=         -194.893263

                     E (Thermal)             CV                S
                      KCal/Mol        Cal/Mol-Kelvin    Cal/Mol-Kelvin
 Total                   70.589             18.396             69.524
 Electronic               0.000              0.000              0.000
 Translational            0.889              2.981             38.571
 Rotational               0.889              2.981             25.322
 Vibrational             68.812             12.435              5.630
 Vibration     1          0.672              1.734              1.616
 Vibration     2          0.817              1.342              0.770
 Vibration     3          0.855              1.251              0.659
 Vibration     4          0.907              1.136              0.541
 Vibration     5          0.956              1.035              0.452

 Optimization completed.
    -- Stationary point found.
 Normal termination of Gaussian 16 at Wed Oct  7 16:20:33 2020.
